 **********************************************************************
                          MRCC program system
 **********************************************************************
 
                              Written by
     Mihaly Kallay, Peter R. Nagy, David Mester, Laszlo Gyevi-Nagy,
        Jozsef Csoka, P. Bernat Szabo, Zoltan Rolik, Gyula Samu,
     Jozsef Csontos, Bence Hegely, Adam Ganyecz, Istvan Ladjanszki,
       Lorant Szegedy, Bence Ladoczki, Klara Petrov, Mate Farkas,
                    Pal D. Mezei, and Reka A. Horvath
 
        Department of Physical Chemistry and Materials Science
            Budapest University of Technology and Economics
                  Budapest P.O.Box 91, H-1521 Hungary
 
                              www.mrcc.hu
 
                      Release date: March 18, 2022

 ************************ 2023-02-04 10:26:51 *************************
 Executing minp...

 Reading input from MINP...
 
 Input file:
 
calc=FNO-CCSD(T)
verbosity=3
mem=220GB
unit=angs
scfiguess=small
scfalg=locfit1
ccmaxit=400
ccsdalg=dfdirect
ccsdthreads=4
ccsdmkl=thr
ptthreads=4
lnoepsv=1e-5
naf_cor=1e-2
ECP=MCDHF-ECP-60
basis=bse_ACVTZ
basis_sm=def2-SVP
dfbasis_scf=def2-QZVPP-RI-JK
dfbasis_cor=bse_ACVTZ_mp2fit
core=0
unit=angs
geom=xyz
    8
Au8_4
Au    -1.27192867    -2.18314879    -0.19705398
Au     1.40637168     1.31369521    -1.64901341
Au     1.20625837    -1.27476397    -0.72796158
Au    -2.37901197     0.28457692     0.82647173
Au    -0.17633725     1.81048032     0.55036826
Au     2.24525934     0.58366227     1.01942219
Au     0.00952574    -0.72362483     1.75662764
Au    -1.04013724     0.18912286    -1.57886085

ghost=serialno


 
 
 Checking keyword combinations...
 
 Keywords:
 
 active=none
 agrid=ld0006-ld0590
 agrid_pssp=ld0006-ld0194
 agrid_pssp_sm=ld0006-ld0074
 basis=bse_acvtz
 basis_sm=def2-svp
 basopt=off
 bfbasis=none
 bfgsmem=10
 bfgstol=1.0d-3
 bpcompo=0.985
 bpcompv=0.98
 bpdfo=0.985
 bpocc=0.985
 bppdo=0.985
 bppdv=0.98
 bpedo=0.985
 bpedv=0.98
 calc=ccsd(t)
 ccmaxit=400
 ccprog=ccsd
 ccsdalg=dfdirect
 ccsdmkl=thr
 ccsdrest=trf
 ccsdthreads=4
 cctol=6
 charge=0
 cialg=auto
 ciguess=off
 cmpgrp=auto
 comprest=off
 core=corr
 corembed=off
 csapprox=off
 cvs=off
 dboc=off
 delocsomofact=
 dendec=cholesky
 dens=0
 dfalg=lineq
 dfbasis_cab=none
 dfbasis_cor=bse_acvtz_mp2fit
 dfbasis_scf=def2-qzvpp-ri-jk
 dfbasis_scf_sm=def2-qzvpp-ri-jk
 dfintran=drpa
 dft=off
 dhexc=adc(2)
 diag=david
 docc=
 domrad=10.d0
 drpaalg=fit
 dual=off
 dual_df=off
 ecp=mcdhf-ecp-60
 edisp=off
 edisp_embed=off
 embed=off
 etemp=300
 epert=none
 eps=
 espcharge=off
 excrad=1.0
 excrad_fin=0.100000000D-02
 fitting=coulomb
 fmm=off
 fmmord=8
 freq=off
 gamma=1.d0
 gauss=spher
 geom=xyz
 gopt=off
 ghost=serialno
 gtol=7
 grdens=off
 gridbatch_cos=2000
 grtol=10
 guido_ct=off
 hamilton=dc
 iface=none
 intalg=auto
 itol=10
 laptol=1.d-2
 lccoporder=trffirst
 lcorthr=normal
 lccrest=off
 lmp2dens=on
 lnoepso=0.d0
 lnoepsv=1e-5
 boysalg=jacobi
 localcc=off
 localcorrsymm=off
 locintrf=disk
 mact=
 maxact=off
 maxdim=100
 maxex=0
 maxmicroit=100
 mcscfiguess=hf
 mem=220gb
 mmprog=
 molden=on
 mpitasks=1
 mulmet=0
 mult=
 nacto=0
 nactv=0
 naf_amp=1.d-2
 naf_cor=1e-2
 naf_scf=off
 nafalg=albe
 naftyp=
 nchol=auto
 ndeps=1e-3
 nstate=1
 nsing=0
 nto=off
 ntrip=0
 occ=
 occri=off
 oniom=off
 oniom_eechg=off
 oniom_pcm=off
 oniom_qcorr=off
 optalg=
 optmaxit=50
 optetol=1e-6
 optex=0
 optgtol=1e-4
 optstol=1e-3
 orblocc=off
 orbloce=off
 orbloco=off
 orblocv=off
 orblocguess=cholesky
 osveps=1e-3
 ovirt=ppl
 ovltol=1e-7
 ovosnorb=80.0
 pcm=off
 popul=off
 pressure=100000
 pssp=off
 ptfreq=0.0
 ptthreads=4
 qro=off
 qscf=off
 qmmm=off
 redcost_exc=off
 redcost_tddft=off
 refdet=none
 rest=0
 rgrid=log3
 rism=off
 rohfcore=semicanonical
 rohftype=semicanonical
 scfalg=locfit1
 scf_conv=difficult
 scfdamp=0.0d0
 scfdamp_mode=off
 scfdamp_end=50
 scfdamp_dampstep=0.d0
 scfdamp_dtol=0.0d0
 scfdamp_maxfact=0.0d0
 scfdamp_minfact=0.0d0
 scfdiis=on
 scfdiis_dtol=0.0d0
 scfdiis_end=50
 scfdiis_start=2
 scfdiis_step=1
 scfdiis_watch=off
 scfdiis_wrange=10
 scfdiis_wlimit=5
 scfdiis_delmax=2
 scfdtol=7
 scfext=10
 scfguessdens=
 scfiguess=small
 scfloc=pm
 scflshift=0.20
 scflshift_end=8
 scflshift_dtol=0.0
 scflshift_gaptol=0.20
 scfmaxit=50
 scftype=
 scftol=6
 scspe=1.d0
 scsph=1.d0
 scsps=1.2d0
 scsps_t=1.2d0
 scspt=0.33333333333333
 scspt_t=0.33333333333333
 scspv=1.d0
 spairtol=1e-4
 sqmprog=
 subminp=top
 symm=
 talg=occ
 temp=298.15
 test=off
 theodore=off
 tlmo=0.999
 tpao=0.94
 tprint=off
 uncontract=off
 unit=angs
 usedisk=2
 verbosity=3
 wpairtol=0.100000000E-05
 
 Calculating integrals for small-basis SCF...

 ************************ 2023-02-04 10:26:51 *************************
 Executing integ...

 Allocation of 220.0 Gbytes of memory...
 
 
 Number of atoms:                  8
 Charge:                           0
 Number of electrons:            152
 Number of core electrons:         0
 Spin multiplicity:                1
 
                 Cartesian coordinates [bohr]      Atomic mass [AMU]  Z
   1  Au   -2.40359684   -4.12555330   -0.37237805   196.966543      79
   2  Au    2.65765731    2.48252416   -3.11618372   196.966543      79
   3  Au    2.27949796   -2.40895478   -1.37564802   196.966543      79
   4  Au   -4.49568107    0.53777244    1.56180522   196.966543      79
   5  Au   -0.33322911    3.42131196    1.04004528   196.966543      79
   6  Au    4.24292523    1.10296184    1.92642875   196.966543      79
   7  Au    0.01800104   -1.36745275    3.31954514   196.966543      79
   8  Au   -1.96557452    0.35739041   -2.98361460   196.966543      79
 
 This molecule is an asymmetric top.
 
 Point group: C1  
 Computational point group: C1  
 
 Cartesian coordinates in standard orientation [bohr]
   1  Au    3.93264589    2.65737711   -0.63935625
   2  Au   -3.93419387   -0.63798018   -2.65551679
   3  Au   -1.10917732    3.32030961   -0.79802961
   4  Au    3.93417950   -2.65588488    0.63881939
   5  Au   -1.11016004   -3.32094693    0.79810245
   6  Au   -3.93277915    0.63914366    2.65608935
   7  Au    1.10983467    0.79781128    3.31984867
   8  Au    1.10965032   -0.79982967   -3.31995720
 
 Nuclear repulsion energy [au]:       1694.427634617641
 
 
 Basis set information:
 
 Maximum angular momentum: i
 Maximum number of contracted Gaussians:   13
 Maximum number of primitive Gaussians:    13
 Spherical harmonic GTOs are used.
 
 
 Conventional basis set:
 
   1  Au def2-svp [ 7s 6p 5d 1f | 6s 3p 2d 1f ]
   2  Au def2-svp [ 7s 6p 5d 1f | 6s 3p 2d 1f ]
   3  Au def2-svp [ 7s 6p 5d 1f | 6s 3p 2d 1f ]
   4  Au def2-svp [ 7s 6p 5d 1f | 6s 3p 2d 1f ]
   5  Au def2-svp [ 7s 6p 5d 1f | 6s 3p 2d 1f ]
   6  Au def2-svp [ 7s 6p 5d 1f | 6s 3p 2d 1f ]
   7  Au def2-svp [ 7s 6p 5d 1f | 6s 3p 2d 1f ]
   8  Au def2-svp [ 7s 6p 5d 1f | 6s 3p 2d 1f ]
 
 Basis functions:
            1             2             3             4             5             6             7             8             9            10
    0    1Au1s         1Au2s         1Au3s         1Au4s         1Au5s         1Au6s         1Au1pz        1Au1py        1Au1px        1Au2pz    
    1    1Au2py        1Au2px        1Au3pz        1Au3py        1Au3px        1Au1d-2       1Au1d-1       1Au1d0        1Au1d+1       1Au1d+2   
    2    1Au2d-2       1Au2d-1       1Au2d0        1Au2d+1       1Au2d+2       1Au1f-3       1Au1f-2       1Au1f-1       1Au1f0        1Au1f+1   
    3    1Au1f+2       1Au1f+3       2Au1s         2Au2s         2Au3s         2Au4s         2Au5s         2Au6s         2Au1pz        2Au1py    
    4    2Au1px        2Au2pz        2Au2py        2Au2px        2Au3pz        2Au3py        2Au3px        2Au1d-2       2Au1d-1       2Au1d0    
    5    2Au1d+1       2Au1d+2       2Au2d-2       2Au2d-1       2Au2d0        2Au2d+1       2Au2d+2       2Au1f-3       2Au1f-2       2Au1f-1   
    6    2Au1f0        2Au1f+1       2Au1f+2       2Au1f+3       3Au1s         3Au2s         3Au3s         3Au4s         3Au5s         3Au6s     
    7    3Au1pz        3Au1py        3Au1px        3Au2pz        3Au2py        3Au2px        3Au3pz        3Au3py        3Au3px        3Au1d-2   
    8    3Au1d-1       3Au1d0        3Au1d+1       3Au1d+2       3Au2d-2       3Au2d-1       3Au2d0        3Au2d+1       3Au2d+2       3Au1f-3   
    9    3Au1f-2       3Au1f-1       3Au1f0        3Au1f+1       3Au1f+2       3Au1f+3       4Au1s         4Au2s         4Au3s         4Au4s     
   10    4Au5s         4Au6s         4Au1pz        4Au1py        4Au1px        4Au2pz        4Au2py        4Au2px        4Au3pz        4Au3py    
   11    4Au3px        4Au1d-2       4Au1d-1       4Au1d0        4Au1d+1       4Au1d+2       4Au2d-2       4Au2d-1       4Au2d0        4Au2d+1   
   12    4Au2d+2       4Au1f-3       4Au1f-2       4Au1f-1       4Au1f0        4Au1f+1       4Au1f+2       4Au1f+3       5Au1s         5Au2s     
   13    5Au3s         5Au4s         5Au5s         5Au6s         5Au1pz        5Au1py        5Au1px        5Au2pz        5Au2py        5Au2px    
   14    5Au3pz        5Au3py        5Au3px        5Au1d-2       5Au1d-1       5Au1d0        5Au1d+1       5Au1d+2       5Au2d-2       5Au2d-1   
   15    5Au2d0        5Au2d+1       5Au2d+2       5Au1f-3       5Au1f-2       5Au1f-1       5Au1f0        5Au1f+1       5Au1f+2       5Au1f+3   
   16    6Au1s         6Au2s         6Au3s         6Au4s         6Au5s         6Au6s         6Au1pz        6Au1py        6Au1px        6Au2pz    
   17    6Au2py        6Au2px        6Au3pz        6Au3py        6Au3px        6Au1d-2       6Au1d-1       6Au1d0        6Au1d+1       6Au1d+2   
   18    6Au2d-2       6Au2d-1       6Au2d0        6Au2d+1       6Au2d+2       6Au1f-3       6Au1f-2       6Au1f-1       6Au1f0        6Au1f+1   
   19    6Au1f+2       6Au1f+3       7Au1s         7Au2s         7Au3s         7Au4s         7Au5s         7Au6s         7Au1pz        7Au1py    
   20    7Au1px        7Au2pz        7Au2py        7Au2px        7Au3pz        7Au3py        7Au3px        7Au1d-2       7Au1d-1       7Au1d0    
   21    7Au1d+1       7Au1d+2       7Au2d-2       7Au2d-1       7Au2d0        7Au2d+1       7Au2d+2       7Au1f-3       7Au1f-2       7Au1f-1   
   22    7Au1f0        7Au1f+1       7Au1f+2       7Au1f+3       8Au1s         8Au2s         8Au3s         8Au4s         8Au5s         8Au6s     
   23    8Au1pz        8Au1py        8Au1px        8Au2pz        8Au2py        8Au2px        8Au3pz        8Au3py        8Au3px        8Au1d-2   
   24    8Au1d-1       8Au1d0        8Au1d+1       8Au1d+2       8Au2d-2       8Au2d-1       8Au2d0        8Au2d+1       8Au2d+2       8Au1f-3   
   25    8Au1f-2       8Au1f-1       8Au1f0        8Au1f+1       8Au1f+2       8Au1f+3   
 
 Maximum number of basis functions per shell:   10
 Total number of basis functions:    256
 
 
 Fitting basis set for the SCF calculation:
 
   1  Au def2-qzvpp-ri-jk [ 13s 12p 11d 9f 5g 3h 2i | 13s 11p 10d 8f 4g 3h 2i ]
   2  Au def2-qzvpp-ri-jk [ 13s 12p 11d 9f 5g 3h 2i | 13s 11p 10d 8f 4g 3h 2i ]
   3  Au def2-qzvpp-ri-jk [ 13s 12p 11d 9f 5g 3h 2i | 13s 11p 10d 8f 4g 3h 2i ]
   4  Au def2-qzvpp-ri-jk [ 13s 12p 11d 9f 5g 3h 2i | 13s 11p 10d 8f 4g 3h 2i ]
   5  Au def2-qzvpp-ri-jk [ 13s 12p 11d 9f 5g 3h 2i | 13s 11p 10d 8f 4g 3h 2i ]
   6  Au def2-qzvpp-ri-jk [ 13s 12p 11d 9f 5g 3h 2i | 13s 11p 10d 8f 4g 3h 2i ]
   7  Au def2-qzvpp-ri-jk [ 13s 12p 11d 9f 5g 3h 2i | 13s 11p 10d 8f 4g 3h 2i ]
   8  Au def2-qzvpp-ri-jk [ 13s 12p 11d 9f 5g 3h 2i | 13s 11p 10d 8f 4g 3h 2i ]
 
 Basis functions:
            1             2             3             4             5             6             7             8             9            10
    0    1Au1s         1Au2s         1Au3s         1Au4s         1Au5s         1Au6s         1Au7s         1Au8s         1Au9s         1Au10s    
    1    1Au11s        1Au12s        1Au13s        1Au1pz        1Au1py        1Au1px        1Au2pz        1Au2py        1Au2px        1Au3pz    
    2    1Au3py        1Au3px        1Au4pz        1Au4py        1Au4px        1Au5pz        1Au5py        1Au5px        1Au6pz        1Au6py    
    3    1Au6px        1Au7pz        1Au7py        1Au7px        1Au8pz        1Au8py        1Au8px        1Au9pz        1Au9py        1Au9px    
    4    1Au10pz       1Au10py       1Au10px       1Au11pz       1Au11py       1Au11px       1Au1d-2       1Au1d-1       1Au1d0        1Au1d+1   
    5    1Au1d+2       1Au2d-2       1Au2d-1       1Au2d0        1Au2d+1       1Au2d+2       1Au3d-2       1Au3d-1       1Au3d0        1Au3d+1   
    6    1Au3d+2       1Au4d-2       1Au4d-1       1Au4d0        1Au4d+1       1Au4d+2       1Au5d-2       1Au5d-1       1Au5d0        1Au5d+1   
    7    1Au5d+2       1Au6d-2       1Au6d-1       1Au6d0        1Au6d+1       1Au6d+2       1Au7d-2       1Au7d-1       1Au7d0        1Au7d+1   
    8    1Au7d+2       1Au8d-2       1Au8d-1       1Au8d0        1Au8d+1       1Au8d+2       1Au9d-2       1Au9d-1       1Au9d0        1Au9d+1   
    9    1Au9d+2       1Au10d-2      1Au10d-1      1Au10d0       1Au10d+1      1Au10d+2      1Au1f-3       1Au1f-2       1Au1f-1       1Au1f0    
   10    1Au1f+1       1Au1f+2       1Au1f+3       1Au2f-3       1Au2f-2       1Au2f-1       1Au2f0        1Au2f+1       1Au2f+2       1Au2f+3   
   11    1Au3f-3       1Au3f-2       1Au3f-1       1Au3f0        1Au3f+1       1Au3f+2       1Au3f+3       1Au4f-3       1Au4f-2       1Au4f-1   
   12    1Au4f0        1Au4f+1       1Au4f+2       1Au4f+3       1Au5f-3       1Au5f-2       1Au5f-1       1Au5f0        1Au5f+1       1Au5f+2   
   13    1Au5f+3       1Au6f-3       1Au6f-2       1Au6f-1       1Au6f0        1Au6f+1       1Au6f+2       1Au6f+3       1Au7f-3       1Au7f-2   
   14    1Au7f-1       1Au7f0        1Au7f+1       1Au7f+2       1Au7f+3       1Au8f-3       1Au8f-2       1Au8f-1       1Au8f0        1Au8f+1   
   15    1Au8f+2       1Au8f+3       1Au1g-4       1Au1g-3       1Au1g-2       1Au1g-1       1Au1g0        1Au1g+1       1Au1g+2       1Au1g+3   
   16    1Au1g+4       1Au2g-4       1Au2g-3       1Au2g-2       1Au2g-1       1Au2g0        1Au2g+1       1Au2g+2       1Au2g+3       1Au2g+4   
   17    1Au3g-4       1Au3g-3       1Au3g-2       1Au3g-1       1Au3g0        1Au3g+1       1Au3g+2       1Au3g+3       1Au3g+4       1Au4g-4   
   18    1Au4g-3       1Au4g-2       1Au4g-1       1Au4g0        1Au4g+1       1Au4g+2       1Au4g+3       1Au4g+4       1Au1h-5       1Au1h-4   
   19    1Au1h-3       1Au1h-2       1Au1h-1       1Au1h0        1Au1h+1       1Au1h+2       1Au1h+3       1Au1h+4       1Au1h+5       1Au2h-5   
   20    1Au2h-4       1Au2h-3       1Au2h-2       1Au2h-1       1Au2h0        1Au2h+1       1Au2h+2       1Au2h+3       1Au2h+4       1Au2h+5   
   21    1Au3h-5       1Au3h-4       1Au3h-3       1Au3h-2       1Au3h-1       1Au3h0        1Au3h+1       1Au3h+2       1Au3h+3       1Au3h+4   
   22    1Au3h+5       1Au1i-6       1Au1i-5       1Au1i-4       1Au1i-3       1Au1i-2       1Au1i-1       1Au1i0        1Au1i+1       1Au1i+2   
   23    1Au1i+3       1Au1i+4       1Au1i+5       1Au1i+6       1Au2i-6       1Au2i-5       1Au2i-4       1Au2i-3       1Au2i-2       1Au2i-1   
   24    1Au2i0        1Au2i+1       1Au2i+2       1Au2i+3       1Au2i+4       1Au2i+5       1Au2i+6       2Au1s         2Au2s         2Au3s     
   25    2Au4s         2Au5s         2Au6s         2Au7s         2Au8s         2Au9s         2Au10s        2Au11s        2Au12s        2Au13s    
   26    2Au1pz        2Au1py        2Au1px        2Au2pz        2Au2py        2Au2px        2Au3pz        2Au3py        2Au3px        2Au4pz    
   27    2Au4py        2Au4px        2Au5pz        2Au5py        2Au5px        2Au6pz        2Au6py        2Au6px        2Au7pz        2Au7py    
   28    2Au7px        2Au8pz        2Au8py        2Au8px        2Au9pz        2Au9py        2Au9px        2Au10pz       2Au10py       2Au10px   
   29    2Au11pz       2Au11py       2Au11px       2Au1d-2       2Au1d-1       2Au1d0        2Au1d+1       2Au1d+2       2Au2d-2       2Au2d-1   
   30    2Au2d0        2Au2d+1       2Au2d+2       2Au3d-2       2Au3d-1       2Au3d0        2Au3d+1       2Au3d+2       2Au4d-2       2Au4d-1   
   31    2Au4d0        2Au4d+1       2Au4d+2       2Au5d-2       2Au5d-1       2Au5d0        2Au5d+1       2Au5d+2       2Au6d-2       2Au6d-1   
   32    2Au6d0        2Au6d+1       2Au6d+2       2Au7d-2       2Au7d-1       2Au7d0        2Au7d+1       2Au7d+2       2Au8d-2       2Au8d-1   
   33    2Au8d0        2Au8d+1       2Au8d+2       2Au9d-2       2Au9d-1       2Au9d0        2Au9d+1       2Au9d+2       2Au10d-2      2Au10d-1  
   34    2Au10d0       2Au10d+1      2Au10d+2      2Au1f-3       2Au1f-2       2Au1f-1       2Au1f0        2Au1f+1       2Au1f+2       2Au1f+3   
   35    2Au2f-3       2Au2f-2       2Au2f-1       2Au2f0        2Au2f+1       2Au2f+2       2Au2f+3       2Au3f-3       2Au3f-2       2Au3f-1   
   36    2Au3f0        2Au3f+1       2Au3f+2       2Au3f+3       2Au4f-3       2Au4f-2       2Au4f-1       2Au4f0        2Au4f+1       2Au4f+2   
   37    2Au4f+3       2Au5f-3       2Au5f-2       2Au5f-1       2Au5f0        2Au5f+1       2Au5f+2       2Au5f+3       2Au6f-3       2Au6f-2   
   38    2Au6f-1       2Au6f0        2Au6f+1       2Au6f+2       2Au6f+3       2Au7f-3       2Au7f-2       2Au7f-1       2Au7f0        2Au7f+1   
   39    2Au7f+2       2Au7f+3       2Au8f-3       2Au8f-2       2Au8f-1       2Au8f0        2Au8f+1       2Au8f+2       2Au8f+3       2Au1g-4   
   40    2Au1g-3       2Au1g-2       2Au1g-1       2Au1g0        2Au1g+1       2Au1g+2       2Au1g+3       2Au1g+4       2Au2g-4       2Au2g-3   
   41    2Au2g-2       2Au2g-1       2Au2g0        2Au2g+1       2Au2g+2       2Au2g+3       2Au2g+4       2Au3g-4       2Au3g-3       2Au3g-2   
   42    2Au3g-1       2Au3g0        2Au3g+1       2Au3g+2       2Au3g+3       2Au3g+4       2Au4g-4       2Au4g-3       2Au4g-2       2Au4g-1   
   43    2Au4g0        2Au4g+1       2Au4g+2       2Au4g+3       2Au4g+4       2Au1h-5       2Au1h-4       2Au1h-3       2Au1h-2       2Au1h-1   
   44    2Au1h0        2Au1h+1       2Au1h+2       2Au1h+3       2Au1h+4       2Au1h+5       2Au2h-5       2Au2h-4       2Au2h-3       2Au2h-2   
   45    2Au2h-1       2Au2h0        2Au2h+1       2Au2h+2       2Au2h+3       2Au2h+4       2Au2h+5       2Au3h-5       2Au3h-4       2Au3h-3   
   46    2Au3h-2       2Au3h-1       2Au3h0        2Au3h+1       2Au3h+2       2Au3h+3       2Au3h+4       2Au3h+5       2Au1i-6       2Au1i-5   
   47    2Au1i-4       2Au1i-3       2Au1i-2       2Au1i-1       2Au1i0        2Au1i+1       2Au1i+2       2Au1i+3       2Au1i+4       2Au1i+5   
   48    2Au1i+6       2Au2i-6       2Au2i-5       2Au2i-4       2Au2i-3       2Au2i-2       2Au2i-1       2Au2i0        2Au2i+1       2Au2i+2   
   49    2Au2i+3       2Au2i+4       2Au2i+5       2Au2i+6       3Au1s         3Au2s         3Au3s         3Au4s         3Au5s         3Au6s     
   50    3Au7s         3Au8s         3Au9s         3Au10s        3Au11s        3Au12s        3Au13s        3Au1pz        3Au1py        3Au1px    
   51    3Au2pz        3Au2py        3Au2px        3Au3pz        3Au3py        3Au3px        3Au4pz        3Au4py        3Au4px        3Au5pz    
   52    3Au5py        3Au5px        3Au6pz        3Au6py        3Au6px        3Au7pz        3Au7py        3Au7px        3Au8pz        3Au8py    
   53    3Au8px        3Au9pz        3Au9py        3Au9px        3Au10pz       3Au10py       3Au10px       3Au11pz       3Au11py       3Au11px   
   54    3Au1d-2       3Au1d-1       3Au1d0        3Au1d+1       3Au1d+2       3Au2d-2       3Au2d-1       3Au2d0        3Au2d+1       3Au2d+2   
   55    3Au3d-2       3Au3d-1       3Au3d0        3Au3d+1       3Au3d+2       3Au4d-2       3Au4d-1       3Au4d0        3Au4d+1       3Au4d+2   
   56    3Au5d-2       3Au5d-1       3Au5d0        3Au5d+1       3Au5d+2       3Au6d-2       3Au6d-1       3Au6d0        3Au6d+1       3Au6d+2   
   57    3Au7d-2       3Au7d-1       3Au7d0        3Au7d+1       3Au7d+2       3Au8d-2       3Au8d-1       3Au8d0        3Au8d+1       3Au8d+2   
   58    3Au9d-2       3Au9d-1       3Au9d0        3Au9d+1       3Au9d+2       3Au10d-2      3Au10d-1      3Au10d0       3Au10d+1      3Au10d+2  
   59    3Au1f-3       3Au1f-2       3Au1f-1       3Au1f0        3Au1f+1       3Au1f+2       3Au1f+3       3Au2f-3       3Au2f-2       3Au2f-1   
   60    3Au2f0        3Au2f+1       3Au2f+2       3Au2f+3       3Au3f-3       3Au3f-2       3Au3f-1       3Au3f0        3Au3f+1       3Au3f+2   
   61    3Au3f+3       3Au4f-3       3Au4f-2       3Au4f-1       3Au4f0        3Au4f+1       3Au4f+2       3Au4f+3       3Au5f-3       3Au5f-2   
   62    3Au5f-1       3Au5f0        3Au5f+1       3Au5f+2       3Au5f+3       3Au6f-3       3Au6f-2       3Au6f-1       3Au6f0        3Au6f+1   
   63    3Au6f+2       3Au6f+3       3Au7f-3       3Au7f-2       3Au7f-1       3Au7f0        3Au7f+1       3Au7f+2       3Au7f+3       3Au8f-3   
   64    3Au8f-2       3Au8f-1       3Au8f0        3Au8f+1       3Au8f+2       3Au8f+3       3Au1g-4       3Au1g-3       3Au1g-2       3Au1g-1   
   65    3Au1g0        3Au1g+1       3Au1g+2       3Au1g+3       3Au1g+4       3Au2g-4       3Au2g-3       3Au2g-2       3Au2g-1       3Au2g0    
   66    3Au2g+1       3Au2g+2       3Au2g+3       3Au2g+4       3Au3g-4       3Au3g-3       3Au3g-2       3Au3g-1       3Au3g0        3Au3g+1   
   67    3Au3g+2       3Au3g+3       3Au3g+4       3Au4g-4       3Au4g-3       3Au4g-2       3Au4g-1       3Au4g0        3Au4g+1       3Au4g+2   
   68    3Au4g+3       3Au4g+4       3Au1h-5       3Au1h-4       3Au1h-3       3Au1h-2       3Au1h-1       3Au1h0        3Au1h+1       3Au1h+2   
   69    3Au1h+3       3Au1h+4       3Au1h+5       3Au2h-5       3Au2h-4       3Au2h-3       3Au2h-2       3Au2h-1       3Au2h0        3Au2h+1   
   70    3Au2h+2       3Au2h+3       3Au2h+4       3Au2h+5       3Au3h-5       3Au3h-4       3Au3h-3       3Au3h-2       3Au3h-1       3Au3h0    
   71    3Au3h+1       3Au3h+2       3Au3h+3       3Au3h+4       3Au3h+5       3Au1i-6       3Au1i-5       3Au1i-4       3Au1i-3       3Au1i-2   
   72    3Au1i-1       3Au1i0        3Au1i+1       3Au1i+2       3Au1i+3       3Au1i+4       3Au1i+5       3Au1i+6       3Au2i-6       3Au2i-5   
   73    3Au2i-4       3Au2i-3       3Au2i-2       3Au2i-1       3Au2i0        3Au2i+1       3Au2i+2       3Au2i+3       3Au2i+4       3Au2i+5   
   74    3Au2i+6       4Au1s         4Au2s         4Au3s         4Au4s         4Au5s         4Au6s         4Au7s         4Au8s         4Au9s     
   75    4Au10s        4Au11s        4Au12s        4Au13s        4Au1pz        4Au1py        4Au1px        4Au2pz        4Au2py        4Au2px    
   76    4Au3pz        4Au3py        4Au3px        4Au4pz        4Au4py        4Au4px        4Au5pz        4Au5py        4Au5px        4Au6pz    
   77    4Au6py        4Au6px        4Au7pz        4Au7py        4Au7px        4Au8pz        4Au8py        4Au8px        4Au9pz        4Au9py    
   78    4Au9px        4Au10pz       4Au10py       4Au10px       4Au11pz       4Au11py       4Au11px       4Au1d-2       4Au1d-1       4Au1d0    
   79    4Au1d+1       4Au1d+2       4Au2d-2       4Au2d-1       4Au2d0        4Au2d+1       4Au2d+2       4Au3d-2       4Au3d-1       4Au3d0    
   80    4Au3d+1       4Au3d+2       4Au4d-2       4Au4d-1       4Au4d0        4Au4d+1       4Au4d+2       4Au5d-2       4Au5d-1       4Au5d0    
   81    4Au5d+1       4Au5d+2       4Au6d-2       4Au6d-1       4Au6d0        4Au6d+1       4Au6d+2       4Au7d-2       4Au7d-1       4Au7d0    
   82    4Au7d+1       4Au7d+2       4Au8d-2       4Au8d-1       4Au8d0        4Au8d+1       4Au8d+2       4Au9d-2       4Au9d-1       4Au9d0    
   83    4Au9d+1       4Au9d+2       4Au10d-2      4Au10d-1      4Au10d0       4Au10d+1      4Au10d+2      4Au1f-3       4Au1f-2       4Au1f-1   
   84    4Au1f0        4Au1f+1       4Au1f+2       4Au1f+3       4Au2f-3       4Au2f-2       4Au2f-1       4Au2f0        4Au2f+1       4Au2f+2   
   85    4Au2f+3       4Au3f-3       4Au3f-2       4Au3f-1       4Au3f0        4Au3f+1       4Au3f+2       4Au3f+3       4Au4f-3       4Au4f-2   
   86    4Au4f-1       4Au4f0        4Au4f+1       4Au4f+2       4Au4f+3       4Au5f-3       4Au5f-2       4Au5f-1       4Au5f0        4Au5f+1   
   87    4Au5f+2       4Au5f+3       4Au6f-3       4Au6f-2       4Au6f-1       4Au6f0        4Au6f+1       4Au6f+2       4Au6f+3       4Au7f-3   
   88    4Au7f-2       4Au7f-1       4Au7f0        4Au7f+1       4Au7f+2       4Au7f+3       4Au8f-3       4Au8f-2       4Au8f-1       4Au8f0    
   89    4Au8f+1       4Au8f+2       4Au8f+3       4Au1g-4       4Au1g-3       4Au1g-2       4Au1g-1       4Au1g0        4Au1g+1       4Au1g+2   
   90    4Au1g+3       4Au1g+4       4Au2g-4       4Au2g-3       4Au2g-2       4Au2g-1       4Au2g0        4Au2g+1       4Au2g+2       4Au2g+3   
   91    4Au2g+4       4Au3g-4       4Au3g-3       4Au3g-2       4Au3g-1       4Au3g0        4Au3g+1       4Au3g+2       4Au3g+3       4Au3g+4   
   92    4Au4g-4       4Au4g-3       4Au4g-2       4Au4g-1       4Au4g0        4Au4g+1       4Au4g+2       4Au4g+3       4Au4g+4       4Au1h-5   
   93    4Au1h-4       4Au1h-3       4Au1h-2       4Au1h-1       4Au1h0        4Au1h+1       4Au1h+2       4Au1h+3       4Au1h+4       4Au1h+5   
   94    4Au2h-5       4Au2h-4       4Au2h-3       4Au2h-2       4Au2h-1       4Au2h0        4Au2h+1       4Au2h+2       4Au2h+3       4Au2h+4   
   95    4Au2h+5       4Au3h-5       4Au3h-4       4Au3h-3       4Au3h-2       4Au3h-1       4Au3h0        4Au3h+1       4Au3h+2       4Au3h+3   
   96    4Au3h+4       4Au3h+5       4Au1i-6       4Au1i-5       4Au1i-4       4Au1i-3       4Au1i-2       4Au1i-1       4Au1i0        4Au1i+1   
   97    4Au1i+2       4Au1i+3       4Au1i+4       4Au1i+5       4Au1i+6       4Au2i-6       4Au2i-5       4Au2i-4       4Au2i-3       4Au2i-2   
   98    4Au2i-1       4Au2i0        4Au2i+1       4Au2i+2       4Au2i+3       4Au2i+4       4Au2i+5       4Au2i+6       5Au1s         5Au2s     
   99    5Au3s         5Au4s         5Au5s         5Au6s         5Au7s         5Au8s         5Au9s         5Au10s        5Au11s        5Au12s    
  100    5Au13s        5Au1pz        5Au1py        5Au1px        5Au2pz        5Au2py        5Au2px        5Au3pz        5Au3py        5Au3px    
  101    5Au4pz        5Au4py        5Au4px        5Au5pz        5Au5py        5Au5px        5Au6pz        5Au6py        5Au6px        5Au7pz    
  102    5Au7py        5Au7px        5Au8pz        5Au8py        5Au8px        5Au9pz        5Au9py        5Au9px        5Au10pz       5Au10py   
  103    5Au10px       5Au11pz       5Au11py       5Au11px       5Au1d-2       5Au1d-1       5Au1d0        5Au1d+1       5Au1d+2       5Au2d-2   
  104    5Au2d-1       5Au2d0        5Au2d+1       5Au2d+2       5Au3d-2       5Au3d-1       5Au3d0        5Au3d+1       5Au3d+2       5Au4d-2   
  105    5Au4d-1       5Au4d0        5Au4d+1       5Au4d+2       5Au5d-2       5Au5d-1       5Au5d0        5Au5d+1       5Au5d+2       5Au6d-2   
  106    5Au6d-1       5Au6d0        5Au6d+1       5Au6d+2       5Au7d-2       5Au7d-1       5Au7d0        5Au7d+1       5Au7d+2       5Au8d-2   
  107    5Au8d-1       5Au8d0        5Au8d+1       5Au8d+2       5Au9d-2       5Au9d-1       5Au9d0        5Au9d+1       5Au9d+2       5Au10d-2  
  108    5Au10d-1      5Au10d0       5Au10d+1      5Au10d+2      5Au1f-3       5Au1f-2       5Au1f-1       5Au1f0        5Au1f+1       5Au1f+2   
  109    5Au1f+3       5Au2f-3       5Au2f-2       5Au2f-1       5Au2f0        5Au2f+1       5Au2f+2       5Au2f+3       5Au3f-3       5Au3f-2   
  110    5Au3f-1       5Au3f0        5Au3f+1       5Au3f+2       5Au3f+3       5Au4f-3       5Au4f-2       5Au4f-1       5Au4f0        5Au4f+1   
  111    5Au4f+2       5Au4f+3       5Au5f-3       5Au5f-2       5Au5f-1       5Au5f0        5Au5f+1       5Au5f+2       5Au5f+3       5Au6f-3   
  112    5Au6f-2       5Au6f-1       5Au6f0        5Au6f+1       5Au6f+2       5Au6f+3       5Au7f-3       5Au7f-2       5Au7f-1       5Au7f0    
  113    5Au7f+1       5Au7f+2       5Au7f+3       5Au8f-3       5Au8f-2       5Au8f-1       5Au8f0        5Au8f+1       5Au8f+2       5Au8f+3   
  114    5Au1g-4       5Au1g-3       5Au1g-2       5Au1g-1       5Au1g0        5Au1g+1       5Au1g+2       5Au1g+3       5Au1g+4       5Au2g-4   
  115    5Au2g-3       5Au2g-2       5Au2g-1       5Au2g0        5Au2g+1       5Au2g+2       5Au2g+3       5Au2g+4       5Au3g-4       5Au3g-3   
  116    5Au3g-2       5Au3g-1       5Au3g0        5Au3g+1       5Au3g+2       5Au3g+3       5Au3g+4       5Au4g-4       5Au4g-3       5Au4g-2   
  117    5Au4g-1       5Au4g0        5Au4g+1       5Au4g+2       5Au4g+3       5Au4g+4       5Au1h-5       5Au1h-4       5Au1h-3       5Au1h-2   
  118    5Au1h-1       5Au1h0        5Au1h+1       5Au1h+2       5Au1h+3       5Au1h+4       5Au1h+5       5Au2h-5       5Au2h-4       5Au2h-3   
  119    5Au2h-2       5Au2h-1       5Au2h0        5Au2h+1       5Au2h+2       5Au2h+3       5Au2h+4       5Au2h+5       5Au3h-5       5Au3h-4   
  120    5Au3h-3       5Au3h-2       5Au3h-1       5Au3h0        5Au3h+1       5Au3h+2       5Au3h+3       5Au3h+4       5Au3h+5       5Au1i-6   
  121    5Au1i-5       5Au1i-4       5Au1i-3       5Au1i-2       5Au1i-1       5Au1i0        5Au1i+1       5Au1i+2       5Au1i+3       5Au1i+4   
  122    5Au1i+5       5Au1i+6       5Au2i-6       5Au2i-5       5Au2i-4       5Au2i-3       5Au2i-2       5Au2i-1       5Au2i0        5Au2i+1   
  123    5Au2i+2       5Au2i+3       5Au2i+4       5Au2i+5       5Au2i+6       6Au1s         6Au2s         6Au3s         6Au4s         6Au5s     
  124    6Au6s         6Au7s         6Au8s         6Au9s         6Au10s        6Au11s        6Au12s        6Au13s        6Au1pz        6Au1py    
  125    6Au1px        6Au2pz        6Au2py        6Au2px        6Au3pz        6Au3py        6Au3px        6Au4pz        6Au4py        6Au4px    
  126    6Au5pz        6Au5py        6Au5px        6Au6pz        6Au6py        6Au6px        6Au7pz        6Au7py        6Au7px        6Au8pz    
  127    6Au8py        6Au8px        6Au9pz        6Au9py        6Au9px        6Au10pz       6Au10py       6Au10px       6Au11pz       6Au11py   
  128    6Au11px       6Au1d-2       6Au1d-1       6Au1d0        6Au1d+1       6Au1d+2       6Au2d-2       6Au2d-1       6Au2d0        6Au2d+1   
  129    6Au2d+2       6Au3d-2       6Au3d-1       6Au3d0        6Au3d+1       6Au3d+2       6Au4d-2       6Au4d-1       6Au4d0        6Au4d+1   
  130    6Au4d+2       6Au5d-2       6Au5d-1       6Au5d0        6Au5d+1       6Au5d+2       6Au6d-2       6Au6d-1       6Au6d0        6Au6d+1   
  131    6Au6d+2       6Au7d-2       6Au7d-1       6Au7d0        6Au7d+1       6Au7d+2       6Au8d-2       6Au8d-1       6Au8d0        6Au8d+1   
  132    6Au8d+2       6Au9d-2       6Au9d-1       6Au9d0        6Au9d+1       6Au9d+2       6Au10d-2      6Au10d-1      6Au10d0       6Au10d+1  
  133    6Au10d+2      6Au1f-3       6Au1f-2       6Au1f-1       6Au1f0        6Au1f+1       6Au1f+2       6Au1f+3       6Au2f-3       6Au2f-2   
  134    6Au2f-1       6Au2f0        6Au2f+1       6Au2f+2       6Au2f+3       6Au3f-3       6Au3f-2       6Au3f-1       6Au3f0        6Au3f+1   
  135    6Au3f+2       6Au3f+3       6Au4f-3       6Au4f-2       6Au4f-1       6Au4f0        6Au4f+1       6Au4f+2       6Au4f+3       6Au5f-3   
  136    6Au5f-2       6Au5f-1       6Au5f0        6Au5f+1       6Au5f+2       6Au5f+3       6Au6f-3       6Au6f-2       6Au6f-1       6Au6f0    
  137    6Au6f+1       6Au6f+2       6Au6f+3       6Au7f-3       6Au7f-2       6Au7f-1       6Au7f0        6Au7f+1       6Au7f+2       6Au7f+3   
  138    6Au8f-3       6Au8f-2       6Au8f-1       6Au8f0        6Au8f+1       6Au8f+2       6Au8f+3       6Au1g-4       6Au1g-3       6Au1g-2   
  139    6Au1g-1       6Au1g0        6Au1g+1       6Au1g+2       6Au1g+3       6Au1g+4       6Au2g-4       6Au2g-3       6Au2g-2       6Au2g-1   
  140    6Au2g0        6Au2g+1       6Au2g+2       6Au2g+3       6Au2g+4       6Au3g-4       6Au3g-3       6Au3g-2       6Au3g-1       6Au3g0    
  141    6Au3g+1       6Au3g+2       6Au3g+3       6Au3g+4       6Au4g-4       6Au4g-3       6Au4g-2       6Au4g-1       6Au4g0        6Au4g+1   
  142    6Au4g+2       6Au4g+3       6Au4g+4       6Au1h-5       6Au1h-4       6Au1h-3       6Au1h-2       6Au1h-1       6Au1h0        6Au1h+1   
  143    6Au1h+2       6Au1h+3       6Au1h+4       6Au1h+5       6Au2h-5       6Au2h-4       6Au2h-3       6Au2h-2       6Au2h-1       6Au2h0    
  144    6Au2h+1       6Au2h+2       6Au2h+3       6Au2h+4       6Au2h+5       6Au3h-5       6Au3h-4       6Au3h-3       6Au3h-2       6Au3h-1   
  145    6Au3h0        6Au3h+1       6Au3h+2       6Au3h+3       6Au3h+4       6Au3h+5       6Au1i-6       6Au1i-5       6Au1i-4       6Au1i-3   
  146    6Au1i-2       6Au1i-1       6Au1i0        6Au1i+1       6Au1i+2       6Au1i+3       6Au1i+4       6Au1i+5       6Au1i+6       6Au2i-6   
  147    6Au2i-5       6Au2i-4       6Au2i-3       6Au2i-2       6Au2i-1       6Au2i0        6Au2i+1       6Au2i+2       6Au2i+3       6Au2i+4   
  148    6Au2i+5       6Au2i+6       7Au1s         7Au2s         7Au3s         7Au4s         7Au5s         7Au6s         7Au7s         7Au8s     
  149    7Au9s         7Au10s        7Au11s        7Au12s        7Au13s        7Au1pz        7Au1py        7Au1px        7Au2pz        7Au2py    
  150    7Au2px        7Au3pz        7Au3py        7Au3px        7Au4pz        7Au4py        7Au4px        7Au5pz        7Au5py        7Au5px    
  151    7Au6pz        7Au6py        7Au6px        7Au7pz        7Au7py        7Au7px        7Au8pz        7Au8py        7Au8px        7Au9pz    
  152    7Au9py        7Au9px        7Au10pz       7Au10py       7Au10px       7Au11pz       7Au11py       7Au11px       7Au1d-2       7Au1d-1   
  153    7Au1d0        7Au1d+1       7Au1d+2       7Au2d-2       7Au2d-1       7Au2d0        7Au2d+1       7Au2d+2       7Au3d-2       7Au3d-1   
  154    7Au3d0        7Au3d+1       7Au3d+2       7Au4d-2       7Au4d-1       7Au4d0        7Au4d+1       7Au4d+2       7Au5d-2       7Au5d-1   
  155    7Au5d0        7Au5d+1       7Au5d+2       7Au6d-2       7Au6d-1       7Au6d0        7Au6d+1       7Au6d+2       7Au7d-2       7Au7d-1   
  156    7Au7d0        7Au7d+1       7Au7d+2       7Au8d-2       7Au8d-1       7Au8d0        7Au8d+1       7Au8d+2       7Au9d-2       7Au9d-1   
  157    7Au9d0        7Au9d+1       7Au9d+2       7Au10d-2      7Au10d-1      7Au10d0       7Au10d+1      7Au10d+2      7Au1f-3       7Au1f-2   
  158    7Au1f-1       7Au1f0        7Au1f+1       7Au1f+2       7Au1f+3       7Au2f-3       7Au2f-2       7Au2f-1       7Au2f0        7Au2f+1   
  159    7Au2f+2       7Au2f+3       7Au3f-3       7Au3f-2       7Au3f-1       7Au3f0        7Au3f+1       7Au3f+2       7Au3f+3       7Au4f-3   
  160    7Au4f-2       7Au4f-1       7Au4f0        7Au4f+1       7Au4f+2       7Au4f+3       7Au5f-3       7Au5f-2       7Au5f-1       7Au5f0    
  161    7Au5f+1       7Au5f+2       7Au5f+3       7Au6f-3       7Au6f-2       7Au6f-1       7Au6f0        7Au6f+1       7Au6f+2       7Au6f+3   
  162    7Au7f-3       7Au7f-2       7Au7f-1       7Au7f0        7Au7f+1       7Au7f+2       7Au7f+3       7Au8f-3       7Au8f-2       7Au8f-1   
  163    7Au8f0        7Au8f+1       7Au8f+2       7Au8f+3       7Au1g-4       7Au1g-3       7Au1g-2       7Au1g-1       7Au1g0        7Au1g+1   
  164    7Au1g+2       7Au1g+3       7Au1g+4       7Au2g-4       7Au2g-3       7Au2g-2       7Au2g-1       7Au2g0        7Au2g+1       7Au2g+2   
  165    7Au2g+3       7Au2g+4       7Au3g-4       7Au3g-3       7Au3g-2       7Au3g-1       7Au3g0        7Au3g+1       7Au3g+2       7Au3g+3   
  166    7Au3g+4       7Au4g-4       7Au4g-3       7Au4g-2       7Au4g-1       7Au4g0        7Au4g+1       7Au4g+2       7Au4g+3       7Au4g+4   
  167    7Au1h-5       7Au1h-4       7Au1h-3       7Au1h-2       7Au1h-1       7Au1h0        7Au1h+1       7Au1h+2       7Au1h+3       7Au1h+4   
  168    7Au1h+5       7Au2h-5       7Au2h-4       7Au2h-3       7Au2h-2       7Au2h-1       7Au2h0        7Au2h+1       7Au2h+2       7Au2h+3   
  169    7Au2h+4       7Au2h+5       7Au3h-5       7Au3h-4       7Au3h-3       7Au3h-2       7Au3h-1       7Au3h0        7Au3h+1       7Au3h+2   
  170    7Au3h+3       7Au3h+4       7Au3h+5       7Au1i-6       7Au1i-5       7Au1i-4       7Au1i-3       7Au1i-2       7Au1i-1       7Au1i0    
  171    7Au1i+1       7Au1i+2       7Au1i+3       7Au1i+4       7Au1i+5       7Au1i+6       7Au2i-6       7Au2i-5       7Au2i-4       7Au2i-3   
  172    7Au2i-2       7Au2i-1       7Au2i0        7Au2i+1       7Au2i+2       7Au2i+3       7Au2i+4       7Au2i+5       7Au2i+6       8Au1s     
  173    8Au2s         8Au3s         8Au4s         8Au5s         8Au6s         8Au7s         8Au8s         8Au9s         8Au10s        8Au11s    
  174    8Au12s        8Au13s        8Au1pz        8Au1py        8Au1px        8Au2pz        8Au2py        8Au2px        8Au3pz        8Au3py    
  175    8Au3px        8Au4pz        8Au4py        8Au4px        8Au5pz        8Au5py        8Au5px        8Au6pz        8Au6py        8Au6px    
  176    8Au7pz        8Au7py        8Au7px        8Au8pz        8Au8py        8Au8px        8Au9pz        8Au9py        8Au9px        8Au10pz   
  177    8Au10py       8Au10px       8Au11pz       8Au11py       8Au11px       8Au1d-2       8Au1d-1       8Au1d0        8Au1d+1       8Au1d+2   
  178    8Au2d-2       8Au2d-1       8Au2d0        8Au2d+1       8Au2d+2       8Au3d-2       8Au3d-1       8Au3d0        8Au3d+1       8Au3d+2   
  179    8Au4d-2       8Au4d-1       8Au4d0        8Au4d+1       8Au4d+2       8Au5d-2       8Au5d-1       8Au5d0        8Au5d+1       8Au5d+2   
  180    8Au6d-2       8Au6d-1       8Au6d0        8Au6d+1       8Au6d+2       8Au7d-2       8Au7d-1       8Au7d0        8Au7d+1       8Au7d+2   
  181    8Au8d-2       8Au8d-1       8Au8d0        8Au8d+1       8Au8d+2       8Au9d-2       8Au9d-1       8Au9d0        8Au9d+1       8Au9d+2   
  182    8Au10d-2      8Au10d-1      8Au10d0       8Au10d+1      8Au10d+2      8Au1f-3       8Au1f-2       8Au1f-1       8Au1f0        8Au1f+1   
  183    8Au1f+2       8Au1f+3       8Au2f-3       8Au2f-2       8Au2f-1       8Au2f0        8Au2f+1       8Au2f+2       8Au2f+3       8Au3f-3   
  184    8Au3f-2       8Au3f-1       8Au3f0        8Au3f+1       8Au3f+2       8Au3f+3       8Au4f-3       8Au4f-2       8Au4f-1       8Au4f0    
  185    8Au4f+1       8Au4f+2       8Au4f+3       8Au5f-3       8Au5f-2       8Au5f-1       8Au5f0        8Au5f+1       8Au5f+2       8Au5f+3   
  186    8Au6f-3       8Au6f-2       8Au6f-1       8Au6f0        8Au6f+1       8Au6f+2       8Au6f+3       8Au7f-3       8Au7f-2       8Au7f-1   
  187    8Au7f0        8Au7f+1       8Au7f+2       8Au7f+3       8Au8f-3       8Au8f-2       8Au8f-1       8Au8f0        8Au8f+1       8Au8f+2   
  188    8Au8f+3       8Au1g-4       8Au1g-3       8Au1g-2       8Au1g-1       8Au1g0        8Au1g+1       8Au1g+2       8Au1g+3       8Au1g+4   
  189    8Au2g-4       8Au2g-3       8Au2g-2       8Au2g-1       8Au2g0        8Au2g+1       8Au2g+2       8Au2g+3       8Au2g+4       8Au3g-4   
  190    8Au3g-3       8Au3g-2       8Au3g-1       8Au3g0        8Au3g+1       8Au3g+2       8Au3g+3       8Au3g+4       8Au4g-4       8Au4g-3   
  191    8Au4g-2       8Au4g-1       8Au4g0        8Au4g+1       8Au4g+2       8Au4g+3       8Au4g+4       8Au1h-5       8Au1h-4       8Au1h-3   
  192    8Au1h-2       8Au1h-1       8Au1h0        8Au1h+1       8Au1h+2       8Au1h+3       8Au1h+4       8Au1h+5       8Au2h-5       8Au2h-4   
  193    8Au2h-3       8Au2h-2       8Au2h-1       8Au2h0        8Au2h+1       8Au2h+2       8Au2h+3       8Au2h+4       8Au2h+5       8Au3h-5   
  194    8Au3h-4       8Au3h-3       8Au3h-2       8Au3h-1       8Au3h0        8Au3h+1       8Au3h+2       8Au3h+3       8Au3h+4       8Au3h+5   
  195    8Au1i-6       8Au1i-5       8Au1i-4       8Au1i-3       8Au1i-2       8Au1i-1       8Au1i0        8Au1i+1       8Au1i+2       8Au1i+3   
  196    8Au1i+4       8Au1i+5       8Au1i+6       8Au2i-6       8Au2i-5       8Au2i-4       8Au2i-3       8Au2i-2       8Au2i-1       8Au2i0    
  197    8Au2i+1       8Au2i+2       8Au2i+3       8Au2i+4       8Au2i+5       8Au2i+6   
 
 Maximum number of basis functions per shell:   56
 Total number of basis functions:   1976
 
 
 Effective core potentials:
 
   1  Au mcdhf-ecp-60        
   2  Au mcdhf-ecp-60        
   3  Au mcdhf-ecp-60        
   4  Au mcdhf-ecp-60        
   5  Au mcdhf-ecp-60        
   6  Au mcdhf-ecp-60        
   7  Au mcdhf-ecp-60        
   8  Au mcdhf-ecp-60        
 
 Initializing the SAD routines for the initial guess...
 Checking the files required for the initial guess...
 Density files have not been found for the initial guess.
 Generating SCFDENSITIES.Au.def2-svp.0
 CPU time [min]:     0.118                   Wall time [min]:     0.176
 
 Character table for point group C1:
 
          E  
    A     1
 
 Number of basis functions per irrep:
    A     256
 
 
 Calculation of overlap integrals...
 CPU time [min]:     0.119                   Wall time [min]:     0.176
 
 Calculation of the square root of the overlap matrix...
 Minimum eigenvalue of the overlap matrix: 0.514299E-03
 CPU time [min]:     0.154                   Wall time [min]:     0.178
 
 Calculation of kinetic energy integrals...
 CPU time [min]:     0.156                   Wall time [min]:     0.178
 Calculation of dipole moment integrals...
 CPU time [min]:     0.158                   Wall time [min]:     0.178
 Calculation of nuclear attraction integrals...
 CPU time [min]:     0.164                   Wall time [min]:     0.178
 Calculation of core potential integrals...
 CPU time [min]:     1.256                   Wall time [min]:     1.163
 
 Calculation of prescreening integrals...
 CPU time [min]:     1.831                   Wall time [min]:     1.180
 
 Calculation of two-center Coulomb integrals...
   1% done.
  12% done.
  24% done.
  35% done.
  49% done.
  60% done.
  71% done.
  85% done.
  97% done.
 100% done.
 CPU time [min]:     1.858                   Wall time [min]:     1.180
 
 Cholesky decomposition of the two-center matrix...
 Reciprocal of the condition number:  0.370103E-06
 Warning! Ill-conditioned two-center integral matrix.
 This may result in convergence problems.
 CPU time [min]:     1.981                   Wall time [min]:     1.184
 
 
 Running small-basis SCF...

 ************************ 2023-02-04 10:28:02 *************************
 Executing scf...

 @scfsetup: integrals calculated directly
            mrcc/integ direct run
 @scfsetup: calculating on full matrices
            not using symmetry adapted basis
 @scfsetup: diis switched on
 @scfsetup: number of steps to extrapolate from  10
 @scfsetup: tolerance in energy deviation    0.100000E-05
            tolerance in density deviation    0.100000E-06
 @scfsetup: maximum number of iterations:  50
 @scfsetup: restricted closed shell hf calc
 @scfsetup: starting scf from superposition of atomic densities
 @scfsetup: occupation set:
            from initial orbitals
 @scfsetup: Parameter-set for SCF acceleration: difficult
 @scfsetup: diis runs from iteration:   2
 @scfsetup: diis runs to iteration:  50
 @scfsetup: diis runs in every iteration
 @scfsetup: diiswatch is disabled                   
 @scfsetup: diis dtol criteria to switch on:      0.0000E+00
           (or the iteration number below is reached)
 @scfsetup: damping is turned off.
 @scfsetup: dynamic level shifting
            tolarance in HOMO-LUMO gap:  0.200
            tolarance in density deviation:     0.0000E+00
            iteration step criteria to turn level shifting off: 8
 Allocation of 220.0 Gbytes of memory...
 ======================================================================
 ITERATION STEP   1
 CPU time [min]:     0.038                   Wall time [min]:     0.006
 

 SCF control                  : initial
 Damping factor/level shift   : 0.000/0.200
 DIIS [start/end/frequency]   :   2 / 50 /  1

 Constructing Fock-matrix...
 
 Pipek-Mezey localization...
 Step  Convergence
   1  93.965249456996
   2  20.584284006764
   3   3.350898952467
   4   0.080092566459
   5   0.000069157447
   6   0.000000075666
 CPU time [min]:     0.076                   Wall time [min]:     0.007
 
 Constructing local fitting domains...
 Maximum number of atoms in fitting domains:    8
 Average number of atoms in fitting domains:    8.0
 
 First step of Coulomb + first step of exchange...
 Exchange contribution is evaluated for MOs 1 to 76.
   1% done.
  12% done.
  25% done.
  36% done.
  47% done.
  60% done.
  72% done.
  87% done.
 100% done.
 CPU time [min]:     0.752                   Wall time [min]:     0.026
 
 Fitting and assembly step of exchange...
 CPU time [min]:     0.849                   Wall time [min]:     0.029
 
 Second step of Coulomb...
   1% done.
  12% done.
  25% done.
  36% done.
  47% done.
  60% done.
  72% done.
  87% done.
 100% done.
 CPU time [min]:     0.978                   Wall time [min]:     0.032
 
 Gradient norm:      2.4536E+00
 RMS of [F,P]:                                         0.03363473379576
 RMS of difference density:                            0.02170795035305
 Gap [au]:  0.17360072
 ALPHA OCC:  76
 BETA  OCC:  76
 
 ***HARTREE-FOCK ENERGY IN STEP   1 IS      -1075.4616337674688111 [AU]
 ======================================================================
 ITERATION STEP   2
 CPU time [min]:     1.007                   Wall time [min]:     0.033
 

 SCF control                  : diis
 Damping factor/level shift   : 0.000/0.200
 DIIS [start/end/frequency]   :   2 / 50 /  1

 Constructing Fock-matrix...
 
 Pipek-Mezey localization...
 Step  Convergence
   1  10.912893580397
   2   4.798126794478
   3   0.445612832659
   4   0.026737809255
   5   0.000117217910
   6   0.000000910365
 CPU time [min]:     1.050                   Wall time [min]:     0.035
 
 Constructing local fitting domains...
 Maximum number of atoms in fitting domains:    8
 Average number of atoms in fitting domains:    8.0
 
 First step of Coulomb + first step of exchange...
 Exchange contribution is evaluated for MOs 1 to 76.
   1% done.
  12% done.
  25% done.
  36% done.
  47% done.
  60% done.
  72% done.
  87% done.
 100% done.
 CPU time [min]:     1.686                   Wall time [min]:     0.052
 
 Fitting and assembly step of exchange...
 CPU time [min]:     1.778                   Wall time [min]:     0.055
 
 Second step of Coulomb...
   1% done.
  12% done.
  25% done.
  36% done.
  47% done.
  60% done.
  72% done.
  87% done.
 100% done.
 CPU time [min]:     1.905                   Wall time [min]:     0.059
 
 Gradient norm:      3.7504E-01
 DIIS is running in this iteration step.
 RMS of [F,P]:                                         0.00984534647882
 RMS of difference density:                            0.01196307437405
 Gap [au]:  0.24414883
 ALPHA OCC:  76
 BETA  OCC:  76
 
 ***HARTREE-FOCK ENERGY IN STEP   2 IS      -1077.7684015751374318 [AU]
 
 Step comparison  Energy Drift [au]  DIIS error drift  Gradient drift
        1            2.3068E+00         2.3789E-02       2.0785E+00
        2            1.0778E+03         1.0000E-07       2.0785E+00
 ======================================================================
 ITERATION STEP   3
 CPU time [min]:     1.924                   Wall time [min]:     0.059
 

 SCF control                  : diis
 Damping factor/level shift   : 0.000/0.000
 DIIS [start/end/frequency]   :   2 / 50 /  1

 Constructing Fock-matrix...
 
 Pipek-Mezey localization...
 Step  Convergence
   1  17.428637248251
   2   6.591746925704
   3   0.216069641274
   4   0.000451096987
   5   0.000000721388
 CPU time [min]:     1.975                   Wall time [min]:     0.061
 
 Constructing local fitting domains...
 Local fitting domains are unchanged.
 
 First step of Coulomb + first step of exchange...
 Exchange contribution is evaluated for MOs 1 to 76.
   1% done.
  12% done.
  25% done.
  36% done.
  47% done.
  60% done.
  72% done.
  87% done.
 100% done.
 CPU time [min]:     2.611                   Wall time [min]:     0.078
 
 Fitting and assembly step of exchange...
 CPU time [min]:     2.703                   Wall time [min]:     0.081
 
 Second step of Coulomb...
   1% done.
  12% done.
  25% done.
  36% done.
  47% done.
  60% done.
  72% done.
  87% done.
 100% done.
 CPU time [min]:     2.830                   Wall time [min]:     0.084
 
 Gradient norm:      1.6919E-01
 DIIS is running in this iteration step.
 RMS of [F,P]:                                         0.00495399059073
 RMS of difference density:                            0.00389909936241
 Gap [au]:  0.22356751
 ALPHA OCC:  76
 BETA  OCC:  76
 
 ***HARTREE-FOCK ENERGY IN STEP   3 IS      -1078.1690250211386228 [AU]
 
 Step comparison  Energy Drift [au]  DIIS error drift  Gradient drift
        2            4.0062E-01         4.8914E-03       2.0585E-01
 ======================================================================
 ITERATION STEP   4
 CPU time [min]:     2.875                   Wall time [min]:     0.086
 

 SCF control                  : diis
 Damping factor/level shift   : 0.000/0.000
 DIIS [start/end/frequency]   :   2 / 50 /  1

 Constructing Fock-matrix...
 
 Pipek-Mezey localization...
 Step  Convergence
   1  18.692136443342
   2   8.757446941022
   3   1.237194026798
   4   0.003151609515
   5   0.000015429472
   6   0.000000207730
 CPU time [min]:     2.919                   Wall time [min]:     0.087
 
 Constructing local fitting domains...
 Local fitting domains are unchanged.
 
 First step of Coulomb + first step of exchange...
 Exchange contribution is evaluated for MOs 1 to 76.
   1% done.
  12% done.
  25% done.
  36% done.
  47% done.
  60% done.
  72% done.
  87% done.
 100% done.
 CPU time [min]:     3.555                   Wall time [min]:     0.105
 
 Fitting and assembly step of exchange...
 CPU time [min]:     3.647                   Wall time [min]:     0.107
 
 Second step of Coulomb...
   1% done.
  12% done.
  25% done.
  36% done.
  47% done.
  60% done.
  72% done.
  87% done.
 100% done.
 CPU time [min]:     3.774                   Wall time [min]:     0.111
 
 Gradient norm:      7.3988E-02
 DIIS is running in this iteration step.
 RMS of [F,P]:                                         0.00160775192468
 RMS of difference density:                            0.00154776802593
 Gap [au]:  0.23034922
 ALPHA OCC:  76
 BETA  OCC:  76
 
 ***HARTREE-FOCK ENERGY IN STEP   4 IS      -1078.2862786314626646 [AU]
 
 Step comparison  Energy Drift [au]  DIIS error drift  Gradient drift
        3            1.1725E-01         3.3462E-03       9.5206E-02
 ======================================================================
 ITERATION STEP   5
 CPU time [min]:     3.793                   Wall time [min]:     0.111
 

 SCF control                  : diis
 Damping factor/level shift   : 0.000/0.000
 DIIS [start/end/frequency]   :   2 / 50 /  1

 Constructing Fock-matrix...
 
 Pipek-Mezey localization...
 Step  Convergence
   1  23.729168450177
   2   6.477940861626
   3   0.515944864316
   4   0.039157429804
   5   0.000416001028
   6   0.000001997444
   7   0.000000007262
 CPU time [min]:     3.833                   Wall time [min]:     0.113
 
 Constructing local fitting domains...
 Local fitting domains are unchanged.
 
 First step of Coulomb + first step of exchange...
 Exchange contribution is evaluated for MOs 1 to 76.
   1% done.
  12% done.
  25% done.
  36% done.
  47% done.
  60% done.
  72% done.
  87% done.
 100% done.
 CPU time [min]:     4.469                   Wall time [min]:     0.130
 
 Fitting and assembly step of exchange...
 CPU time [min]:     4.561                   Wall time [min]:     0.133
 
 Second step of Coulomb...
   1% done.
  12% done.
  25% done.
  36% done.
  47% done.
  60% done.
  72% done.
  87% done.
 100% done.
 CPU time [min]:     4.688                   Wall time [min]:     0.136
 
 Gradient norm:      1.4148E-02
 DIIS is running in this iteration step.
 RMS of [F,P]:                                         0.00035992902356
 RMS of difference density:                            0.00079095028721
 Gap [au]:  0.23072650
 ALPHA OCC:  76
 BETA  OCC:  76
 
 ***HARTREE-FOCK ENERGY IN STEP   5 IS      -1078.3001281024844502 [AU]
 
 Step comparison  Energy Drift [au]  DIIS error drift  Gradient drift
        4            1.3849E-02         1.2478E-03       5.9840E-02
 ======================================================================
 ITERATION STEP   6
 CPU time [min]:     4.706                   Wall time [min]:     0.137
 

 SCF control                  : diis
 Damping factor/level shift   : 0.000/0.000
 DIIS [start/end/frequency]   :   2 / 50 /  1

 Constructing Fock-matrix...
 
 Pipek-Mezey localization...
 Step  Convergence
   1  20.293059155054
   2   8.925961406691
   3   0.339338698615
   4   0.068321575647
   5   0.000158129836
   6   0.000000637266
 CPU time [min]:     4.744                   Wall time [min]:     0.138
 
 Constructing local fitting domains...
 Local fitting domains are unchanged.
 
 First step of Coulomb + first step of exchange...
 Exchange contribution is evaluated for MOs 1 to 76.
   1% done.
  12% done.
  25% done.
  36% done.
  47% done.
  60% done.
  72% done.
  87% done.
 100% done.
 CPU time [min]:     5.381                   Wall time [min]:     0.156
 
 Fitting and assembly step of exchange...
 CPU time [min]:     5.473                   Wall time [min]:     0.158
 
 Second step of Coulomb...
   1% done.
  12% done.
  25% done.
  36% done.
  47% done.
  60% done.
  72% done.
  87% done.
 100% done.
 CPU time [min]:     5.601                   Wall time [min]:     0.162
 
 Gradient norm:      5.4969E-03
 DIIS is running in this iteration step.
 RMS of [F,P]:                                         0.00006583919177
 RMS of difference density:                            0.00019346084501
 Gap [au]:  0.23172669
 ALPHA OCC:  76
 BETA  OCC:  76
 
 ***HARTREE-FOCK ENERGY IN STEP   6 IS      -1078.3014812427436482 [AU]
 
 Step comparison  Energy Drift [au]  DIIS error drift  Gradient drift
        5            1.3531E-03         2.9409E-04       8.6514E-03
 ======================================================================
 ITERATION STEP   7
 CPU time [min]:     5.619                   Wall time [min]:     0.162
 

 SCF control                  : diis
 Damping factor/level shift   : 0.000/0.000
 DIIS [start/end/frequency]   :   2 / 50 /  1

 Constructing Fock-matrix...
 
 Pipek-Mezey localization...
 Step  Convergence
   1  24.429623098318
   2  12.562790264150
   3  24.943585619490
   4   7.023154593655
   5   1.547166008783
   6   0.057215267783
   7   0.000411726382
   8   0.000004499406
   9   0.000000095110
  10   0.000000001577
  11   0.000000000047
  12   0.000000000001
  13   0.000000000000
 CPU time [min]:     5.672                   Wall time [min]:     0.164
 
 Constructing local fitting domains...
 Local fitting domains are unchanged.
 
 First step of Coulomb + first step of exchange...
 Exchange contribution is evaluated for MOs 1 to 76.
   1% done.
  12% done.
  25% done.
  36% done.
  47% done.
  60% done.
  72% done.
  87% done.
 100% done.
 CPU time [min]:     6.309                   Wall time [min]:     0.182
 
 Fitting and assembly step of exchange...
 CPU time [min]:     6.401                   Wall time [min]:     0.184
 
 Second step of Coulomb...
   1% done.
  12% done.
  25% done.
  36% done.
  47% done.
  60% done.
  72% done.
  87% done.
 100% done.
 CPU time [min]:     6.528                   Wall time [min]:     0.188
 
 Gradient norm:      2.1792E-03
 DIIS is running in this iteration step.
 RMS of [F,P]:                                         0.00003182180346
 RMS of difference density:                            0.00010559457951
 Gap [au]:  0.23174843
 ALPHA OCC:  76
 BETA  OCC:  76
 
 ***HARTREE-FOCK ENERGY IN STEP   7 IS      -1078.3015840814050534 [AU]
 
 Step comparison  Energy Drift [au]  DIIS error drift  Gradient drift
        6            1.0284E-04         3.4017E-05       3.3177E-03
 ======================================================================
 ITERATION STEP   8
 CPU time [min]:     6.546                   Wall time [min]:     0.188
 

 SCF control                  : diis
 Damping factor/level shift   : 0.000/0.000
 DIIS [start/end/frequency]   :   2 / 50 /  1

 Constructing Fock-matrix...
 
 Pipek-Mezey localization...
 Step  Convergence
   1  23.555548257607
   2   9.517433771362
   3  19.016939412006
   4   7.870511066859
   5   0.883434262573
   6   0.023577715483
   7   0.000385405930
   8   0.000007766626
   9   0.000000291923
  10   0.000000011062
  11   0.000000000519
  12   0.000000000025
  13   0.000000000001
  14   0.000000000000
 CPU time [min]:     6.602                   Wall time [min]:     0.190
 
 Constructing local fitting domains...
 Local fitting domains are unchanged.
 
 First step of Coulomb + first step of exchange...
 Exchange contribution is evaluated for MOs 1 to 76.
   1% done.
  12% done.
  25% done.
  36% done.
  47% done.
  60% done.
  72% done.
  87% done.
 100% done.
 CPU time [min]:     7.239                   Wall time [min]:     0.208
 
 Fitting and assembly step of exchange...
 CPU time [min]:     7.331                   Wall time [min]:     0.210
 
 Second step of Coulomb...
   1% done.
  12% done.
  25% done.
  36% done.
  47% done.
  60% done.
  72% done.
  87% done.
 100% done.
 CPU time [min]:     7.458                   Wall time [min]:     0.214
 
 Gradient norm:      1.3368E-03
 DIIS is running in this iteration step.
 RMS of [F,P]:                                         0.00001112078242
 RMS of difference density:                            0.00006816110888
 Gap [au]:  0.23192772
 ALPHA OCC:  76
 BETA  OCC:  76
 
 ***HARTREE-FOCK ENERGY IN STEP   8 IS      -1078.3016128591470988 [AU]
 
 Step comparison  Energy Drift [au]  DIIS error drift  Gradient drift
        7            2.8778E-05         2.0701E-05       8.4242E-04
 ======================================================================
 ITERATION STEP   9
 CPU time [min]:     7.477                   Wall time [min]:     0.214
 

 SCF control                  : diis
 Damping factor/level shift   : 0.000/0.000
 DIIS [start/end/frequency]   :   2 / 50 /  1

 Constructing Fock-matrix...
 
 Pipek-Mezey localization...
 Step  Convergence
   1  23.530528864833
   2  12.850094523328
   3  15.616001656967
   4   4.830772227314
   5   0.661333008565
   6   0.110536339301
   7   0.000821605855
   8   0.000016570574
   9   0.000000842890
  10   0.000000044495
  11   0.000000002372
  12   0.000000000126
  13   0.000000000007
  14   0.000000000000
 CPU time [min]:     7.532                   Wall time [min]:     0.216
 
 Constructing local fitting domains...
 Local fitting domains are unchanged.
 
 First step of Coulomb + first step of exchange...
 Exchange contribution is evaluated for MOs 1 to 76.
   1% done.
  12% done.
  25% done.
  36% done.
  47% done.
  60% done.
  72% done.
  87% done.
 100% done.
 CPU time [min]:     8.170                   Wall time [min]:     0.234
 
 Fitting and assembly step of exchange...
 CPU time [min]:     8.261                   Wall time [min]:     0.236
 
 Second step of Coulomb...
   1% done.
  12% done.
  25% done.
  36% done.
  47% done.
  60% done.
  72% done.
  87% done.
 100% done.
 CPU time [min]:     8.389                   Wall time [min]:     0.240
 
 Gradient norm:      7.4462E-04
 DIIS is running in this iteration step.
 RMS of [F,P]:                                         0.00000674765551
 RMS of difference density:                            0.00003657510656
 Gap [au]:  0.23195918
 ALPHA OCC:  76
 BETA  OCC:  76
 
 ***HARTREE-FOCK ENERGY IN STEP   9 IS      -1078.3016213747951042 [AU]
 
 Step comparison  Energy Drift [au]  DIIS error drift  Gradient drift
        8            8.5156E-06         4.3731E-06       5.9219E-04
 ======================================================================
 ITERATION STEP  10
 CPU time [min]:     8.409                   Wall time [min]:     0.240
 

 SCF control                  : diis
 Damping factor/level shift   : 0.000/0.000
 DIIS [start/end/frequency]   :   2 / 50 /  1

 Constructing Fock-matrix...
 
 Pipek-Mezey localization...
 Step  Convergence
   1  21.997051534988
   2  11.379933816507
   3  15.850727290916
   4   6.082280035201
   5   0.972490384967
   6   0.014339142393
   7   0.000175732680
   8   0.000003197031
   9   0.000000082522
  10   0.000000002258
  11   0.000000000070
  12   0.000000000002
  13   0.000000000000
 CPU time [min]:     8.463                   Wall time [min]:     0.242
 
 Constructing local fitting domains...
 Local fitting domains are unchanged.
 
 First step of Coulomb + first step of exchange...
 Exchange contribution is evaluated for MOs 1 to 76.
   1% done.
  12% done.
  25% done.
  36% done.
  47% done.
  60% done.
  72% done.
  87% done.
 100% done.
 CPU time [min]:     9.100                   Wall time [min]:     0.260
 
 Fitting and assembly step of exchange...
 CPU time [min]:     9.192                   Wall time [min]:     0.262
 
 Second step of Coulomb...
   1% done.
  12% done.
  25% done.
  36% done.
  47% done.
  60% done.
  72% done.
  87% done.
 100% done.
 CPU time [min]:     9.318                   Wall time [min]:     0.266
 
 Gradient norm:      4.4264E-04
 DIIS is running in this iteration step.
 RMS of [F,P]:                                         0.00000355386629
 RMS of difference density:                            0.00004170843701
 Gap [au]:  0.23200926
 ALPHA OCC:  76
 BETA  OCC:  76
 
 ***HARTREE-FOCK ENERGY IN STEP  10 IS      -1078.3016239222006334 [AU]
 
 Step comparison  Energy Drift [au]  DIIS error drift  Gradient drift
        9            2.5474E-06         3.1938E-06       3.0198E-04
 ======================================================================
 ITERATION STEP  11
 CPU time [min]:     9.338                   Wall time [min]:     0.266
 

 SCF control                  : diis
 Damping factor/level shift   : 0.000/0.000
 DIIS [start/end/frequency]   :   2 / 50 /  1

 Constructing Fock-matrix...
 
 Pipek-Mezey localization...
 Step  Convergence
   1  21.844674288619
   2   9.110281116311
   3  14.086364215498
   4   3.157521666731
   5   1.125023504759
   6   0.009763466872
   7   0.000042282863
   8   0.000001074990
   9   0.000000024553
  10   0.000000000756
  11   0.000000000022
  12   0.000000000001
 CPU time [min]:     9.389                   Wall time [min]:     0.268
 
 Constructing local fitting domains...
 Local fitting domains are unchanged.
 
 First step of Coulomb + first step of exchange...
 Exchange contribution is evaluated for MOs 1 to 76.
   1% done.
  12% done.
  25% done.
  36% done.
  47% done.
  60% done.
  72% done.
  87% done.
 100% done.
 CPU time [min]:    10.025                   Wall time [min]:     0.286
 
 Fitting and assembly step of exchange...
 CPU time [min]:    10.116                   Wall time [min]:     0.288
 
 Second step of Coulomb...
   1% done.
  12% done.
  25% done.
  36% done.
  47% done.
  60% done.
  72% done.
  87% done.
 100% done.
 CPU time [min]:    10.243                   Wall time [min]:     0.292
 
 Gradient norm:      8.1206E-05
 DIIS is running in this iteration step.
 RMS of [F,P]:                                         0.00000085640126
 RMS of difference density:                            0.00000860655957
 Gap [au]:  0.23201157
 ALPHA OCC:  76
 BETA  OCC:  76
 
 ***HARTREE-FOCK ENERGY IN STEP  11 IS      -1078.3016251926374025 [AU]
 
 Step comparison  Energy Drift [au]  DIIS error drift  Gradient drift
       10            1.2704E-06         2.6975E-06       3.6144E-04
 ======================================================================
 ITERATION STEP  12
 CPU time [min]:    10.262                   Wall time [min]:     0.292
 

 SCF control                  : diis
 Damping factor/level shift   : 0.000/0.000
 DIIS [start/end/frequency]   :   2 / 50 /  1

 Constructing Fock-matrix...
 
 Pipek-Mezey localization...
 Step  Convergence
   1  19.606295124268
   2  10.847630007340
   3  15.488391518347
   4   4.472601805086
   5   1.208450198523
   6   0.116798951354
   7   0.000577137943
   8   0.000012541477
   9   0.000000141362
  10   0.000000012956
  11   0.000000000124
  12   0.000000000024
  13   0.000000000000
 CPU time [min]:    10.317                   Wall time [min]:     0.294
 
 Constructing local fitting domains...
 Local fitting domains are unchanged.
 
 First step of Coulomb + first step of exchange...
 Exchange contribution is evaluated for MOs 1 to 76.
   1% done.
  12% done.
  25% done.
  36% done.
  47% done.
  60% done.
  72% done.
  87% done.
 100% done.
 CPU time [min]:    10.952                   Wall time [min]:     0.311
 
 Fitting and assembly step of exchange...
 CPU time [min]:    11.044                   Wall time [min]:     0.314
 
 Second step of Coulomb...
   1% done.
  12% done.
  25% done.
  36% done.
  47% done.
  60% done.
  72% done.
  87% done.
 100% done.
 CPU time [min]:    11.171                   Wall time [min]:     0.318
 
 Gradient norm:      2.0276E-05
 DIIS is running in this iteration step.
 RMS of [F,P]:                                         0.00000032592741
 RMS of difference density:                            0.00000129042073
 Gap [au]:  0.23200909
 ALPHA OCC:  76
 BETA  OCC:  76
 
 ***HARTREE-FOCK ENERGY IN STEP  12 IS      -1078.3016252441266261 [AU]
 
 Step comparison  Energy Drift [au]  DIIS error drift  Gradient drift
       11            5.1489E-08         5.3047E-07       6.0930E-05
 ======================================================================
 ITERATION STEP  13
 CPU time [min]:    11.191                   Wall time [min]:     0.318
 

 SCF control                  : diis
 Damping factor/level shift   : 0.000/0.000
 DIIS [start/end/frequency]   :   2 / 50 /  1

 Constructing Fock-matrix...
 
 Pipek-Mezey localization...
 Step  Convergence
   1  21.345245000126
   2  11.403828440440
   3  17.524568138519
   4   6.273236075822
   5   1.912382830996
   6   0.461990222190
   7   0.005863757500
   8   0.000002339609
   9   0.000000031682
  10   0.000000000820
  11   0.000000000027
  12   0.000000000001
  13   0.000000000000
 CPU time [min]:    11.245                   Wall time [min]:     0.320
 
 Constructing local fitting domains...
 Local fitting domains are unchanged.
 
 First step of Coulomb + first step of exchange...
 Exchange contribution is evaluated for MOs 1 to 76.
   1% done.
  12% done.
  25% done.
  36% done.
  47% done.
  60% done.
  72% done.
  87% done.
 100% done.
 CPU time [min]:    11.882                   Wall time [min]:     0.337
 
 Fitting and assembly step of exchange...
 CPU time [min]:    11.975                   Wall time [min]:     0.340
 
 Second step of Coulomb...
   1% done.
  12% done.
  25% done.
  36% done.
  47% done.
  60% done.
  72% done.
  87% done.
 100% done.
 CPU time [min]:    12.102                   Wall time [min]:     0.344
 
 Gradient norm:      9.9236E-06
 DIIS is running in this iteration step.
 RMS of [F,P]:                                         0.00000014730875
 RMS of difference density:                            0.00000070980012
 Gap [au]:  0.23200935
 ALPHA OCC:  76
 BETA  OCC:  76
 
 ***HARTREE-FOCK ENERGY IN STEP  13 IS      -1078.3016252467277809 [AU]
 
 Step comparison  Energy Drift [au]  DIIS error drift  Gradient drift
       12            2.6012E-09         1.7862E-07       1.0353E-05
 ======================================================================
 ITERATION STEP  14
 CPU time [min]:    12.121                   Wall time [min]:     0.344
 

 SCF control                  : diis
 Damping factor/level shift   : 0.000/0.000
 DIIS [start/end/frequency]   :   2 / 50 /  1

 Constructing Fock-matrix...
 
 Pipek-Mezey localization...
 Step  Convergence
   1  24.521135802581
   2  13.034270657705
   3  15.169577591174
   4   3.411272474467
   5   1.644374925481
   6   0.001808547206
   7   0.000049743428
   8   0.000001319680
   9   0.000000038855
  10   0.000000001289
  11   0.000000000044
  12   0.000000000002
  13   0.000000000000
 CPU time [min]:    12.174                   Wall time [min]:     0.346
 
 Constructing local fitting domains...
 Local fitting domains are unchanged.
 
 First step of Coulomb + first step of exchange...
 Exchange contribution is evaluated for MOs 1 to 76.
   1% done.
  12% done.
  25% done.
  36% done.
  47% done.
  60% done.
  72% done.
  87% done.
 100% done.
 CPU time [min]:    12.812                   Wall time [min]:     0.363
 
 Fitting and assembly step of exchange...
 CPU time [min]:    12.904                   Wall time [min]:     0.366
 
 Second step of Coulomb...
   1% done.
  12% done.
  25% done.
  36% done.
  47% done.
  60% done.
  72% done.
  87% done.
 100% done.
 CPU time [min]:    13.031                   Wall time [min]:     0.370
 
 Gradient norm:      4.2776E-06
 DIIS is running in this iteration step.
 RMS of [F,P]:                                         0.00000008409150
 RMS of difference density:                            0.00000023002737
 Gap [au]:  0.23200975
 ALPHA OCC:  76
 BETA  OCC:  76
 
 ***HARTREE-FOCK ENERGY IN STEP  14 IS      -1078.3016252473626082 [AU]
 
 Step comparison  Energy Drift [au]  DIIS error drift  Gradient drift
       13            6.3483E-10         6.3217E-08       5.6460E-06
 ======================================================================
 ITERATION STEP  15
 CPU time [min]:    13.071                   Wall time [min]:     0.371
 

 SCF control                  : diis
 Damping factor/level shift   : 0.000/0.000
 DIIS [start/end/frequency]   :   2 / 50 /  1

 Constructing Fock-matrix...
 
 Pipek-Mezey localization...
 Step  Convergence
   1  23.773375004265
   2  10.767044938922
   3  14.458543354597
   4   5.292776602881
   5   0.662268880949
   6   0.008210673332
   7   0.000052993007
   8   0.000002005462
   9   0.000000050291
  10   0.000000001614
  11   0.000000000043
  12   0.000000000001
  13   0.000000000000
 CPU time [min]:    13.124                   Wall time [min]:     0.372
 
 Constructing local fitting domains...
 Local fitting domains are unchanged.
 
 First step of Coulomb + first step of exchange...
 Exchange contribution is evaluated for MOs 1 to 76.
   1% done.
  12% done.
  25% done.
  36% done.
  47% done.
  60% done.
  72% done.
  87% done.
 100% done.
 CPU time [min]:    13.761                   Wall time [min]:     0.390
 
 Fitting and assembly step of exchange...
 CPU time [min]:    13.854                   Wall time [min]:     0.393
 
 Second step of Coulomb...
   1% done.
  12% done.
  25% done.
  36% done.
  47% done.
  60% done.
  72% done.
  87% done.
 100% done.
 CPU time [min]:    13.981                   Wall time [min]:     0.396
 
 Gradient norm:      1.3965E-06
 DIIS is running in this iteration step.
 RMS of [F,P]:                                         0.00000003013954
 RMS of difference density:                            0.00000013605965
 Gap [au]:  0.23200973
 ALPHA OCC:  76
 BETA  OCC:  76
 
 ***HARTREE-FOCK ENERGY IN STEP  15 IS      -1078.3016252474672001 [AU]
 
 Step comparison  Energy Drift [au]  DIIS error drift  Gradient drift
       14            1.0459E-10         5.3952E-08       2.8811E-06
 ======================================================================
 ITERATION STEP  16
 CPU time [min]:    13.999                   Wall time [min]:     0.397
 

 SCF control                  : diis
 Damping factor/level shift   : 0.000/0.000
 DIIS [start/end/frequency]   :   2 / 50 /  1

 Constructing Fock-matrix...
 
 Pipek-Mezey localization...
 Step  Convergence
   1  21.285668385461
   2  10.647909008027
   3  16.327821727048
   4   4.736620117416
   5   0.574745576576
   6   0.006583603956
   7   0.000141410689
   8   0.000007435697
   9   0.000000348609
  10   0.000000018682
  11   0.000000000998
  12   0.000000000054
  13   0.000000000003
  14   0.000000000000
 CPU time [min]:    14.056                   Wall time [min]:     0.398
 
 Constructing local fitting domains...
 Local fitting domains are unchanged.
 
 First step of Coulomb + first step of exchange...
 Exchange contribution is evaluated for MOs 1 to 76.
   1% done.
  12% done.
  25% done.
  36% done.
  47% done.
  60% done.
  72% done.
  87% done.
 100% done.
 CPU time [min]:    14.706                   Wall time [min]:     0.416
 
 Fitting and assembly step of exchange...
 CPU time [min]:    14.798                   Wall time [min]:     0.419
 
 Second step of Coulomb...
   1% done.
  12% done.
  25% done.
  36% done.
  47% done.
  60% done.
  72% done.
  87% done.
 100% done.
 CPU time [min]:    14.925                   Wall time [min]:     0.422
 
 Gradient norm:      2.8044E-07
 DIIS is running in this iteration step.
 RMS of [F,P]:                                         0.00000000573285
 RMS of difference density:                            0.00000001499358
 Gap [au]:  0.23200974
 ALPHA OCC:  76
 BETA  OCC:  76
 
 ***HARTREE-FOCK ENERGY IN STEP  16 IS      -1078.3016252474917565 [AU]
 
 Step comparison  Energy Drift [au]  DIIS error drift  Gradient drift
       15            2.4556E-11         2.4407E-08       1.1161E-06
 ======================================================================
 
 SUCCESS...
 THE SCF ITERATION HAS CONVERGED!
 
                   A   
 FINAL ALPHA OCC:  76
 FINAL BETA  OCC:  76
 
 ***FINAL HARTREE-FOCK ENERGY:      -1078.3016252474917565 [AU]
 
 Orbital energies [au]:
      Irrep         Alpha          Beta
    1   A         -4.686546      -4.686546
    2   A         -4.686332      -4.686332
    3   A         -4.686252      -4.686252
    4   A         -4.686249      -4.686249
    5   A         -4.685512      -4.685512
    6   A         -4.685507      -4.685507
    7   A         -4.685499      -4.685499
    8   A         -4.685358      -4.685358
    9   A         -2.756998      -2.756998
   10   A         -2.755506      -2.755506
   11   A         -2.755500      -2.755500
   12   A         -2.755266      -2.755266
   13   A         -2.753634      -2.753634
   14   A         -2.751927      -2.751927
   15   A         -2.751918      -2.751918
   16   A         -2.751606      -2.751606
   17   A         -2.750524      -2.750524
   18   A         -2.749204      -2.749204
   19   A         -2.747681      -2.747681
   20   A         -2.747678      -2.747678
   21   A         -2.747649      -2.747649
   22   A         -2.747154      -2.747154
   23   A         -2.747149      -2.747149
   24   A         -2.746474      -2.746474
   25   A         -2.746174      -2.746174
   26   A         -2.745084      -2.745084
   27   A         -2.744834      -2.744834
   28   A         -2.744832      -2.744832
   29   A         -2.744754      -2.744754
   30   A         -2.744607      -2.744607
   31   A         -2.744604      -2.744604
   32   A         -2.744024      -2.744024
   33   A         -0.568135      -0.568135
   34   A         -0.561587      -0.561587
   35   A         -0.545517      -0.545517
   36   A         -0.542997      -0.542997
   37   A         -0.542969      -0.542969
   38   A         -0.540067      -0.540067
   39   A         -0.538080      -0.538080
   40   A         -0.536391      -0.536391
   41   A         -0.530700      -0.530700
   42   A         -0.530658      -0.530658
   43   A         -0.526308      -0.526308
   44   A         -0.526294      -0.526294
   45   A         -0.503243      -0.503243
   46   A         -0.501005      -0.501005
   47   A         -0.499659      -0.499659
   48   A         -0.499636      -0.499636
   49   A         -0.494683      -0.494683
   50   A         -0.485954      -0.485954
   51   A         -0.473654      -0.473654
   52   A         -0.473622      -0.473622
   53   A         -0.467533      -0.467533
   54   A         -0.456857      -0.456857
   55   A         -0.456441      -0.456441
   56   A         -0.456404      -0.456404
   57   A         -0.455581      -0.455581
   58   A         -0.454882      -0.454882
   59   A         -0.449954      -0.449954
   60   A         -0.447634      -0.447634
   61   A         -0.447612      -0.447612
   62   A         -0.430023      -0.430023
   63   A         -0.429779      -0.429779
   64   A         -0.427351      -0.427351
   65   A         -0.427324      -0.427324
   66   A         -0.417776      -0.417776
   67   A         -0.417066      -0.417066
   68   A         -0.417049      -0.417049
   69   A         -0.411674      -0.411674
   70   A         -0.410719      -0.410719
   71   A         -0.408163      -0.408163
   72   A         -0.402718      -0.402718
   73   A         -0.402684      -0.402684
   74   A         -0.283605      -0.283605
   75   A         -0.244048      -0.244048
   76   A         -0.243998      -0.243998
 
   77   A         -0.011988      -0.011988
   78   A         -0.006257      -0.006257
   79   A         -0.006236      -0.006236
   80   A          0.013290       0.013290
   81   A          0.034152       0.034152
   82   A          0.040320       0.040320
   83   A          0.084596       0.084596
   84   A          0.097376       0.097376
   85   A          0.097399       0.097399
   86   A          0.109145       0.109145
   87   A          0.129904       0.129904
   88   A          0.130494       0.130494
   89   A          0.130527       0.130527
   90   A          0.143209       0.143209
   91   A          0.170423       0.170423
   92   A          0.170441       0.170441
   93   A          0.201263       0.201263
   94   A          0.202697       0.202697
   95   A          0.202703       0.202703
   96   A          0.205483       0.205483
   97   A          0.209076       0.209076
   98   A          0.209102       0.209102
   99   A          0.215480       0.215480
  100   A          0.223144       0.223144
  101   A          0.224895       0.224895
  102   A          0.238655       0.238655
  103   A          0.252793       0.252793
  104   A          0.252809       0.252809
  105   A          0.376951       0.376951
  106   A          0.376985       0.376985
  107   A          0.387732       0.387732
  108   A          0.413682       0.413682
  109   A          0.433986       0.433986
  110   A          0.438377       0.438377
  111   A          0.438406       0.438406
  112   A          0.476562       0.476562
  113   A          0.542739       0.542739
  114   A          0.580599       0.580599
  115   A          0.607559       0.607559
  116   A          0.607726       0.607726
  117   A          0.612794       0.612794
  118   A          0.612809       0.612809
  119   A          0.617142       0.617142
  120   A          0.630287       0.630287
  121   A          0.638564       0.638564
  122   A          0.638595       0.638595
  123   A          0.646638       0.646638
  124   A          0.646661       0.646661
  125   A          0.664954       0.664954
  126   A          0.666745       0.666745
  127   A          0.681680       0.681680
  128   A          0.681743       0.681743
  129   A          0.694448       0.694448
  130   A          0.694472       0.694472
  131   A          0.729277       0.729277
  132   A          0.729969       0.729969
  133   A          0.733111       0.733111
  134   A          0.738809       0.738809
  135   A          0.758579       0.758579
  136   A          0.761248       0.761248
[...]
  239    7Au5g+2       7Au5g+3       7Au5g+4       7Au6g-4       7Au6g-3       7Au6g-2       7Au6g-1       7Au6g0        7Au6g+1       7Au6g+2   
  240    7Au6g+3       7Au6g+4       7Au7g-4       7Au7g-3       7Au7g-2       7Au7g-1       7Au7g0        7Au7g+1       7Au7g+2       7Au7g+3   
  241    7Au7g+4       7Au8g-4       7Au8g-3       7Au8g-2       7Au8g-1       7Au8g0        7Au8g+1       7Au8g+2       7Au8g+3       7Au8g+4   
  242    7Au1h-5       7Au1h-4       7Au1h-3       7Au1h-2       7Au1h-1       7Au1h0        7Au1h+1       7Au1h+2       7Au1h+3       7Au1h+4   
  243    7Au1h+5       7Au2h-5       7Au2h-4       7Au2h-3       7Au2h-2       7Au2h-1       7Au2h0        7Au2h+1       7Au2h+2       7Au2h+3   
  244    7Au2h+4       7Au2h+5       7Au3h-5       7Au3h-4       7Au3h-3       7Au3h-2       7Au3h-1       7Au3h0        7Au3h+1       7Au3h+2   
  245    7Au3h+3       7Au3h+4       7Au3h+5       7Au4h-5       7Au4h-4       7Au4h-3       7Au4h-2       7Au4h-1       7Au4h0        7Au4h+1   
  246    7Au4h+2       7Au4h+3       7Au4h+4       7Au4h+5       7Au5h-5       7Au5h-4       7Au5h-3       7Au5h-2       7Au5h-1       7Au5h0    
  247    7Au5h+1       7Au5h+2       7Au5h+3       7Au5h+4       7Au5h+5       7Au1i-6       7Au1i-5       7Au1i-4       7Au1i-3       7Au1i-2   
  248    7Au1i-1       7Au1i0        7Au1i+1       7Au1i+2       7Au1i+3       7Au1i+4       7Au1i+5       7Au1i+6       7Au2i-6       7Au2i-5   
  249    7Au2i-4       7Au2i-3       7Au2i-2       7Au2i-1       7Au2i0        7Au2i+1       7Au2i+2       7Au2i+3       7Au2i+4       7Au2i+5   
  250    7Au2i+6       7Au3i-6       7Au3i-5       7Au3i-4       7Au3i-3       7Au3i-2       7Au3i-1       7Au3i0        7Au3i+1       7Au3i+2   
  251    7Au3i+3       7Au3i+4       7Au3i+5       7Au3i+6       7Au4i-6       7Au4i-5       7Au4i-4       7Au4i-3       7Au4i-2       7Au4i-1   
  252    7Au4i0        7Au4i+1       7Au4i+2       7Au4i+3       7Au4i+4       7Au4i+5       7Au4i+6       8Au1s         8Au2s         8Au3s     
  253    8Au4s         8Au5s         8Au6s         8Au7s         8Au8s         8Au9s         8Au10s        8Au11s        8Au12s        8Au13s    
  254    8Au1pz        8Au1py        8Au1px        8Au2pz        8Au2py        8Au2px        8Au3pz        8Au3py        8Au3px        8Au4pz    
  255    8Au4py        8Au4px        8Au5pz        8Au5py        8Au5px        8Au6pz        8Au6py        8Au6px        8Au7pz        8Au7py    
  256    8Au7px        8Au8pz        8Au8py        8Au8px        8Au9pz        8Au9py        8Au9px        8Au10pz       8Au10py       8Au10px   
  257    8Au11pz       8Au11py       8Au11px       8Au12pz       8Au12py       8Au12px       8Au13pz       8Au13py       8Au13px       8Au1d-2   
  258    8Au1d-1       8Au1d0        8Au1d+1       8Au1d+2       8Au2d-2       8Au2d-1       8Au2d0        8Au2d+1       8Au2d+2       8Au3d-2   
  259    8Au3d-1       8Au3d0        8Au3d+1       8Au3d+2       8Au4d-2       8Au4d-1       8Au4d0        8Au4d+1       8Au4d+2       8Au5d-2   
  260    8Au5d-1       8Au5d0        8Au5d+1       8Au5d+2       8Au6d-2       8Au6d-1       8Au6d0        8Au6d+1       8Au6d+2       8Au7d-2   
  261    8Au7d-1       8Au7d0        8Au7d+1       8Au7d+2       8Au8d-2       8Au8d-1       8Au8d0        8Au8d+1       8Au8d+2       8Au9d-2   
  262    8Au9d-1       8Au9d0        8Au9d+1       8Au9d+2       8Au10d-2      8Au10d-1      8Au10d0       8Au10d+1      8Au10d+2      8Au11d-2  
  263    8Au11d-1      8Au11d0       8Au11d+1      8Au11d+2      8Au12d-2      8Au12d-1      8Au12d0       8Au12d+1      8Au12d+2      8Au1f-3   
  264    8Au1f-2       8Au1f-1       8Au1f0        8Au1f+1       8Au1f+2       8Au1f+3       8Au2f-3       8Au2f-2       8Au2f-1       8Au2f0    
  265    8Au2f+1       8Au2f+2       8Au2f+3       8Au3f-3       8Au3f-2       8Au3f-1       8Au3f0        8Au3f+1       8Au3f+2       8Au3f+3   
  266    8Au4f-3       8Au4f-2       8Au4f-1       8Au4f0        8Au4f+1       8Au4f+2       8Au4f+3       8Au5f-3       8Au5f-2       8Au5f-1   
  267    8Au5f0        8Au5f+1       8Au5f+2       8Au5f+3       8Au6f-3       8Au6f-2       8Au6f-1       8Au6f0        8Au6f+1       8Au6f+2   
  268    8Au6f+3       8Au7f-3       8Au7f-2       8Au7f-1       8Au7f0        8Au7f+1       8Au7f+2       8Au7f+3       8Au8f-3       8Au8f-2   
  269    8Au8f-1       8Au8f0        8Au8f+1       8Au8f+2       8Au8f+3       8Au9f-3       8Au9f-2       8Au9f-1       8Au9f0        8Au9f+1   
  270    8Au9f+2       8Au9f+3       8Au10f-3      8Au10f-2      8Au10f-1      8Au10f0       8Au10f+1      8Au10f+2      8Au10f+3      8Au1g-4   
  271    8Au1g-3       8Au1g-2       8Au1g-1       8Au1g0        8Au1g+1       8Au1g+2       8Au1g+3       8Au1g+4       8Au2g-4       8Au2g-3   
  272    8Au2g-2       8Au2g-1       8Au2g0        8Au2g+1       8Au2g+2       8Au2g+3       8Au2g+4       8Au3g-4       8Au3g-3       8Au3g-2   
  273    8Au3g-1       8Au3g0        8Au3g+1       8Au3g+2       8Au3g+3       8Au3g+4       8Au4g-4       8Au4g-3       8Au4g-2       8Au4g-1   
  274    8Au4g0        8Au4g+1       8Au4g+2       8Au4g+3       8Au4g+4       8Au5g-4       8Au5g-3       8Au5g-2       8Au5g-1       8Au5g0    
  275    8Au5g+1       8Au5g+2       8Au5g+3       8Au5g+4       8Au6g-4       8Au6g-3       8Au6g-2       8Au6g-1       8Au6g0        8Au6g+1   
  276    8Au6g+2       8Au6g+3       8Au6g+4       8Au7g-4       8Au7g-3       8Au7g-2       8Au7g-1       8Au7g0        8Au7g+1       8Au7g+2   
  277    8Au7g+3       8Au7g+4       8Au8g-4       8Au8g-3       8Au8g-2       8Au8g-1       8Au8g0        8Au8g+1       8Au8g+2       8Au8g+3   
  278    8Au8g+4       8Au1h-5       8Au1h-4       8Au1h-3       8Au1h-2       8Au1h-1       8Au1h0        8Au1h+1       8Au1h+2       8Au1h+3   
  279    8Au1h+4       8Au1h+5       8Au2h-5       8Au2h-4       8Au2h-3       8Au2h-2       8Au2h-1       8Au2h0        8Au2h+1       8Au2h+2   
  280    8Au2h+3       8Au2h+4       8Au2h+5       8Au3h-5       8Au3h-4       8Au3h-3       8Au3h-2       8Au3h-1       8Au3h0        8Au3h+1   
  281    8Au3h+2       8Au3h+3       8Au3h+4       8Au3h+5       8Au4h-5       8Au4h-4       8Au4h-3       8Au4h-2       8Au4h-1       8Au4h0    
  282    8Au4h+1       8Au4h+2       8Au4h+3       8Au4h+4       8Au4h+5       8Au5h-5       8Au5h-4       8Au5h-3       8Au5h-2       8Au5h-1   
  283    8Au5h0        8Au5h+1       8Au5h+2       8Au5h+3       8Au5h+4       8Au5h+5       8Au1i-6       8Au1i-5       8Au1i-4       8Au1i-3   
  284    8Au1i-2       8Au1i-1       8Au1i0        8Au1i+1       8Au1i+2       8Au1i+3       8Au1i+4       8Au1i+5       8Au1i+6       8Au2i-6   
  285    8Au2i-5       8Au2i-4       8Au2i-3       8Au2i-2       8Au2i-1       8Au2i0        8Au2i+1       8Au2i+2       8Au2i+3       8Au2i+4   
  286    8Au2i+5       8Au2i+6       8Au3i-6       8Au3i-5       8Au3i-4       8Au3i-3       8Au3i-2       8Au3i-1       8Au3i0        8Au3i+1   
  287    8Au3i+2       8Au3i+3       8Au3i+4       8Au3i+5       8Au3i+6       8Au4i-6       8Au4i-5       8Au4i-4       8Au4i-3       8Au4i-2   
  288    8Au4i-1       8Au4i0        8Au4i+1       8Au4i+2       8Au4i+3       8Au4i+4       8Au4i+5       8Au4i+6   
 
 Maximum number of basis functions per shell:   72
 Total number of basis functions:   2888
 
 
 Old basis set for SCF restart
 
   1  Au def2-svp [ 7s 6p 5d 1f | 6s 3p 2d 1f ]
   2  Au def2-svp [ 7s 6p 5d 1f | 6s 3p 2d 1f ]
   3  Au def2-svp [ 7s 6p 5d 1f | 6s 3p 2d 1f ]
   4  Au def2-svp [ 7s 6p 5d 1f | 6s 3p 2d 1f ]
   5  Au def2-svp [ 7s 6p 5d 1f | 6s 3p 2d 1f ]
   6  Au def2-svp [ 7s 6p 5d 1f | 6s 3p 2d 1f ]
   7  Au def2-svp [ 7s 6p 5d 1f | 6s 3p 2d 1f ]
   8  Au def2-svp [ 7s 6p 5d 1f | 6s 3p 2d 1f ]
 
 Basis functions:
            1             2             3             4             5             6             7             8             9            10
    0    1Au1s         1Au2s         1Au3s         1Au4s         1Au5s         1Au6s         1Au1pz        1Au1py        1Au1px        1Au2pz    
    1    1Au2py        1Au2px        1Au3pz        1Au3py        1Au3px        1Au1d-2       1Au1d-1       1Au1d0        1Au1d+1       1Au1d+2   
    2    1Au2d-2       1Au2d-1       1Au2d0        1Au2d+1       1Au2d+2       1Au1f-3       1Au1f-2       1Au1f-1       1Au1f0        1Au1f+1   
    3    1Au1f+2       1Au1f+3       2Au1s         2Au2s         2Au3s         2Au4s         2Au5s         2Au6s         2Au1pz        2Au1py    
    4    2Au1px        2Au2pz        2Au2py        2Au2px        2Au3pz        2Au3py        2Au3px        2Au1d-2       2Au1d-1       2Au1d0    
    5    2Au1d+1       2Au1d+2       2Au2d-2       2Au2d-1       2Au2d0        2Au2d+1       2Au2d+2       2Au1f-3       2Au1f-2       2Au1f-1   
    6    2Au1f0        2Au1f+1       2Au1f+2       2Au1f+3       3Au1s         3Au2s         3Au3s         3Au4s         3Au5s         3Au6s     
    7    3Au1pz        3Au1py        3Au1px        3Au2pz        3Au2py        3Au2px        3Au3pz        3Au3py        3Au3px        3Au1d-2   
    8    3Au1d-1       3Au1d0        3Au1d+1       3Au1d+2       3Au2d-2       3Au2d-1       3Au2d0        3Au2d+1       3Au2d+2       3Au1f-3   
    9    3Au1f-2       3Au1f-1       3Au1f0        3Au1f+1       3Au1f+2       3Au1f+3       4Au1s         4Au2s         4Au3s         4Au4s     
   10    4Au5s         4Au6s         4Au1pz        4Au1py        4Au1px        4Au2pz        4Au2py        4Au2px        4Au3pz        4Au3py    
   11    4Au3px        4Au1d-2       4Au1d-1       4Au1d0        4Au1d+1       4Au1d+2       4Au2d-2       4Au2d-1       4Au2d0        4Au2d+1   
   12    4Au2d+2       4Au1f-3       4Au1f-2       4Au1f-1       4Au1f0        4Au1f+1       4Au1f+2       4Au1f+3       5Au1s         5Au2s     
   13    5Au3s         5Au4s         5Au5s         5Au6s         5Au1pz        5Au1py        5Au1px        5Au2pz        5Au2py        5Au2px    
   14    5Au3pz        5Au3py        5Au3px        5Au1d-2       5Au1d-1       5Au1d0        5Au1d+1       5Au1d+2       5Au2d-2       5Au2d-1   
   15    5Au2d0        5Au2d+1       5Au2d+2       5Au1f-3       5Au1f-2       5Au1f-1       5Au1f0        5Au1f+1       5Au1f+2       5Au1f+3   
   16    6Au1s         6Au2s         6Au3s         6Au4s         6Au5s         6Au6s         6Au1pz        6Au1py        6Au1px        6Au2pz    
   17    6Au2py        6Au2px        6Au3pz        6Au3py        6Au3px        6Au1d-2       6Au1d-1       6Au1d0        6Au1d+1       6Au1d+2   
   18    6Au2d-2       6Au2d-1       6Au2d0        6Au2d+1       6Au2d+2       6Au1f-3       6Au1f-2       6Au1f-1       6Au1f0        6Au1f+1   
   19    6Au1f+2       6Au1f+3       7Au1s         7Au2s         7Au3s         7Au4s         7Au5s         7Au6s         7Au1pz        7Au1py    
   20    7Au1px        7Au2pz        7Au2py        7Au2px        7Au3pz        7Au3py        7Au3px        7Au1d-2       7Au1d-1       7Au1d0    
   21    7Au1d+1       7Au1d+2       7Au2d-2       7Au2d-1       7Au2d0        7Au2d+1       7Au2d+2       7Au1f-3       7Au1f-2       7Au1f-1   
   22    7Au1f0        7Au1f+1       7Au1f+2       7Au1f+3       8Au1s         8Au2s         8Au3s         8Au4s         8Au5s         8Au6s     
   23    8Au1pz        8Au1py        8Au1px        8Au2pz        8Au2py        8Au2px        8Au3pz        8Au3py        8Au3px        8Au1d-2   
   24    8Au1d-1       8Au1d0        8Au1d+1       8Au1d+2       8Au2d-2       8Au2d-1       8Au2d0        8Au2d+1       8Au2d+2       8Au1f-3   
   25    8Au1f-2       8Au1f-1       8Au1f0        8Au1f+1       8Au1f+2       8Au1f+3   
 
 Maximum number of basis functions per shell:   72
 Total number of basis functions:    256
 
 
 Effective core potentials:
 
   1  Au mcdhf-ecp-60        
   2  Au mcdhf-ecp-60        
   3  Au mcdhf-ecp-60        
   4  Au mcdhf-ecp-60        
   5  Au mcdhf-ecp-60        
   6  Au mcdhf-ecp-60        
   7  Au mcdhf-ecp-60        
   8  Au mcdhf-ecp-60        
 
 Calculation of prescreening integrals...
 CPU time [min]:    31.101                   Wall time [min]:     0.918
 
 Calculation of two-center Coulomb integrals...
   1% done.
  13% done.
  25% done.
  37% done.
  51% done.
  62% done.
  73% done.
  84% done.
  96% done.
 100% done.
 CPU time [min]:    31.233                   Wall time [min]:     0.922
 
 Cholesky decomposition of the inverse of the two-center matrix...
 CPU time [min]:    31.378                   Wall time [min]:     0.926
 
 Calculation of three-center Coulomb integrals...
   1% done.
  12% done.
  25% done.
  36% done.
  48% done.
  61% done.
  72% done.
  89% done.
 100% done.
 CPU time [min]:    57.982                   Wall time [min]:     1.668

 ************************ 2023-02-04 10:54:09 *************************
 Executing drpa...

 Three-index integral transformation
 
 Allocation of 220.0 Gbytes of memory...
 Minimal memory requirement for (ai|P) and (ij|P) integrals:      221.8 MB

 Calculating (ai|P) and (ij|P) integrals...
 Number of integral batches:    1
 Occupied indices per batch:   76
 
 Transforming integrals of batch 1...
 CPU time [min]:   620.623                   Wall time [min]:    21.411
 

 Constructing MP2 natural orbitals...

 Threshold for individual occupations:     1.0000E-05
 Corresponding cummulative occupation threshold:  0.99986237  0.99985877
 Total number of virtual orbitals:     900
 Number of virtual natural orbitals:   711  (79.00%)
 
 Transforming (ai|P) integrals to the NO basis...
 Number of integral batches:    1
 Occupied indices per batch:   76
 
 Transforming integrals of batch 1 to the NO basis...
 CPU time [min]:   876.369                   Wall time [min]:    31.048

 Calculating (ab|P) integrals...
 Minimal memory requirement for (ab|P) integrals:      132.5 MB
 Number of integral batches:    1
 Virtual indices per batch:   711

 Transforming integrals of batch 1...
 CPU time [min]:  1021.554                   Wall time [min]:    37.817
 

 Constructing natural auxiliary functions...

 Threshold for eigenvalues:     1.0000E-02
 Total number of auxiliary functions:    2888
 Number of natural auxiliary functions:  2217  (76.77%)

 Transforming (ai|P) and (ij|P) integrals to the NAF basis...
 Number of integral batches:    1
 Occupied indices per batch:   76
 
 Transforming integrals of batch 1 to the NAF basis...
 CPU time [min]:  1276.385                   Wall time [min]:    47.437

 Transforming (ab|P) integrals to the NAF basis...
 Number of integral batches:    1
 Virtual indices per batch:   711

 Transforming integrals of batch 1 to the NAF basis...
 CPU time [min]:  1279.786                   Wall time [min]:    48.595
 

 Results in full basis:
 
 
 Reference energy [au]:                     -1078.420498435751
 DF-MP2 singlet pair energy [au]:              -4.290361554639
 DF-MP2 triplet pair energy [au]:              -2.091359401746
 DF-SCS-MP2 correlation energy [au]:           -5.845553666149
 DF-SCS-MP2 energy [au]:                    -1084.266052101900
 DF-SOS-MP2 correlation energy [au]:           -5.577470021030
 DF-SOS-MP2 energy [au]:                    -1083.997968456782
 DF-MP2 correlation energy [au]:               -6.381720956385
 DF-MP2 energy [au]:                        -1084.802219392136

 Results in FNO basis:
 
 
 Reference energy [au]:                     -1078.420498435751
 DF-MP2 singlet pair energy [au]:              -4.284031289774
 DF-MP2 triplet pair energy [au]:              -2.090332897266
 DF-SCS-MP2 correlation energy [au]:           -5.837615180151
 DF-SCS-MP2 energy [au]:                    -1084.258113615902
 DF-SOS-MP2 correlation energy [au]:           -5.569240676707
 DF-SOS-MP2 energy [au]:                    -1083.989739112458
 DF-MP2 correlation energy [au]:               -6.374364187040
 DF-MP2 energy [au]:                        -1084.794862622791

 Results in NAF basis:
 
 
 Reference energy [au]:                     -1078.420498435751
 DF-MP2 singlet pair energy [au]:              -4.283964038814
 DF-MP2 triplet pair energy [au]:              -2.090354574393
 DF-SCS-MP2 correlation energy [au]:           -5.837541704707
 DF-SCS-MP2 energy [au]:                    -1084.258040140458
 DF-SOS-MP2 correlation energy [au]:           -5.569153250458
 DF-SOS-MP2 energy [au]:                    -1083.989651686209
 DF-MP2 correlation energy [au]:               -6.374318613207
 DF-MP2 energy [au]:                        -1084.794817048958

 ************************ 2023-02-04 11:42:47 *************************
 Executing ccsd...

 Allocation of 220.0 Gbytes of memory...

 Direct DF-CCSD(T) calculation
 
 Convergence criterion:  1.0E-06
 
 Number of occupied/virtual/auxiliary orbitals:    76   711  2217
  82323.91 MB is the minimal memory requirement for (T)
  38839.40 MB is the minimal memory requirement for CCSD
 
 Reference energy [au]:           -1078.420498435751
 T1 contribution [au]:                0.000000000000
 Same spin MP2 energy [au]:          -2.090343694967
 Opposite spin MP2 energy [au]:      -4.283997612933
 MP2 correlation energy [au]:        -6.374341307901
 Total MP2 energy [au]:           -1084.794839743652
 MP2 correction [au]:                -0.007379648484
 
 
 CPU time [min]:    60.519                   Wall time [min]:    17.731
 
 Starting CCSD iterations...
 
                     Residual norm          Energy
 Iteration  1        0.829436935269    -1083.925983500410
 Iteration  2        0.348427282477    -1084.190423734291
 Iteration  3        0.066263953924    -1084.234895356255
 Iteration  4        0.034159419430    -1084.240969914072
 Iteration  5        0.014560524158    -1084.234336316975
 Iteration  6        0.007066924581    -1084.232642960347
 Iteration  7        0.003343558095    -1084.233612481068
 Iteration  8        0.001662372243    -1084.233974908174
 Iteration  9        0.000812047665    -1084.233959570590
 Iteration 10        0.000460918490    -1084.233941024060
 Iteration 11        0.000224852003    -1084.233940031509
 Iteration 12        0.000110841297    -1084.233926278919
 Iteration 13        0.000050024498    -1084.233923192397
 Iteration 14        0.000026841241    -1084.233927295500
 Iteration 15        0.000012832631    -1084.233928329945
 Iteration 16        0.000006870113    -1084.233927291324
 Iteration 17        0.000003160455    -1084.233927171188
 Iteration 18        0.000001668660    -1084.233927352390
 
 CCSD iteration has converged in 18 steps.
   225274.79 MB memory was utilized by CCSD
 
 T1 diagnostic:      1.811E-02            D1 diagnostic:      7.756E-02
 
 T1 contribution [au]:                                  0.000000000000
 PPL energy contribution [au]:                          0.884291770272
 Scaled PPL energy contribution [au]:                   0.885234039326

 OS-PPL energy contribution [au]:                       0.650907627731
 Scaled OS-PPL energy contribution [au]:                0.651792610423
 SS-PPL energy contribution [au]:                       0.233384142541
 Scaled SS-PPL energy contribution [au]:                0.233489628993

 Opposite spin CCSD energy [au]:                       -4.077748644776
 Same spin CCSD energy [au]:                           -1.735704652467
 CCSD correlation energy [au]:                         -5.813453297244
 CCSD correlation energy + MP2 correction [au]:        -5.820832945728
 CCSD correlation energy + MP2 + PPL corr. [au]:       -5.819890676674
 Total CCSD energy [au]:                            -1084.233951732995
 Total CCSD energy + MP2 correction [au]:           -1084.241331381479
 Total CCSD energy + MP2 + PPL corr. [au]:          -1084.240389112425
 
 CPU time [min]: 36291.959                   Wall time [min]:  1282.852
 
 Calculation of (T) correction...
 
 
   224116.42 MB memory is utilized for (T)

 0%       25%       50%       75%       100%
 |---------|