 vasp.6.3.0 20Jan22 (build Apr  1 2022 16:44:48) complex                         
 executed on        HPECrayEX_GCC date 2022.08.15  21:48:52
 running  512 mpi-ranks, with    1 threads/rank
 distrk:  each k-point on  256 cores,    2 groups
 distr:  one band on NCORE=   4 cores,   64 groups


--------------------------------------------------------------------------------------------------------


 INCAR:
   SYSTEM = MgO-rocksalt
   ISMEAR = 0
   SIGMA = 0.05
   EDIFF = 1E-6
   ALGO = ALL
   ISTART = 0
   IBRION = -1
   NSW = 0
   ISYM = 2
   DIPOL = 0.5 0.5 0.5
   IDIPOL = 3
   LDIPOL = .TRUE.
   GGA = ML
   LUSE_VDW = .TRUE.
   ZAB_VDW = -1.8867
   AGGAC = 0.0000
   ENCUT = 520
   PREC = Accurate
   LASPH = .TRUE.
   LREAL = Auto
   ISPIN = 1
   NELM = 200
   NELMIN = 8
   NCORE = 4
   KPAR = 2
   LWAVE = .FALSE.
   LCHARG = .FALSE.

 POTCAR:    PAW_PBE Ag 02Apr2005                  
 -----------------------------------------------------------------------------
|                                                                             |
|               ----> ADVICE to this user running VASP <----                  |
|                                                                             |
|     You have switched on vdW-DFT.                                           |
|     This routine was written and supplied by Jiri Klimes. We recommend      |
|     that you carefully read and cite the following publications:            |
|       J. Klimes, D.R. Bowler, A. Michelides                                 |
|          J. Phys.: Cond Matt. 22 022201 (2010)                              |
|       J. Klimes, D.R. Bowler, A. Michelides                                 |
|          Phys. Rev. B. 83, 195131 (2011)                                    |
|     and references therein.                                                 |
|                                                                             |
 -----------------------------------------------------------------------------

 POTCAR:    PAW_PBE Ag 02Apr2005                  
   SHA256 =  6550cfa3543261e132c169e1b98a529204624d72be14e2da2e0242bcb74a174d Ag/POTCAR             
   COPYR  = (c) Copyright 02Apr2005 Georg Kresse                                                    
   COPYR  = This file is part of the software VASP. Any use, copying, and all other rights are regul
   COPYR  = If you do not have a valid VASP license, you may not use, copy or distribute this file. 
   VRHFIN =Ag : s1 d10                                                                              
   LEXCH  = PE                                                                                      
   EATOM  =  1037.2675 eV,   76.2370 Ry                                                             
                                                                                                    
   TITEL  = PAW_PBE Ag 02Apr2005                                                                    
   LULTRA =        F    use ultrasoft PP ?                                                          
   IUNSCR =        1    unscreen: 0-lin 1-nonlin 2-no                                               
   RPACOR =    2.000    partial core radius                                                         
   POMASS =  107.868; ZVAL   =   11.000    mass and valenz                                          
   RCORE  =    2.500    outmost cutoff radius                                                       
   RWIGS  =    2.840; RWIGS  =    1.503    wigner-seitz radius (au A)                               
   ENMAX  =  249.844; ENMIN  =  187.383 eV                                                          
   ICORE  =        3    local potential                                                             
   LCOR   =        T    correct aug charges                                                         
   LPAW   =        T    paw PP                                                                      
   EAUG   =  412.496                                                                                
   DEXC   =    0.000                                                                                
   RMAX   =    2.560    core radius for proj-oper                                                   
   RAUG   =    1.300    factor for augmentation sphere                                              
   RDEP   =    2.576    radius for radial grids                                                     
   RDEPT  =    2.072    core radius for aug-charge                                                  
                                                                                                    
   Atomic configuration                                                                             
   12 entries                                                                                       
     n  l   j            E        occ.                                                              
     1  0  0.50    -25324.9161   2.0000                                                             
     2  0  0.50     -3728.5341   2.0000                                                             
     2  1  1.50     -3344.0404   6.0000                                                             
     3  0  0.50      -683.5581   2.0000                                                             
     3  1  1.50      -557.3225   6.0000                                                             
     3  2  2.50      -358.3853  10.0000                                                             
     4  0  0.50       -95.0341   2.0000                                                             
     4  1  1.50       -58.5511   6.0000                                                             
     4  2  2.50        -7.4440  10.0000                                                             
     5  0  0.50        -4.4045   1.0000                                                             
     5  1  0.50        -1.3606   0.0000                                                             
     4  3  2.50        -1.3606   0.0000                                                             
   Description                                                                                      
     l       E           TYP  RCUT    TYP  RCUT                                                     
     2     -7.4439781     23  2.400                                                                 
     2     -8.8045607     23  2.400                                                                 
     0     -4.4044681     23  2.400                                                                 
     0      1.9520038     23  2.400                                                                 
     1     -1.3605826     23  2.500                                                                 
     1     27.2116520     23  2.500                                                                 
     3     -4.0817478     23  2.400                                                                 
  local pseudopotential read in
  partial core-charges read in
  partial kinetic energy density read in
  atomic valenz-charges read in
  non local Contribution for L=           2  read in
    real space projection operators read in
  non local Contribution for L=           2  read in
    real space projection operators read in
  non local Contribution for L=           0  read in
    real space projection operators read in
  non local Contribution for L=           0  read in
    real space projection operators read in
  non local Contribution for L=           1  read in
    real space projection operators read in
  non local Contribution for L=           1  read in
    real space projection operators read in
    PAW grid and wavefunctions read in

   number of l-projection  operators is LMAX  =           6
   number of lm-projection operators is LMMAX =          18

 -----------------------------------------------------------------------------
|                                                                             |
|               ----> ADVICE to this user running VASP <----                  |
|                                                                             |
|     You have a (more or less) 'small supercell' and for smaller cells       |
|     it is recommended to use the reciprocal-space projection scheme!        |
|     The real-space optimization is not efficient for small cells and it     |
|     is also less accurate ...                                               |
|     Therefore, set LREAL=.FALSE. in the INCAR file.                         |
|                                                                             |
 -----------------------------------------------------------------------------

 Optimization of the real space projectors (new method)

 maximal supplied QI-value         = 15.12
 optimisation between [QCUT,QGAM] = [ 11.64, 23.28] = [ 37.95,151.78] Ry 
 Optimized for a Real-space Cutoff    1.45 Angstroem

   l    n(q)    QCUT    max X(q) W(low)/X(q) W(high)/X(q)  e(spline) 
   2      9    11.641    53.897    0.22E-03    0.42E-04    0.28E-06
   2      9    11.641    52.416    0.23E-03    0.44E-04    0.29E-06
   0     10    11.641   122.045    0.51E-04    0.25E-04    0.16E-06
   0     10    11.641    73.629    0.49E-04    0.24E-04    0.16E-06
   1     10    11.641    15.255    0.99E-04    0.55E-04    0.11E-06
   1     10    11.641     9.562    0.81E-04    0.47E-04    0.95E-07
 -----------------------------------------------------------------------------
|                                                                             |
|               ----> ADVICE to this user running VASP <----                  |
|                                                                             |
|     You enforced a specific xc type in the INCAR file but a different       |
|     type was found in the POTCAR file.                                      |
|     I HOPE YOU KNOW WHAT YOU ARE DOING!                                     |
|                                                                             |
 -----------------------------------------------------------------------------

  PAW_PBE Ag 02Apr2005                  :
 energy of atom  1       EATOM=-1037.2675
 kinetic energy error for atom=    0.0047 (will be added to EATOM!!)


 POSCAR: Ag
  positions in direct lattice
  No initial velocities read in
 exchange correlation table for  LEXCH =       44
   RHO(1)=    0.500       N(1)  =     2000
   RHO(2)=  100.500       N(2)  =     4000



--------------------------------------------------------------------------------------------------------


 ion  position               nearest neighbor table
   1  0.543  0.557  0.623-   2 2.59
   2  0.457  0.643  0.623-   1 2.59

  LATTYP: Found a simple tetragonal cell.
 ALAT       =    21.1388521970
 C/A-ratio  =     1.0461251639
  
  Lattice vectors:
  
 A1 = (  21.1388521970,   0.0000000000,   0.0000000000)
 A2 = (   0.0000000000,  21.1388521970,   0.0000000000)
 A3 = (   0.0000000000,   0.0000000000,  22.1138852197)


Analysis of symmetry for initial positions (statically):
=====================================================================
 Subroutine PRICEL returns:
 Original cell was already a primitive cell.
 

 Routine SETGRP: Setting up the symmetry group for a 
 simple tetragonal supercell.


 Subroutine GETGRP returns: Found  8 space group operations
 (whereof  1 operations were pure point group operations)
 out of a pool of 16 trial point group operations.


The static configuration has the point symmetry C_1 .
 The point group associated with its full space group is D_2h.


Analysis of symmetry for dynamics (positions and initial velocities):
=====================================================================
 Subroutine PRICEL returns:
 Original cell was already a primitive cell.
 

 Routine SETGRP: Setting up the symmetry group for a 
 simple tetragonal supercell.


 Subroutine GETGRP returns: Found  8 space group operations
 (whereof  1 operations were pure point group operations)
 out of a pool of 16 trial point group operations.


The dynamic configuration has the point symmetry C_1 .
 The point group associated with its full space group is D_2h.


 Subroutine INISYM returns: Found  8 space group operations
 (whereof  1 operations are pure point group operations),
 and found     1 'primitive' translations


----------------------------------------------------------------------------------------

                                     Primitive cell                                     

  volume of cell :    9881.6133

  direct lattice vectors                    reciprocal lattice vectors
    21.138852197  0.000000000  0.000000000     0.047306258  0.000000000  0.000000000
     0.000000000 21.138852197  0.000000000     0.000000000  0.047306258  0.000000000
     0.000000000  0.000000000 22.113885220     0.000000000  0.000000000  0.045220457

  length of vectors
    21.138852197 21.138852197 22.113885220     0.047306258  0.047306258  0.045220457

  position of ions in fractional coordinates (direct lattice)
     0.543264150  0.556735814  0.623371474
     0.456735850  0.643264114  0.623371474

  ion indices of the primitive-cell ions
   primitive index   ion index
                 1           1
                 2           2

----------------------------------------------------------------------------------------



 KPOINTS: KPOINTS created by Atomic Simulation Env

Automatic generation of k-mesh.
 Grid dimensions read from file:
 generate k-points for:    1    1    1

 Generating k-lattice:

  Cartesian coordinates                     Fractional coordinates (reciprocal lattice)
     0.047306258  0.000000000  0.000000000     1.000000000  0.000000000  0.000000000
     0.000000000  0.047306258  0.000000000     0.000000000  1.000000000  0.000000000
     0.000000000  0.000000000  0.045220457     0.000000000  0.000000000  1.000000000

  Length of vectors
     0.047306258  0.047306258  0.045220457

  Shift w.r.t. Gamma in fractional coordinates (k-lattice)
     0.000000000  0.000000000  0.000000000

 
 Subroutine IBZKPT returns following result:
 ===========================================
 
 Found      1 irreducible k-points:
 
 Following reciprocal coordinates:
            Coordinates               Weight
  0.000000  0.000000  0.000000      1.000000
 
 Following cartesian coordinates:
            Coordinates               Weight
  0.000000  0.000000  0.000000      1.000000
 


--------------------------------------------------------------------------------------------------------




 Dimension of arrays:
   k-points           NKPTS =      1   k-points in BZ     NKDIM =      1   number of bands    NBANDS=     64
   number of dos      NEDOS =    301   number of ions     NIONS =      2
   non local maximal  LDIM  =      6   non local SUM 2l+1 LMDIM =     18
   total plane-waves  NPLWV = ******
   max r-space proj   IRMAX =   5559   max aug-charges    IRDMAX=  21597
   dimension x,y,z NGX =   160 NGY =  160 NGZ =  168
   dimension x,y,z NGXF=   320 NGYF=  320 NGZF=  336
   support grid    NGXF=   320 NGYF=  320 NGZF=  336
   ions per type =               2
   NGX,Y,Z   is equivalent  to a cutoff of  12.58, 12.58, 12.63 a.u.
   NGXF,Y,Z  is equivalent  to a cutoff of  25.17, 25.17, 25.26 a.u.

 SYSTEM =  MgO-rocksalt                            
 POSCAR =  Ag                                      

 Startparameter for this run:
   NWRITE =      2    write-flag & timer
   PREC   = accura    normal or accurate (medium, high low for compatibility)
   ISTART =      0    job   : 0-new  1-cont  2-samecut
   ICHARG =      2    charge: 1-file 2-atom 10-const
   ISPIN  =      1    spin polarized calculation?
   LNONCOLLINEAR =      F non collinear calculations
   LSORBIT =      F    spin-orbit coupling
   INIWAV =      1    electr: 0-lowe 1-rand  2-diag
   LASPH  =      T    aspherical Exc in radial PAW
 Electronic Relaxation 1
   ENCUT  =  520.0 eV  38.22 Ry    6.18 a.u.  39.30 39.30 41.12*2*pi/ulx,y,z
   ENINI  =  520.0     initial cutoff
   ENAUG  =  412.5 eV  augmentation charge cutoff
   NELM   =    200;   NELMIN=  8; NELMDL= -5     # of ELM steps 
   EDIFF  = 0.1E-05   stopping-criterion for ELM
   LREAL  =      T    real-space projection
   NLSPLINE    = F    spline interpolate recip. space projectors
   LCOMPAT=      F    compatible to vasp.4.4
   GGA_COMPAT  = T    GGA compatible to vasp.4.4-vasp.4.6
   LMAXPAW     = -100 max onsite density
   LMAXMIX     =    2 max onsite mixed and CHGCAR
   VOSKOWN=      0    Vosko Wilk Nusair interpolation
   ROPT   =   -0.00025
 Ionic relaxation
   EDIFFG = 0.1E-04   stopping-criterion for IOM
   NSW    =      0    number of steps for IOM
   NBLOCK =      1;   KBLOCK =      1    inner block; outer block 
   IBRION =     -1    ionic relax: 0-MD 1-quasi-New 2-CG
   NFREE  =      0    steps in history (QN), initial steepest desc. (CG)
   ISIF   =      2    stress and relaxation
   IWAVPR =     10    prediction:  0-non 1-charg 2-wave 3-comb
   ISYM   =      2    0-nonsym 1-usesym 2-fastsym
   LCORR  =      T    Harris-Foulkes like correction to forces

   POTIM  = 0.5000    time-step for ionic-motion
   TEIN   =    0.0    initial temperature
   TEBEG  =    0.0;   TEEND  =   0.0 temperature during run
   SMASS  =  -3.00    Nose mass-parameter (am)
   estimated Nose-frequenzy (Omega)   =  0.10E-29 period in steps = 0.13E+47 mass=  -0.102E-25a.u.
   SCALEE = 1.0000    scale energy and forces
   NPACO  =    256;   APACO  = 10.0  distance and # of slots for P.C.
   PSTRESS=    0.0 pullay stress

  Mass of Ions in am
   POMASS = 107.87
  Ionic Valenz
   ZVAL   =  11.00
  Atomic Wigner-Seitz radii
   RWIGS  =  -1.00
  virtual crystal weights 
   VCA    =   1.00
   NELECT =      22.0000    total number of electrons
   NUPDOWN=      -1.0000    fix difference up-down

 DOS related values:
   EMIN   =  10.00;   EMAX   =-10.00  energy-range for DOS
   EFERMI =   0.00
   ISMEAR =     0;   SIGMA  =   0.05  broadening in eV -4-tet -1-fermi 0-gaus

 Electronic relaxation 2 (details)
   IALGO  =     58    algorithm
   LDIAG  =      T    sub-space diagonalisation (order eigenvalues)
   LSUBROT=      F    optimize rotation matrix (better conditioning)
   TURBO    =      0    0=normal 1=particle mesh
   IRESTART =      0    0=no restart 2=restart with 2 vectors
   NREBOOT  =      0    no. of reboots
   NMIN     =      0    reboot dimension
   EREF     =   0.00    reference energy to select bands
   IMIX   =      4    mixing-type and parameters
     AMIX     =   0.40;   BMIX     =  1.00
     AMIX_MAG =   1.60;   BMIX_MAG =  1.00
     AMIN     =   0.10
     WC   =   100.;   INIMIX=   1;  MIXPRE=   1;  MAXMIX= -45

 Intra band minimization:
   WEIMIN = 0.0000     energy-eigenvalue tresh-hold
   EBREAK =  0.39E-08  absolut break condition
   DEPER  =   0.30     relativ break condition  

   TIME   =   0.40     timestep for ELM

  volume/ion in A,a.u.               =    4940.81     33342.21
  Fermi-wavevector in a.u.,A,eV,Ry     =   0.213767  0.403960  0.621734  0.045696
  Thomas-Fermi vector in A             =   0.985879

 Write flags
   LWAVE        =      F    write WAVECAR
   LDOWNSAMPLE  =      F    k-point downsampling of WAVECAR
   LCHARG       =      F    write CHGCAR
   LVTOT        =      F    write LOCPOT, total local potential
   LVHAR        =      F    write LOCPOT, Hartree potential only
   LELF         =      F    write electronic localiz. function (ELF)
   LORBIT       =      0    0 simple, 1 ext, 2 COOP (PROOUT), +10 PAW based schemes


 Dipole corrections
   LMONO  =      F    monopole corrections only (constant potential shift)
   LDIPOL =      T    correct potential (dipole corrections)
   IDIPOL =      3    1-x, 2-y, 3-z, 4-all directions 
   EPSILON=  1.0000000 bulk dielectric constant

 Exchange correlation treatment:
   GGA     =    ML    GGA type
   LEXCH   =    44    internal setting for exchange type
   LIBXC   =     F    Libxc                    
   VOSKOWN =     0    Vosko Wilk Nusair interpolation
   LHFCALC =     F    Hartree Fock is set to
   LHFONE  =     F    Hartree Fock one center treatment
   AEXX    =    0.0000 exact exchange contribution

 vdW DFT:
   LUSE_VDW   =     T    switch on vdW DFT
   Zab_VDW    =******    correlation parameter
   PARAM1     =0.1234
   PARAM2     =1.0000
   PARAM3     =0.0000
   -- rVV10 --
   BPARAM     = 6.3000
   CPARAM     = 0.0093

 Linear response parameters
   LEPSILON=     F    determine dielectric tensor
   LRPA    =     F    only Hartree local field effects (RPA)
   LNABLA  =     F    use nabla operator in PAW spheres
   LVEL    =     F    velocity operator in full k-point grid
   CSHIFT  =0.1000    complex shift for real part using Kramers Kronig
   OMEGAMAX=  -1.0    maximum frequency
   DEG_THRESHOLD= 0.2000000E-02 threshold for treating states as degnerate
   RTIME   =   -0.100 relaxation time in fs
  (WPLASMAI=    0.000 imaginary part of plasma frequency in eV, 0.658/RTIME)
   DFIELD  = 0.0000000 0.0000000 0.0000000 field for delta impulse in time

  Optional k-point grid parameters
   LKPOINTS_OPT  =     F    use optional k-point grid
   KPOINTS_OPT_MODE=     1    mode for optional k-point grid

 Orbital magnetization related:
   ORBITALMAG=     F  switch on orbital magnetization
   LCHIMAG   =     F  perturbation theory with respect to B field
   DQ        =  0.001000  dq finite difference perturbation B field
   LLRAUG    =     F  two centre corrections for induced B field



--------------------------------------------------------------------------------------------------------


 Static calculation
 charge density and potential will be updated during run
 non-spin polarized calculation
 Conjugate gradient for all bands (Freysoldt, et al. PRB 79, 241103 (2009))
 preconditioned conjugated gradient                                        
 perform sub-space diagonalisation
    before iterative eigenvector-optimisation
 modified Broyden-mixing scheme, WC =      100.0
 initial mixing is a Kerker type mixing with AMIX =  0.4000 and BMIX =      1.0000
 Hartree-type preconditioning will be used
 using additional bands           53
 real space projection scheme for non local part
 use partial core corrections
 no Harris-corrections to forces 
 use gradient corrections 
 use of overlap-Matrix (Vanderbilt PP)
 Gauss-broadening in eV      SIGMA  =   0.05


--------------------------------------------------------------------------------------------------------


  energy-cutoff  :      520.00
  volume of cell :     9881.61
      direct lattice vectors                 reciprocal lattice vectors
    21.138852197  0.000000000  0.000000000     0.047306258  0.000000000  0.000000000
     0.000000000 21.138852197  0.000000000     0.000000000  0.047306258  0.000000000
     0.000000000  0.000000000 22.113885220     0.000000000  0.000000000  0.045220457

  length of vectors
    21.138852197 21.138852197 22.113885220     0.047306258  0.047306258  0.045220457



 k-points in units of 2pi/SCALE and weight: KPOINTS created by Atomic Simulation Env
   0.00000000  0.00000000  0.00000000       1.000

 k-points in reciprocal lattice and weights: KPOINTS created by Atomic Simulation Env
   0.00000000  0.00000000  0.00000000       1.000

 position of ions in fractional coordinates (direct lattice) 
   0.54326415  0.55673581  0.62337147
   0.45673585  0.64326411  0.62337147

 position of ions in cartesian coordinates  (Angst):
  11.48398057 11.76875609 13.78516522
   9.65487163 13.59786503 13.78516522



--------------------------------------------------------------------------------------------------------


 k-point   1 :   0.0000 0.0000 0.0000  plane waves:  265979

 maximum and minimum number of plane-waves per node :     66495    66494

 maximum number of plane-waves:    265979
 maximum index in each direction: 
   IXMAX=   39   IYMAX=   39   IZMAX=   41
   IXMIN=  -39   IYMIN=  -39   IZMIN=  -41


 real space projection operators:
  total allocation   :       1499.62 KBytes
  max/ min on nodes  :        376.17        373.22


 parallel 3D FFT for wavefunctions:
    minimum data exchange during FFTs selected (reduces bandwidth)
 parallel 3D FFT for charge:
    minimum data exchange during FFTs selected (reduces bandwidth)


 total amount of memory used by VASP MPI-rank0   125749. kBytes
=======================================================================

   base      :      30000. kBytes
   nonlr-proj:        645. kBytes
   fftplans  :      38424. kBytes
   grid      :      53473. kBytes
   one-center:         15. kBytes
   wavefun   :       3192. kBytes

     INWAV:  cpu time      0.0001: real time      0.0003
 Broyden mixing: mesh for mixing (old mesh)
   NGX = 79   NGY = 79   NGZ = 83
  (NGX  =320   NGY  =320   NGZ  =336)
  gives a total of 518003 points

 initial charge density was supplied:
 charge density of overlapping atoms calculated
 number of electron      22.0000000 magnetization 
 keeping initial charge density in first step


--------------------------------------------------------------------------------------------------------


 Maximum index for non-local projection operator         1327
 Maximum index for augmentation-charges            0 (set IRDMAX)


--------------------------------------------------------------------------------------------------------


 First call to EWALD:  gamma=   0.083
 Maximum number of real-space cells 3x 3x 3
 Maximum number of reciprocal cells 3x 3x 3

    FEWALD:  cpu time      0.0007: real time      0.0007


--------------------------------------- Iteration      1(   1)  ---------------------------------------


vdW kernel read from vdw_kernel.bindat
  0.0000  0.2424  0.5071  0.7962  1.1119  1.4567  1.8333  2.2446  2.6937  3.1842
  3.7199  4.3049  4.9438  5.6415  6.4036  7.2358  8.1446  9.1372 10.2212 11.4050
 12.6979 14.1099 15.6519 17.3360 19.1751 21.1837 23.3773 25.7729 28.3892 31.2465
 34.3669 37.7748 41.4965 45.5611 50.0000

    POTLOK:  cpu time      2.1118: real time      2.1270
    SETDIJ:  cpu time      0.1074: real time      0.1074
    TRIAL :  cpu time      0.4333: real time      0.4341
    CORREC:  cpu time      0.0006: real time      0.0006
    --------------------------------------------
      LOOP:  cpu time      2.6555: real time      2.6716

 eigenvalue-minimisations  :   128
 total energy-change (2. order) : 0.1615577E+03  (-0.3778345E+03)
 number of electron      22.0000000 magnetization 
 augmentation part       22.0000000 magnetization 

 DIPCOR: dipole corrections for dipol
 direction  3 min pos     1,
 dipolmoment           0.000000      0.000000     -0.000013 electrons x Angstroem
 Tr[quadrupol]     -3640.382419

 energy correction for charged system         0.000000 eV
 dipol+quadrupol energy correction           -0.000000 eV
 added-field ion interaction          0.000015 eV  (added to PSCEN)


 Free energy of the ion-electron system (eV)
  ---------------------------------------------------
  alpha Z        PSCENC =         0.34432276
  Ewald energy   TEWEN  =       215.76430794
  -Hartree energ DENC   =     -2198.01184678
  -exchange      EXHF   =         0.00000000
  -V(xc)+E(xc)   XCENC  =       -28.66265317
  PAW double counting   =      2013.97490583    -1916.92521099
  entropy T*S    EENTRO =        -0.01053860
  eigenvalues    EBANDS =        -8.57410013
  atomic energy  EATOM  =      2083.65853648
  ---------------------------------------------------
  free energy    TOTEN  =       161.55772334 eV

  energy without entropy =      161.56826194  energy(sigma->0) =      161.56299264


--------------------------------------------------------------------------------------------------------




--------------------------------------- Iteration      1(   2)  ---------------------------------------


    TRIAL :  cpu time      0.9381: real time      0.9382
    CORREC:  cpu time      0.0002: real time      0.0002
    --------------------------------------------
      LOOP:  cpu time      0.9436: real time      0.9519

 eigenvalue-minimisations  :   256
 total energy-change (2. order) :-0.1496025E+03  (-0.1494577E+03)
 number of electron      22.0000000 magnetization 
 augmentation part       22.0000000 magnetization 

 DIPCOR: dipole corrections for dipol
 direction  3 min pos     1,
 dipolmoment           0.000000      0.000000     -0.000013 electrons x Angstroem
 Tr[quadrupol]     -3640.382419

 energy correction for charged system         0.000000 eV
 dipol+quadrupol energy correction           -0.000000 eV
 added-field ion interaction          0.000015 eV  (added to PSCEN)


 Free energy of the ion-electron system (eV)
  ---------------------------------------------------
  alpha Z        PSCENC =         0.34432276
  Ewald energy   TEWEN  =       215.76430794
  -Hartree energ DENC   =     -2198.01184678
  -exchange      EXHF   =         0.00000000
  -V(xc)+E(xc)   XCENC  =       -28.66265317
  PAW double counting   =      2013.97490583    -1916.92521099
  entropy T*S    EENTRO =        -0.00000000
  eigenvalues    EBANDS =      -158.18716771
  atomic energy  EATOM  =      2083.65853648
  ---------------------------------------------------
  free energy    TOTEN  =        11.95519436 eV

  energy without entropy =       11.95519436  energy(sigma->0) =       11.95519436


--------------------------------------------------------------------------------------------------------




--------------------------------------- Iteration      1(   3)  ---------------------------------------


    TRIAL :  cpu time      0.4248: real time      0.4249
    CORREC:  cpu time      0.0003: real time      0.0003
    --------------------------------------------
      LOOP:  cpu time      0.4291: real time      0.4374

 eigenvalue-minimisations  :   128
 total energy-change (2. order) :-0.8243429E+01  (-0.8243429E+01)
 number of electron      22.0000000 magnetization 
 augmentation part       22.0000000 magnetization 

 DIPCOR: dipole corrections for dipol
 direction  3 min pos     1,
 dipolmoment           0.000000      0.000000     -0.000013 electrons x Angstroem
 Tr[quadrupol]     -3640.382419

 energy correction for charged system         0.000000 eV
 dipol+quadrupol energy correction           -0.000000 eV
 added-field ion interaction          0.000015 eV  (added to PSCEN)


 Free energy of the ion-electron system (eV)
  ---------------------------------------------------
  alpha Z        PSCENC =         0.34432276
  Ewald energy   TEWEN  =       215.76430794
  -Hartree energ DENC   =     -2198.01184678
  -exchange      EXHF   =         0.00000000
  -V(xc)+E(xc)   XCENC  =       -28.66265317
  PAW double counting   =      2013.97490583    -1916.92521099
  entropy T*S    EENTRO =        -0.00000000
  eigenvalues    EBANDS =      -166.43059648
  atomic energy  EATOM  =      2083.65853648
  ---------------------------------------------------
  free energy    TOTEN  =         3.71176558 eV

  energy without entropy =        3.71176558  energy(sigma->0) =        3.71176558


--------------------------------------------------------------------------------------------------------




--------------------------------------- Iteration      1(   4)  ---------------------------------------


    TRIAL :  cpu time      0.9201: real time      0.9202
    CORREC:  cpu time      0.0006: real time      0.0006
    --------------------------------------------
      LOOP:  cpu time      0.9258: real time      0.9329

 eigenvalue-minimisations  :   256
 total energy-change (2. order) :-0.4189062E-01  (-0.4189062E-01)
 number of electron      22.0000000 magnetization 
 augmentation part       22.0000000 magnetization 

 DIPCOR: dipole corrections for dipol
 direction  3 min pos     1,
 dipolmoment           0.000000      0.000000     -0.000013 electrons x Angstroem
 Tr[quadrupol]     -3640.382419

 energy correction for charged system         0.000000 eV
 dipol+quadrupol energy correction           -0.000000 eV
 added-field ion interaction          0.000015 eV  (added to PSCEN)


 Free energy of the ion-electron system (eV)
  ---------------------------------------------------
  alpha Z        PSCENC =         0.34432276
  Ewald energy   TEWEN  =       215.76430794
  -Hartree energ DENC   =     -2198.01184678
  -exchange      EXHF   =         0.00000000
  -V(xc)+E(xc)   XCENC  =       -28.66265317
  PAW double counting   =      2013.97490583    -1916.92521099
  entropy T*S    EENTRO =        -0.00000000
  eigenvalues    EBANDS =      -166.47248710
  atomic energy  EATOM  =      2083.65853648
  ---------------------------------------------------
  free energy    TOTEN  =         3.66987496 eV

  energy without entropy =        3.66987496  energy(sigma->0) =        3.66987496


--------------------------------------------------------------------------------------------------------




--------------------------------------- Iteration      1(   5)  ---------------------------------------


    TRIAL :  cpu time      0.6377: real time      0.6377
    CORREC:  cpu time      0.0008: real time      0.0008
    CHARGE:  cpu time      0.6073: real time      0.6082
    --------------------------------------------
      LOOP:  cpu time      1.2495: real time      1.2588

 eigenvalue-minimisations  :   192
 total energy-change (2. order) :-0.2652316E-05  (-0.2652268E-05)
 number of electron      21.9999998 magnetization 
 augmentation part       10.5610926 magnetization 

 DIPCOR: dipole corrections for dipol
 direction  3 min pos     1,
 dipolmoment           0.000000      0.000000     -0.000013 electrons x Angstroem
 Tr[quadrupol]     -3640.382419

 energy correction for charged system         0.000000 eV
 dipol+quadrupol energy correction           -0.000000 eV
 added-field ion interaction          0.000015 eV  (added to PSCEN)


 Free energy of the ion-electron system (eV)
  ---------------------------------------------------
  alpha Z        PSCENC =         0.34432276
  Ewald energy   TEWEN  =       215.76430794
  -Hartree energ DENC   =     -2198.01184678
  -exchange      EXHF   =         0.00000000
  -V(xc)+E(xc)   XCENC  =       -28.66265317
  PAW double counting   =      2013.97490583    -1916.92521099
  entropy T*S    EENTRO =        -0.00000000
  eigenvalues    EBANDS =      -166.47248976
  atomic energy  EATOM  =      2083.65853648
  ---------------------------------------------------
  free energy    TOTEN  =         3.66987231 eV

  energy without entropy =        3.66987231  energy(sigma->0) =        3.66987231


--------------------------------------------------------------------------------------------------------




--------------------------------------- Iteration      1(   6)  ---------------------------------------


    POTLOK:  cpu time      1.6981: real time      1.6982
    SETDIJ:  cpu time      0.1193: real time      0.1193
    TRIAL :  cpu time      0.2411: real time      0.2419
    CORREC:  cpu time      2.5423: real time      2.5427
    CHARGE:  cpu time      0.5974: real time      0.5974
    --------------------------------------------
      LOOP:  cpu time      5.2105: real time      5.2120

 eigenvalue-minimisations  :     0
 total energy-change (2. order) : 0.5295517E+00  (-0.2537209E+00)
 number of electron      21.9999998 magnetization 
 augmentation part       10.6694387 magnetization 

 DIPCOR: dipole corrections for dipol
 direction  3 min pos     1,
 dipolmoment           0.000000      0.000000     -0.000385 electrons x Angstroem
 Tr[quadrupol]     -3640.364713

 energy correction for charged system         0.000000 eV
 dipol+quadrupol energy correction           -0.000000 eV
 added-field ion interaction          0.000457 eV  (added to PSCEN)


 Free energy of the ion-electron system (eV)
  ---------------------------------------------------
  alpha Z        PSCENC =         0.34430877
  Ewald energy   TEWEN  =       215.76430794
  -Hartree energ DENC   =     -2196.49968079
  -exchange      EXHF   =         0.00000000
  -V(xc)+E(xc)   XCENC  =       -29.13505877
  PAW double counting   =      2086.64448622    -1991.01681360
  entropy T*S    EENTRO =        -0.00000000
  eigenvalues    EBANDS =      -165.56066223
  atomic energy  EATOM  =      2083.65853648
  ---------------------------------------------------
  free energy    TOTEN  =         4.19942402 eV

  energy without entropy =        4.19942402  energy(sigma->0) =        4.19942402


--------------------------------------------------------------------------------------------------------




--------------------------------------- Iteration      1(   7)  ---------------------------------------


    POTLOK:  cpu time      1.7519: real time      1.7520
    SETDIJ:  cpu time      0.1169: real time      0.1169
    TRIAL :  cpu time      0.2373: real time      0.2373
    CORREC:  cpu time      2.5392: real time      2.5393
    CHARGE:  cpu time      0.5952: real time      0.5953
    --------------------------------------------
      LOOP:  cpu time      5.2455: real time      5.2535

 eigenvalue-minimisations  :     0
 total energy-change (2. order) :-0.2538188E+00  (-0.2951244E-01)
 number of electron      21.9999998 magnetization 
 augmentation part       10.6318147 magnetization 

 DIPCOR: dipole corrections for dipol
 direction  3 min pos     1,
 dipolmoment           0.000000      0.000000     -0.000358 electrons x Angstroem
 Tr[quadrupol]     -3640.327655

 energy correction for charged system         0.000000 eV
 dipol+quadrupol energy correction           -0.000000 eV
 added-field ion interaction          0.000425 eV  (added to PSCEN)


 Free energy of the ion-electron system (eV)
  ---------------------------------------------------
  alpha Z        PSCENC =         0.34479796
  Ewald energy   TEWEN  =       215.76430794
  -Hartree energ DENC   =     -2203.66062206
  -exchange      EXHF   =         0.00000000
  -V(xc)+E(xc)   XCENC  =       -28.74934151
  PAW double counting   =      2088.49763496    -1992.97911708
  entropy T*S    EENTRO =        -0.00000000
  eigenvalues    EBANDS =      -158.93059142
  atomic energy  EATOM  =      2083.65853648
  ---------------------------------------------------
  free energy    TOTEN  =         3.94560527 eV

  energy without entropy =        3.94560527  energy(sigma->0) =        3.94560527


--------------------------------------------------------------------------------------------------------




--------------------------------------- Iteration      1(   8)  ---------------------------------------


    POTLOK:  cpu time      1.7544: real time      1.7545
    SETDIJ:  cpu time      0.1154: real time      0.1154
    TRIAL :  cpu time      0.2364: real time      0.2364
    CORREC:  cpu time      2.5493: real time      2.5495
    CHARGE:  cpu time      0.6020: real time      0.6020
    --------------------------------------------
      LOOP:  cpu time      5.2745: real time      5.2754

 eigenvalue-minimisations  :     0
 total energy-change (2. order) :-0.2944869E-01  (-0.1645557E-01)
 number of electron      21.9999998 magnetization 
 augmentation part       10.6499690 magnetization 

 DIPCOR: dipole corrections for dipol
 direction  3 min pos     1,
 dipolmoment           0.000000      0.000000     -0.000141 electrons x Angstroem
 Tr[quadrupol]     -3640.337052

 energy correction for charged system         0.000000 eV
 dipol+quadrupol energy correction           -0.000000 eV
 added-field ion interaction          0.000168 eV  (added to PSCEN)


 Free energy of the ion-electron system (eV)
  ---------------------------------------------------
  alpha Z        PSCENC =         0.34471801
  Ewald energy   TEWEN  =       215.76430794
  -Hartree energ DENC   =     -2195.78845915
  -exchange      EXHF   =         0.00000000
  -V(xc)+E(xc)   XCENC  =       -28.96628033
  PAW double counting   =      2077.65942173    -1982.03246679
  entropy T*S    EENTRO =        -0.00000000
  eigenvalues    EBANDS =      -166.72362132
  atomic energy  EATOM  =      2083.65853648
  ---------------------------------------------------
  free energy    TOTEN  =         3.91615658 eV

  energy without entropy =        3.91615658  energy(sigma->0) =        3.91615658


--------------------------------------------------------------------------------------------------------




--------------------------------------- Iteration      1(   9)  ---------------------------------------


    POTLOK:  cpu time      1.7410: real time      1.7412
    SETDIJ:  cpu time      0.1185: real time      0.1185
    TRIAL :  cpu time      0.2367: real time      0.2367
    CORREC:  cpu time      2.5108: real time      2.5110
    CHARGE:  cpu time      0.5970: real time      0.5970
    --------------------------------------------
      LOOP:  cpu time      5.2094: real time      5.2172

 eigenvalue-minimisations  :     0
 total energy-change (2. order) :-0.1644382E-01  (-0.3164443E-02)
 number of electron      21.9999998 magnetization 
 augmentation part       10.6514461 magnetization 

 DIPCOR: dipole corrections for dipol
 direction  3 min pos     1,
 dipolmoment           0.000000      0.000000     -0.000013 electrons x Angstroem
 Tr[quadrupol]     -3640.353980

 energy correction for charged system         0.000000 eV
 dipol+quadrupol energy correction           -0.000000 eV
 added-field ion interaction          0.000016 eV  (added to PSCEN)


 Free energy of the ion-electron system (eV)
  ---------------------------------------------------
  alpha Z        PSCENC =         0.34436832
  Ewald energy   TEWEN  =       215.76430794
  -Hartree energ DENC   =     -2198.08834012
  -exchange      EXHF   =         0.00000000
  -V(xc)+E(xc)   XCENC  =       -28.88318662
  PAW double counting   =      2078.38874701    -1982.76526645
  entropy T*S    EENTRO =        -0.00000000
  eigenvalues    EBANDS =      -164.51945379
  atomic energy  EATOM  =      2083.65853648
  ---------------------------------------------------
  free energy    TOTEN  =         3.89971277 eV

  energy without entropy =        3.89971277  energy(sigma->0) =        3.89971277


--------------------------------------------------------------------------------------------------------




--------------------------------------- Iteration      1(  10)  ---------------------------------------


    POTLOK:  cpu time      1.7065: real time      1.7066
    SETDIJ:  cpu time      0.1185: real time      0.1185
    TRIAL :  cpu time      0.2372: real time      0.2373
    CORREC:  cpu time      2.4902: real time      2.4904
    CHARGE:  cpu time      0.6002: real time      0.6002
    --------------------------------------------
      LOOP:  cpu time      5.1677: real time      5.1684

 eigenvalue-minimisations  :     0
 total energy-change (2. order) :-0.3169029E-02  (-0.4851650E-03)
 number of electron      21.9999998 magnetization 
 augmentation part       10.6490701 magnetization 

 DIPCOR: dipole corrections for dipol
 direction  3 min pos     1,
 dipolmoment           0.000000      0.000000     -0.000002 electrons x Angstroem
 Tr[quadrupol]     -3640.352974

 energy correction for charged system         0.000000 eV
 dipol+quadrupol energy correction           -0.000000 eV
 added-field ion interaction          0.000002 eV  (added to PSCEN)


 Free energy of the ion-electron system (eV)
  ---------------------------------------------------
  alpha Z        PSCENC =         0.34431094
  Ewald energy   TEWEN  =       215.76430794
  -Hartree energ DENC   =     -2197.92202320
  -exchange      EXHF   =         0.00000000
  -V(xc)+E(xc)   XCENC  =       -28.88508897
  PAW double counting   =      2078.85998407    -1983.18890551
  entropy T*S    EENTRO =        -0.00000000
  eigenvalues    EBANDS =      -164.73457801
  atomic energy  EATOM  =      2083.65853648
  ---------------------------------------------------
  free energy    TOTEN  =         3.89654374 eV

  energy without entropy =        3.89654374  energy(sigma->0) =        3.89654374


--------------------------------------------------------------------------------------------------------




--------------------------------------- Iteration      1(  11)  ---------------------------------------


    POTLOK:  cpu time      1.7037: real time      1.7037
    SETDIJ:  cpu time      0.1155: real time      0.1155
    TRIAL :  cpu time      0.2368: real time      0.2369
    CORREC:  cpu time      2.4888: real time      2.4890
    CHARGE:  cpu time      0.5978: real time      0.5978
    --------------------------------------------
      LOOP:  cpu time      5.1470: real time      5.1562

 eigenvalue-minimisations  :     0
 total energy-change (2. order) :-0.4904987E-03  (-0.1099823E-03)
 number of electron      21.9999998 magnetization 
 augmentation part       10.6517927 magnetization 

 DIPCOR: dipole corrections for dipol
 direction  3 min pos     1,
 dipolmoment           0.000000      0.000000     -0.000002 electrons x Angstroem
 Tr[quadrupol]     -3640.354519

 energy correction for charged system         0.000000 eV
 dipol+quadrupol energy correction           -0.000000 eV
 added-field ion interaction          0.000002 eV  (added to PSCEN)


 Free energy of the ion-electron system (eV)
  ---------------------------------------------------
  alpha Z        PSCENC =         0.34431001
  Ewald energy   TEWEN  =       215.76430794
  -Hartree energ DENC   =     -2197.41154742
  -exchange      EXHF   =         0.00000000
  -V(xc)+E(xc)   XCENC  =       -28.90025882
  PAW double counting   =      2078.15105841    -1982.46040580
  entropy T*S    EENTRO =        -0.00000000
  eigenvalues    EBANDS =      -165.24994757
  atomic energy  EATOM  =      2083.65853648
  ---------------------------------------------------
  free energy    TOTEN  =         3.89605324 eV

  energy without entropy =        3.89605324  energy(sigma->0) =        3.89605324


--------------------------------------------------------------------------------------------------------




--------------------------------------- Iteration      1(  12)  ---------------------------------------


    POTLOK:  cpu time      1.7033: real time      1.7034
    SETDIJ:  cpu time      0.1159: real time      0.1159
    TRIAL :  cpu time      0.2367: real time      0.2367
    CORREC:  cpu time      2.4956: real time      2.4957
    CHARGE:  cpu time      0.6047: real time      0.6047
    --------------------------------------------
      LOOP:  cpu time      5.1616: real time      5.1698

 eigenvalue-minimisations  :     0
 total energy-change (2. order) :-0.1085623E-03  (-0.2653217E-04)
 number of electron      21.9999998 magnetization 
 augmentation part       10.6509267 magnetization 

 DIPCOR: dipole corrections for dipol
 direction  3 min pos     1,
 dipolmoment           0.000000      0.000000     -0.000001 electrons x Angstroem
 Tr[quadrupol]     -3640.354614

 energy correction for charged system         0.000000 eV
 dipol+quadrupol energy correction           -0.000000 eV
 added-field ion interaction          0.000002 eV  (added to PSCEN)


 Free energy of the ion-electron system (eV)
  ---------------------------------------------------
  alpha Z        PSCENC =         0.34430955
  Ewald energy   TEWEN  =       215.76430794
  -Hartree energ DENC   =     -2197.83629057
  -exchange      EXHF   =         0.00000000
  -V(xc)+E(xc)   XCENC  =       -28.88674086
  PAW double counting   =      2078.29502283    -1982.60829400
  entropy T*S    EENTRO =        -0.00000000
  eigenvalues    EBANDS =      -164.83490669
  atomic energy  EATOM  =      2083.65853648
  ---------------------------------------------------
  free energy    TOTEN  =         3.89594468 eV

  energy without entropy =        3.89594468  energy(sigma->0) =        3.89594468


--------------------------------------------------------------------------------------------------------




--------------------------------------- Iteration      1(  13)  ---------------------------------------


    POTLOK:  cpu time      1.7041: real time      1.7043
    SETDIJ:  cpu time      0.1137: real time      0.1137
    TRIAL :  cpu time      0.2376: real time      0.2376
    CORREC:  cpu time      2.4863: real time      2.4865
    CHARGE:  cpu time      0.5959: real time      0.5959
    --------------------------------------------
      LOOP:  cpu time      5.1423: real time      5.1509

 eigenvalue-minimisations  :     0
 total energy-change (2. order) :-0.2698176E-04  (-0.4851413E-05)
 number of electron      21.9999998 magnetization 
 augmentation part       10.6508087 magnetization 

 DIPCOR: dipole corrections for dipol
 direction  3 min pos     1,
 dipolmoment           0.000000      0.000000     -0.000001 electrons x Angstroem
 Tr[quadrupol]     -3640.354595

 energy correction for charged system         0.000000 eV
 dipol+quadrupol energy correction           -0.000000 eV
 added-field ion interaction          0.000001 eV  (added to PSCEN)


 Free energy of the ion-electron system (eV)
  ---------------------------------------------------
  alpha Z        PSCENC =         0.34430893
  Ewald energy   TEWEN  =       215.76430794
  -Hartree energ DENC   =     -2197.71753258
  -exchange      EXHF   =         0.00000000
  -V(xc)+E(xc)   XCENC  =       -28.89077829
  PAW double counting   =      2077.93427938    -1982.24606962
  entropy T*S    EENTRO =        -0.00000000
  eigenvalues    EBANDS =      -164.95113454
  atomic energy  EATOM  =      2083.65853648
  ---------------------------------------------------
  free energy    TOTEN  =         3.89591769 eV

  energy without entropy =        3.89591769  energy(sigma->0) =        3.89591769


--------------------------------------------------------------------------------------------------------




--------------------------------------- Iteration      1(  14)  ---------------------------------------


    POTLOK:  cpu time      1.6987: real time      1.6988
    SETDIJ:  cpu time      0.1175: real time      0.1176
    TRIAL :  cpu time      0.2365: real time      0.2366
    CORREC:  cpu time      9.9538: real time      9.9549
    CHARGE:  cpu time      0.5992: real time      0.5996
    --------------------------------------------
      LOOP:  cpu time     12.6228: real time     12.6248

 eigenvalue-minimisations  :     0
 total energy-change (2. order) :-0.4962397E-05  (-0.5794223E-05)
 number of electron      21.9999998 magnetization 
 augmentation part       10.6518408 magnetization 

 DIPCOR: dipole corrections for dipol
 direction  3 min pos     1,
 dipolmoment           0.000000      0.000000     -0.000001 electrons x Angstroem
 Tr[quadrupol]     -3640.356741

 energy correction for charged system         0.000000 eV
 dipol+quadrupol energy correction           -0.000000 eV
 added-field ion interaction          0.000002 eV  (added to PSCEN)


 Free energy of the ion-electron system (eV)
  ---------------------------------------------------
  alpha Z        PSCENC =         0.34430883
  Ewald energy   TEWEN  =       215.76430794
  -Hartree energ DENC   =     -2197.71087050
  -exchange      EXHF   =         0.00000000
  -V(xc)+E(xc)   XCENC  =       -28.89108974
  PAW double counting   =      2077.80504615    -1982.11690125
  entropy T*S    EENTRO =        -0.00000000
  eigenvalues    EBANDS =      -164.95742518
  atomic energy  EATOM  =      2083.65853648
  ---------------------------------------------------
  free energy    TOTEN  =         3.89591273 eV

  energy without entropy =        3.89591273  energy(sigma->0) =        3.89591273


--------------------------------------------------------------------------------------------------------




--------------------------------------- Iteration      1(  15)  ---------------------------------------


    POTLOK:  cpu time      1.6999: real time      1.7000
    SETDIJ:  cpu time      0.1174: real time      0.1174
    TRIAL :  cpu time      0.2370: real time      0.2370
    CORREC:  cpu time      2.4887: real time      2.4889
    CHARGE:  cpu time      0.5981: real time      0.5982
    --------------------------------------------
      LOOP:  cpu time      5.1466: real time      5.1548

 eigenvalue-minimisations  :     0
 total energy-change (2. order) : 0.1072557E-04  (-0.1071699E-04)
 number of electron      21.9999998 magnetization 
 augmentation part       10.6508747 magnetization 

 DIPCOR: dipole corrections for dipol
 direction  3 min pos     1,
 dipolmoment           0.000000      0.000000     -0.000001 electrons x Angstroem
 Tr[quadrupol]     -3640.353200

 energy correction for charged system         0.000000 eV
 dipol+quadrupol energy correction           -0.000000 eV
 added-field ion interaction          0.000002 eV  (added to PSCEN)


 Free energy of the ion-electron system (eV)
  ---------------------------------------------------
  alpha Z        PSCENC =         0.34430893
  Ewald energy   TEWEN  =       215.76430794
  -Hartree energ DENC   =     -2197.90012550
  -exchange      EXHF   =         0.00000000
  -V(xc)+E(xc)   XCENC  =       -28.88528177
  PAW double counting   =      2077.75443862    -1982.06848773
  entropy T*S    EENTRO =        -0.00000000
  eigenvalues    EBANDS =      -164.77177351
  atomic energy  EATOM  =      2083.65853648
  ---------------------------------------------------
  free energy    TOTEN  =         3.89592346 eV

  energy without entropy =        3.89592346  energy(sigma->0) =        3.89592346


--------------------------------------------------------------------------------------------------------




--------------------------------------- Iteration      1(  16)  ---------------------------------------


    POTLOK:  cpu time      1.7004: real time      1.7005
    SETDIJ:  cpu time      0.1164: real time      0.1164
    TRIAL :  cpu time      0.2373: real time      0.2373
    CORREC:  cpu time      2.4982: real time      2.4983
    CHARGE:  cpu time      0.5989: real time      0.5994
    --------------------------------------------
      LOOP:  cpu time      5.1588: real time      5.1678

 eigenvalue-minimisations  :     0
 total energy-change (2. order) :-0.9269138E-05  (-0.2156937E-05)
 number of electron      21.9999998 magnetization 
 augmentation part       10.6508177 magnetization 

 DIPCOR: dipole corrections for dipol
 direction  3 min pos     1,
 dipolmoment           0.000000      0.000000     -0.000001 electrons x Angstroem
 Tr[quadrupol]     -3640.355091

 energy correction for charged system         0.000000 eV
 dipol+quadrupol energy correction           -0.000000 eV
 added-field ion interaction          0.000001 eV  (added to PSCEN)


 Free energy of the ion-electron system (eV)
  ---------------------------------------------------
  alpha Z        PSCENC =         0.34430886
  Ewald energy   TEWEN  =       215.76430794
  -Hartree energ DENC   =     -2197.74348620
  -exchange      EXHF   =         0.00000000
  -V(xc)+E(xc)   XCENC  =       -28.89025840
  PAW double counting   =      2077.59902713    -1981.91086094
  entropy T*S    EENTRO =        -0.00000000
  eigenvalues    EBANDS =      -164.92566069
  atomic energy  EATOM  =      2083.65853648
  ---------------------------------------------------
  free energy    TOTEN  =         3.89591419 eV

  energy without entropy =        3.89591419  energy(sigma->0) =        3.89591419


--------------------------------------------------------------------------------------------------------




--------------------------------------- Iteration      1(  17)  ---------------------------------------


    POTLOK:  cpu time      1.7032: real time      1.7033
    SETDIJ:  cpu time      0.1135: real time      0.1135
    TRIAL :  cpu time      0.2368: real time      0.2368
    CORREC:  cpu time      2.4895: real time      2.4897
    CHARGE:  cpu time      0.6014: real time      0.6014
    --------------------------------------------
      LOOP:  cpu time      5.1573: real time      5.1578

 eigenvalue-minimisations  :     0
 total energy-change (2. order) :-0.2142524E-05  (-0.1063963E-05)
 number of electron      21.9999998 magnetization 
 augmentation part       10.6511864 magnetization 

 DIPCOR: dipole corrections for dipol
 direction  3 min pos     1,
 dipolmoment           0.000000      0.000000     -0.000001 electrons x Angstroem
 Tr[quadrupol]     -3640.355339

 energy correction for charged system         0.000000 eV
 dipol+quadrupol energy correction           -0.000000 eV
 added-field ion interaction          0.000001 eV  (added to PSCEN)


 Free energy of the ion-electron system (eV)
  ---------------------------------------------------
  alpha Z        PSCENC =         0.34430885
  Ewald energy   TEWEN  =       215.76430794
  -Hartree energ DENC   =     -2197.72975249
  -exchange      EXHF   =         0.00000000
  -V(xc)+E(xc)   XCENC  =       -28.89066073
  PAW double counting   =      2077.60296382    -1981.91456746
  entropy T*S    EENTRO =        -0.00000000
  eigenvalues    EBANDS =      -164.93922436
  atomic energy  EATOM  =      2083.65853648
  ---------------------------------------------------
  free energy    TOTEN  =         3.89591204 eV

  energy without entropy =        3.89591204  energy(sigma->0) =        3.89591204


--------------------------------------------------------------------------------------------------------




--------------------------------------- Iteration      1(  18)  ---------------------------------------


    POTLOK:  cpu time      1.7011: real time      1.7012
    SETDIJ:  cpu time      0.1153: real time      0.1153
    TRIAL :  cpu time      0.2375: real time      0.2375
    CORREC:  cpu time      2.4919: real time      2.4925
    EDDIAG:  cpu time      0.0977: real time      0.0984
    CHARGE:  cpu time      0.6010: real time      0.6010
    --------------------------------------------
      LOOP:  cpu time      5.2504: real time      5.2599

 eigenvalue-minimisations  :     0
 total energy-change (2. order) :-0.6791379E-06  (-0.5640288E-06)
 number of electron      21.9999998 magnetization 
 augmentation part       10.6509809 magnetization 

 DIPCOR: dipole corrections for dipol
 direction  3 min pos     1,
 dipolmoment           0.000000      0.000000     -0.000001 electrons x Angstroem
 Tr[quadrupol]     -3640.354551

 energy correction for charged system         0.000000 eV
 dipol+quadrupol energy correction           -0.000000 eV
 added-field ion interaction          0.000001 eV  (added to PSCEN)


 Free energy of the ion-electron system (eV)
  ---------------------------------------------------
  alpha Z        PSCENC =         0.34430883
  Ewald energy   TEWEN  =       215.76430794
  -Hartree energ DENC   =     -2197.78331825
  -exchange      EXHF   =         0.00000000
  -V(xc)+E(xc)   XCENC  =       -28.88890520
  PAW double counting   =      2077.68231989    -1981.99468904
  entropy T*S    EENTRO =        -0.00000000
  eigenvalues    EBANDS =      -164.88664928
  atomic energy  EATOM  =      2083.65853648
  ---------------------------------------------------
  free energy    TOTEN  =         3.89591137 eV

  energy without entropy =        3.89591137  energy(sigma->0) =        3.89591137


--------------------------------------------------------------------------------------------------------


  average scaling for gradient   1.2396


 average (electrostatic) potential at core
  the test charge radii are     1.1249
  (the norm of the test charge is              1.0000)
       1 -82.9095       2 -82.9095



 E-fermi :  -5.3693     XC(G=0):  -0.2732     alpha+bet : -0.0465

 Fermi energy:        -5.3693399947

 k-point     1 :       0.0000    0.0000    0.0000
  band No.  band energies     occupation 
      1      -8.6402      2.00000
      2      -8.1597      2.00000
      3      -8.1597      2.00000
      4      -7.6691      2.00000
      5      -7.6691      2.00000
      6      -7.4846      2.00000
      7      -7.4846      2.00000
      8      -7.2452      2.00000
      9      -7.2452      2.00000
     10      -7.1055      2.00000
     11      -5.6329      2.00000
     12      -3.7237      0.00000
     13      -1.6073      0.00000
     14      -1.6059      0.00000
     15      -1.1056      0.00000
     16      -0.1654      0.00000
     17      -0.1472      0.00000
     18      -0.0976      0.00000
     19       0.1054      0.00000
     20       0.1507      0.00000
     21       0.1999      0.00000
     22       0.2410      0.00000
     23       0.2551      0.00000
     24       0.2639      0.00000
     25       0.4720      0.00000
     26       0.4784      0.00000
     27       0.4893      0.00000
     28       0.5192      0.00000
     29       0.5300      0.00000
     30       0.5382      0.00000
     31       0.5714      0.00000
     32       0.5726      0.00000
     33       0.5748      0.00000
     34       0.5917      0.00000
     35       0.6262      0.00000
     36       0.6602      0.00000
     37       0.8343      0.00000
     38       0.8433      0.00000
     39       0.8594      0.00000
     40       0.8640      0.00000
     41       0.8641      0.00000
     42       0.8848      0.00000
     43       0.9053      0.00000
     44       0.9780      0.00000
     45       0.9811      0.00000
     46       1.1143      0.00000
     47       1.1571      0.00000
     48       1.2023      0.00000
     49       1.2044      0.00000
     50       1.2528      0.00000
     51       1.3084      0.00000
     52       1.3326      0.00000
     53       1.3407      0.00000
     54       1.3971      0.00000
     55       1.3999      0.00000
     56       1.4163      0.00000
     57       1.4322      0.00000
     58       1.4579      0.00000
     59       1.4665      0.00000
     60       1.4942      0.00000
     61       1.5157      0.00000
     62       1.5404      0.00000
     63       1.5428      0.00000
     64       1.5610      0.00000


--------------------------------------------------------------------------------------------------------


 soft charge-density along one line, spin component           1
         0         1         2         3         4         5         6         7         8         9
 total charge-density along one line

 pseudopotential strength for first ion, spin component:           1
-10.488  -0.000  -0.023   0.000   0.000 -10.457  -0.000  -0.023
 -0.000 -10.464   0.000   0.017  -0.000  -0.000 -10.433   0.000
 -0.023   0.000 -10.461  -0.000   0.000  -0.023   0.000 -10.431
  0.000   0.017  -0.000 -10.464  -0.000   0.000   0.016  -0.000
  0.000  -0.000   0.000  -0.000 -10.480   0.000  -0.000   0.000
-10.457  -0.000  -0.023   0.000   0.000 -10.402  -0.000  -0.022
 -0.000 -10.433   0.000   0.016  -0.000  -0.000 -10.379   0.000
 -0.023   0.000 -10.431  -0.000   0.000  -0.022   0.000 -10.376
  0.000   0.016  -0.000 -10.433  -0.000   0.000   0.015  -0.000
  0.000  -0.000   0.000  -0.000 -10.449   0.000  -0.000   0.000
 -0.010  -0.000  -0.005   0.000  -0.000  -0.009  -0.000  -0.005
 -0.015  -0.000  -0.009   0.000  -0.000  -0.015  -0.000  -0.009
  0.021   0.000   0.012  -0.000   0.024   0.020   0.000   0.011
 -0.000  -0.024   0.000   0.024   0.000  -0.000  -0.023   0.000
 -0.021  -0.000  -0.012   0.000   0.024  -0.020  -0.000  -0.011
  0.025   0.000   0.015  -0.000   0.028   0.024   0.000   0.014
 -0.000  -0.028   0.000   0.028   0.000  -0.000  -0.027   0.000
 -0.025  -0.000  -0.015   0.000   0.028  -0.024  -0.000  -0.014
 total augmentation occupancy for first ion, spin component:           1
  2.454   0.000   0.175   0.000  -0.000  -0.525   0.000  -0.253   0.000   0.000   0.809  -0.122   0.081   0.000  -0.081   0.005
  0.000   2.205   0.000  -0.054   0.000   0.000  -0.171   0.000   0.086   0.000   0.000   0.000   0.000  -0.014   0.000   0.000
  0.175   0.000   2.252   0.000  -0.000  -0.253   0.000  -0.232   0.000   0.000   0.467  -0.071   0.047   0.000  -0.047   0.003
  0.000  -0.054   0.000   2.205   0.000   0.000   0.086   0.000  -0.171   0.000   0.000   0.000   0.000   0.014   0.000   0.000
 -0.000   0.000  -0.000   0.000   2.259   0.000   0.000   0.000   0.000  -0.257  -0.000   0.000   0.014   0.000   0.014   0.013
 -0.525   0.000  -0.253   0.000   0.000   0.573   0.000   0.323   0.000  -0.000  -0.654   0.080  -0.105   0.000   0.105   0.008
  0.000  -0.171   0.000   0.086   0.000   0.000   0.127   0.000  -0.114   0.000   0.000   0.000   0.000   0.026   0.000   0.000
 -0.253   0.000  -0.232   0.000   0.000   0.323   0.000   0.199   0.000  -0.000  -0.377   0.046  -0.060   0.000   0.060   0.004
  0.000   0.086   0.000  -0.171   0.000   0.000  -0.114   0.000   0.127   0.000   0.000   0.000   0.000  -0.026   0.000   0.000
  0.000   0.000   0.000   0.000  -0.257  -0.000   0.000  -0.000   0.000   0.241   0.000  -0.000  -0.026   0.000  -0.026   0.001
  0.809   0.000   0.467   0.000  -0.000  -0.654   0.000  -0.377   0.000   0.000   1.523  -0.127   0.145   0.000  -0.145  -0.009
 -0.122   0.000  -0.071   0.000   0.000   0.080   0.000   0.046   0.000  -0.000  -0.127   0.014  -0.015   0.000   0.015   0.001
  0.081   0.000   0.047   0.000   0.014  -0.105   0.000  -0.060   0.000  -0.026   0.145  -0.015   0.023   0.000  -0.017  -0.002
  0.000  -0.014   0.000   0.014   0.000   0.000   0.026   0.000  -0.026   0.000   0.000   0.000   0.000   0.006   0.000   0.000
 -0.081   0.000  -0.047   0.000   0.014   0.105   0.000   0.060   0.000  -0.026  -0.145   0.015  -0.017   0.000   0.023   0.001
  0.005   0.000   0.003   0.000   0.013   0.008   0.000   0.004   0.000   0.001  -0.009   0.001  -0.002   0.000   0.001   0.000
  0.000  -0.013   0.000   0.013   0.000   0.000  -0.001   0.000   0.001   0.000   0.000   0.000   0.000  -0.001   0.000   0.000
 -0.005   0.000  -0.003   0.000   0.013  -0.008   0.000  -0.004   0.000   0.001   0.009  -0.001   0.001   0.000  -0.002  -0.000


------------------------ aborting loop because EDIFF is reached ----------------------------------------


    FORLOC:  cpu time      0.0021: real time      0.0021
    FORNL :  cpu time      0.1175: real time      0.1176
    STRESS:  cpu time      0.3560: real time      0.3563
    FORCOR:  cpu time      1.6402: real time      1.6404
    OFIELD:  cpu time      0.0008: real time      0.0008

  FORCE on cell =-STRESS in cart. coord.  units (eV):
  Direction    XX          YY          ZZ          XY          YZ          ZX
  --------------------------------------------------------------------------------------
  Alpha Z     0.34431     0.34431     0.34431
  Ewald     192.18884   192.18884  -168.61343  -332.86766     0.00000    -0.00000
  Hartree   822.43969   822.43969   552.87078  -242.12412     0.00000    -0.00000
  E(xc)    -117.93999  -117.93999  -118.21435    -0.27439    -0.00000     0.00000
  Local   -1330.32513 -1330.32513  -705.38344   569.56331    -0.00000     0.00000
  n-local   -26.76384   -26.76383   -25.16655     1.59835     0.00000     0.00000
  augment   186.44300   186.44300   187.45842     1.01331     0.00000    -0.00000
  Kinetic   273.89261   273.89261   276.69598     2.80270    -0.00000    -0.00000
  Fock        0.00000     0.00000     0.00000     0.00000     0.00000     0.00000
  -------------------------------------------------------------------------------------
  Total       0.27949     0.27949    -0.00829    -0.28851     0.00000     0.00000
  in kB       0.04532     0.04532    -0.00134    -0.04678     0.00000     0.00000
  external pressure =        0.03 kB  Pullay stress =        0.00 kB


 VOLUME and BASIS-vectors are now :
 -----------------------------------------------------------------------------
  energy-cutoff  :      520.00
  volume of cell :     9881.61
      direct lattice vectors                 reciprocal lattice vectors
    21.138852197  0.000000000  0.000000000     0.047306258  0.000000000  0.000000000
     0.000000000 21.138852197  0.000000000     0.000000000  0.047306258  0.000000000
     0.000000000  0.000000000 22.113885220     0.000000000  0.000000000  0.045220457

  length of vectors
    21.138852197 21.138852197 22.113885220     0.047306258  0.047306258  0.045220457


 FORCES acting on ions:
    Electron-Ion                     Ewald-Force                    Non-Local-Force
 -----------------------------------------------------------------------------------------------
   -.187E+03 0.187E+03 0.134E-04   0.183E+03 -.183E+03 0.130E-16   0.446E+01 -.446E+01 -.324E-20
   0.187E+03 -.187E+03 0.134E-04   -.183E+03 0.183E+03 -.354E-16   -.446E+01 0.446E+01 0.145E-21
 -----------------------------------------------------------------------------------------------
   0.728E-06 0.737E-07 0.430E-04   0.000E+00 0.000E+00 -.224E-16   0.000E+00 0.000E+00 -.309E-20


 POSITION                                       TOTAL-FORCE (eV/Angst)
 -----------------------------------------------------------------------------------
     11.48398     11.76876     13.78517         0.153230     -0.153230     -0.000000
      9.65487     13.59787     13.78517        -0.153230      0.153230      0.000000
 -----------------------------------------------------------------------------------
    total drift:                                0.000001      0.000000      0.000043


--------------------------------------------------------------------------------------------------------



  FREE ENERGIE OF THE ION-ELECTRON SYSTEM (eV)
  ---------------------------------------------------
  free  energy   TOTEN  =         3.89591137 eV

  energy  without entropy=        3.89591137  energy(sigma->0) =        3.89591137



--------------------------------------------------------------------------------------------------------


    POTLOK:  cpu time      1.8320: real time      1.8323


--------------------------------------------------------------------------------------------------------


     LOOP+:  cpu time     85.1801: real time     85.3085
    4ORBIT:  cpu time      0.0000: real time      0.0000

 total amount of memory used by VASP MPI-rank0   125749. kBytes
=======================================================================

   base      :      30000. kBytes
   nonlr-proj:        645. kBytes
   fftplans  :      38424. kBytes
   grid      :      53473. kBytes
   one-center:         15. kBytes
   wavefun   :       3192. kBytes

  
  
 General timing and accounting informations for this job:
 ========================================================
  
                  Total CPU time used (sec):      100.564
                            User time (sec):       97.412
                          System time (sec):        3.151
                         Elapsed time (sec):      104.822
  
                   Maximum memory used (kb):      478124.
                   Average memory used (kb):          N/A
  
                          Minor page faults:        96048
                          Major page faults:            0
                 Voluntary context switches:         6659
