 **********************************************************************
                          MRCC program system
 **********************************************************************
 
                              Written by
     Mihaly Kallay, Peter R. Nagy, David Mester, Laszlo Gyevi-Nagy,
        Jozsef Csoka, P. Bernat Szabo, Zoltan Rolik, Gyula Samu,
     Jozsef Csontos, Bence Hegely, Adam Ganyecz, Istvan Ladjanszki,
       Lorant Szegedy, Bence Ladoczki, Klara Petrov, Mate Farkas,
                    Pal D. Mezei, and Reka A. Horvath
 
        Department of Physical Chemistry and Materials Science
            Budapest University of Technology and Economics
                  Budapest P.O.Box 91, H-1521 Hungary
 
                              www.mrcc.hu
 
                      Release date: March 18, 2022

 ************************ 2023-10-22 10:26:11 *************************
 Executing minp...

 Reading input from MINP...
 
 Input file:
 
calc=PBE0
verbosity=3
mem=220GB
symm=off
unit=angs
scfiguess=small
scfalg=locfit1
ECP=MCDHF-ECP-60
basis=bse_ACVQZ
basis_sm=def2-SVP
dfbasis_scf=def2-QZVPP-RI-JK
dfbasis_cor=bse_ACVQZ_mp2fit
scfalg=locfit1
core=0
unit=angs
geom=xyz
6
Au6_4
Au    -0.80316731    -3.07364402     0.86469980
Au     0.62331989     0.52111256    -1.06644071
Au    -0.62426563    -0.52097751     1.06855283
Au     0.44118648    -2.04313269    -1.26425621
Au     0.80355698     3.07353963    -0.86608743
Au    -0.44063041     2.04310203     1.26353173

ghost=serialno


 
 
 Checking keyword combinations...
 
 Keywords:
 
 active=none
 agrid=ld0006-ld0590
 agrid_pssp=ld0006-ld0194
 agrid_pssp_sm=ld0006-ld0074
 basis=bse_acvqz
 basis_sm=def2-svp
 basopt=off
 bfbasis=none
 bfgsmem=10
 bfgstol=1.0d-3
 bpcompo=0.985
 bpcompv=0.98
 bpdfo=0.985
 bpocc=0.985
 bppdo=0.985
 bppdv=0.98
 bpedo=0.985
 bpedv=0.98
 calc=scf
 ccmaxit=50
 ccprog=mrcc
 ccsdalg=disk
 ccsdmkl=seq
 ccsdrest=off
 ccsdthreads=2
 cctol=6
 charge=0
 cialg=disk
 ciguess=off
 cmpgrp=auto
 comprest=off
 core=corr
 corembed=off
 csapprox=off
 cvs=off
 dboc=off
 delocsomofact=
 dendec=cholesky
 dens=0
 dfalg=lineq
 dfbasis_cab=none
 dfbasis_cor=bse_acvqz_mp2fit
 dfbasis_scf=def2-qzvpp-ri-jk
 dfbasis_scf_sm=def2-qzvpp-ri-jk
 dfintran=drpa
 dft=pbe0
 dhexc=adc(2)
 diag=david
 docc=
 domrad=10.d0
 drpaalg=fit
 dual=off
 dual_df=off
 ecp=mcdhf-ecp-60
 edisp=off
 edisp_embed=off
 embed=off
 etemp=300
 epert=none
 eps=
 espcharge=off
 excrad=1.0
 excrad_fin=0.100000000D-02
 fitting=coulomb
 fmm=off
 fmmord=8
 freq=off
 gamma=1.d0
 gauss=spher
 geom=xyz
 gopt=off
 ghost=serialno
 gtol=7
 grdens=off
 gridbatch_cos=2000
 grtol=10
 guido_ct=off
 hamilton=dc
 iface=none
 intalg=auto
 itol=10
 laptol=1.d-2
 lccoporder=trffirst
 lcorthr=normal
 lccrest=off
 lmp2dens=on
 lnoepso=0.d0
 lnoepsv=1e-6
 boysalg=jacobi
 localcc=off
 localcorrsymm=off
 locintrf=disk
 mact=
 maxact=off
 maxdim=100
 maxex=0
 maxmicroit=100
 mcscfiguess=hf
 mem=220gb
 mmprog=
 molden=on
 mpitasks=1
 mulmet=0
 mult=
 nacto=0
 nactv=0
 naf_amp=1.d-2
 naf_cor=off
 naf_scf=off
 nafalg=albe
 naftyp=
 nchol=auto
 ndeps=1e-3
 nstate=1
 nsing=0
 nto=off
 ntrip=0
 occ=
 occri=off
 oniom=off
 oniom_eechg=off
 oniom_pcm=off
 oniom_qcorr=off
 optalg=
 optmaxit=50
 optetol=1e-6
 optex=0
 optgtol=1e-4
 optstol=1e-3
 orblocc=off
 orbloce=off
 orbloco=off
 orblocv=off
 orblocguess=cholesky
 osveps=1e-3
 ovirt=off
 ovltol=1e-7
 ovosnorb=80.0
 pcm=off
 popul=off
 pressure=100000
 pssp=off
 ptfreq=0.0
 ptthreads=2
 qro=off
 qscf=off
 qmmm=off
 redcost_exc=off
 redcost_tddft=off
 refdet=none
 rest=0
 rgrid=log3
 rism=off
 rohfcore=semicanonical
 rohftype=standard
 scfalg=locfit1
 scf_conv=difficult
 scfdamp=0.7d0
 scfdamp_mode=1
 scfdamp_end=3
 scfdamp_dampstep=0.d0
 scfdamp_dtol=0.0d0
 scfdamp_maxfact=0.7d0
 scfdamp_minfact=0.7d0
 scfdiis=on
 scfdiis_dtol=0.0d0
 scfdiis_end=50
 scfdiis_start=2
 scfdiis_step=1
 scfdiis_watch=off
 scfdiis_wrange=10
 scfdiis_wlimit=5
 scfdiis_delmax=2
 scfdtol=6
 scfext=10
 scfguessdens=
 scfiguess=small
 scfloc=pm
 scflshift=0.20
 scflshift_end=8
 scflshift_dtol=0.0
 scflshift_gaptol=0.20
 scfmaxit=50
 scftype=
 scftol=6
 scspe=1.d0
 scsph=1.d0
 scsps=1.2d0
 scsps_t=1.2d0
 scspt=0.33333333333333
 scspt_t=0.33333333333333
 scspv=1.d0
 spairtol=1e-4
 sqmprog=
 subminp=top
 symm=0
 talg=occ
 temp=298.15
 test=off
 theodore=off
 tlmo=0.999
 tpao=0.94
 tprint=off
 uncontract=off
 unit=angs
 usedisk=2
 verbosity=3
 wpairtol=0.100000000E-05
 
 Calculating integrals for small-basis SCF...

 ************************ 2023-10-22 10:26:12 *************************
 Executing integ...

 Allocation of 220.0 Gbytes of memory...
 
 
 Number of atoms:                  6
 Charge:                           0
 Number of electrons:            114
 Number of core electrons:         0
 Spin multiplicity:                1
 
                 Cartesian coordinates [bohr]      Atomic mass [AMU]  Z
   1  Au   -1.51776625   -5.80834540    1.63404580   196.966543      79
   2  Au    1.17790388    0.98476002   -2.01528087   196.966543      79
   3  Au   -1.17969107   -0.98450481    2.01927220   196.966543      79
   4  Au    0.83372162   -3.86096122   -2.38909799   196.966543      79
   5  Au    1.51850262    5.80814814   -1.63666804   196.966543      79
   6  Au   -0.83267080    3.86090328    2.38772892   196.966543      79
 
 This molecule is an asymmetric top.
 This molecule is planar.
 
 Point group: C1  
 Computational point group: C1  
 
 Cartesian coordinates in standard orientation [bohr]
   1  Au    6.09228135   -1.26281594   -0.00055855
   2  Au   -1.32528070    2.15921230   -0.00042783
   3  Au    1.32565004   -2.16356937    0.00069107
   4  Au    3.46481187    3.05040670    0.00042604
   5  Au   -6.09242669    1.26548581    0.00000358
   6  Au   -3.46503588   -3.04871949   -0.00013431
 
 Nuclear repulsion energy [au]:        870.088190829290
 
 
 Basis set information:
 
 Maximum angular momentum: i
 Maximum number of contracted Gaussians:   13
 Maximum number of primitive Gaussians:    13
 Spherical harmonic GTOs are used.
 
 
 Conventional basis set:
 
   1  Au def2-svp [ 7s 6p 5d 1f | 6s 3p 2d 1f ]
   2  Au def2-svp [ 7s 6p 5d 1f | 6s 3p 2d 1f ]
   3  Au def2-svp [ 7s 6p 5d 1f | 6s 3p 2d 1f ]
   4  Au def2-svp [ 7s 6p 5d 1f | 6s 3p 2d 1f ]
   5  Au def2-svp [ 7s 6p 5d 1f | 6s 3p 2d 1f ]
   6  Au def2-svp [ 7s 6p 5d 1f | 6s 3p 2d 1f ]
 
 Basis functions:
            1             2             3             4             5             6             7             8             9            10
    0    1Au1s         1Au2s         1Au3s         1Au4s         1Au5s         1Au6s         1Au1pz        1Au1py        1Au1px        1Au2pz    
    1    1Au2py        1Au2px        1Au3pz        1Au3py        1Au3px        1Au1d-2       1Au1d-1       1Au1d0        1Au1d+1       1Au1d+2   
    2    1Au2d-2       1Au2d-1       1Au2d0        1Au2d+1       1Au2d+2       1Au1f-3       1Au1f-2       1Au1f-1       1Au1f0        1Au1f+1   
    3    1Au1f+2       1Au1f+3       2Au1s         2Au2s         2Au3s         2Au4s         2Au5s         2Au6s         2Au1pz        2Au1py    
    4    2Au1px        2Au2pz        2Au2py        2Au2px        2Au3pz        2Au3py        2Au3px        2Au1d-2       2Au1d-1       2Au1d0    
    5    2Au1d+1       2Au1d+2       2Au2d-2       2Au2d-1       2Au2d0        2Au2d+1       2Au2d+2       2Au1f-3       2Au1f-2       2Au1f-1   
    6    2Au1f0        2Au1f+1       2Au1f+2       2Au1f+3       3Au1s         3Au2s         3Au3s         3Au4s         3Au5s         3Au6s     
    7    3Au1pz        3Au1py        3Au1px        3Au2pz        3Au2py        3Au2px        3Au3pz        3Au3py        3Au3px        3Au1d-2   
    8    3Au1d-1       3Au1d0        3Au1d+1       3Au1d+2       3Au2d-2       3Au2d-1       3Au2d0        3Au2d+1       3Au2d+2       3Au1f-3   
    9    3Au1f-2       3Au1f-1       3Au1f0        3Au1f+1       3Au1f+2       3Au1f+3       4Au1s         4Au2s         4Au3s         4Au4s     
   10    4Au5s         4Au6s         4Au1pz        4Au1py        4Au1px        4Au2pz        4Au2py        4Au2px        4Au3pz        4Au3py    
   11    4Au3px        4Au1d-2       4Au1d-1       4Au1d0        4Au1d+1       4Au1d+2       4Au2d-2       4Au2d-1       4Au2d0        4Au2d+1   
   12    4Au2d+2       4Au1f-3       4Au1f-2       4Au1f-1       4Au1f0        4Au1f+1       4Au1f+2       4Au1f+3       5Au1s         5Au2s     
   13    5Au3s         5Au4s         5Au5s         5Au6s         5Au1pz        5Au1py        5Au1px        5Au2pz        5Au2py        5Au2px    
   14    5Au3pz        5Au3py        5Au3px        5Au1d-2       5Au1d-1       5Au1d0        5Au1d+1       5Au1d+2       5Au2d-2       5Au2d-1   
   15    5Au2d0        5Au2d+1       5Au2d+2       5Au1f-3       5Au1f-2       5Au1f-1       5Au1f0        5Au1f+1       5Au1f+2       5Au1f+3   
   16    6Au1s         6Au2s         6Au3s         6Au4s         6Au5s         6Au6s         6Au1pz        6Au1py        6Au1px        6Au2pz    
   17    6Au2py        6Au2px        6Au3pz        6Au3py        6Au3px        6Au1d-2       6Au1d-1       6Au1d0        6Au1d+1       6Au1d+2   
   18    6Au2d-2       6Au2d-1       6Au2d0        6Au2d+1       6Au2d+2       6Au1f-3       6Au1f-2       6Au1f-1       6Au1f0        6Au1f+1   
   19    6Au1f+2       6Au1f+3   
 
 Maximum number of basis functions per shell:   10
 Total number of basis functions:    192
 
 
 Fitting basis set for the SCF calculation:
 
   1  Au def2-qzvpp-ri-jk [ 13s 12p 11d 9f 5g 3h 2i | 13s 11p 10d 8f 4g 3h 2i ]
   2  Au def2-qzvpp-ri-jk [ 13s 12p 11d 9f 5g 3h 2i | 13s 11p 10d 8f 4g 3h 2i ]
   3  Au def2-qzvpp-ri-jk [ 13s 12p 11d 9f 5g 3h 2i | 13s 11p 10d 8f 4g 3h 2i ]
   4  Au def2-qzvpp-ri-jk [ 13s 12p 11d 9f 5g 3h 2i | 13s 11p 10d 8f 4g 3h 2i ]
   5  Au def2-qzvpp-ri-jk [ 13s 12p 11d 9f 5g 3h 2i | 13s 11p 10d 8f 4g 3h 2i ]
   6  Au def2-qzvpp-ri-jk [ 13s 12p 11d 9f 5g 3h 2i | 13s 11p 10d 8f 4g 3h 2i ]
 
 Basis functions:
            1             2             3             4             5             6             7             8             9            10
    0    1Au1s         1Au2s         1Au3s         1Au4s         1Au5s         1Au6s         1Au7s         1Au8s         1Au9s         1Au10s    
    1    1Au11s        1Au12s        1Au13s        1Au1pz        1Au1py        1Au1px        1Au2pz        1Au2py        1Au2px        1Au3pz    
    2    1Au3py        1Au3px        1Au4pz        1Au4py        1Au4px        1Au5pz        1Au5py        1Au5px        1Au6pz        1Au6py    
    3    1Au6px        1Au7pz        1Au7py        1Au7px        1Au8pz        1Au8py        1Au8px        1Au9pz        1Au9py        1Au9px    
    4    1Au10pz       1Au10py       1Au10px       1Au11pz       1Au11py       1Au11px       1Au1d-2       1Au1d-1       1Au1d0        1Au1d+1   
    5    1Au1d+2       1Au2d-2       1Au2d-1       1Au2d0        1Au2d+1       1Au2d+2       1Au3d-2       1Au3d-1       1Au3d0        1Au3d+1   
    6    1Au3d+2       1Au4d-2       1Au4d-1       1Au4d0        1Au4d+1       1Au4d+2       1Au5d-2       1Au5d-1       1Au5d0        1Au5d+1   
    7    1Au5d+2       1Au6d-2       1Au6d-1       1Au6d0        1Au6d+1       1Au6d+2       1Au7d-2       1Au7d-1       1Au7d0        1Au7d+1   
    8    1Au7d+2       1Au8d-2       1Au8d-1       1Au8d0        1Au8d+1       1Au8d+2       1Au9d-2       1Au9d-1       1Au9d0        1Au9d+1   
    9    1Au9d+2       1Au10d-2      1Au10d-1      1Au10d0       1Au10d+1      1Au10d+2      1Au1f-3       1Au1f-2       1Au1f-1       1Au1f0    
   10    1Au1f+1       1Au1f+2       1Au1f+3       1Au2f-3       1Au2f-2       1Au2f-1       1Au2f0        1Au2f+1       1Au2f+2       1Au2f+3   
   11    1Au3f-3       1Au3f-2       1Au3f-1       1Au3f0        1Au3f+1       1Au3f+2       1Au3f+3       1Au4f-3       1Au4f-2       1Au4f-1   
   12    1Au4f0        1Au4f+1       1Au4f+2       1Au4f+3       1Au5f-3       1Au5f-2       1Au5f-1       1Au5f0        1Au5f+1       1Au5f+2   
   13    1Au5f+3       1Au6f-3       1Au6f-2       1Au6f-1       1Au6f0        1Au6f+1       1Au6f+2       1Au6f+3       1Au7f-3       1Au7f-2   
   14    1Au7f-1       1Au7f0        1Au7f+1       1Au7f+2       1Au7f+3       1Au8f-3       1Au8f-2       1Au8f-1       1Au8f0        1Au8f+1   
   15    1Au8f+2       1Au8f+3       1Au1g-4       1Au1g-3       1Au1g-2       1Au1g-1       1Au1g0        1Au1g+1       1Au1g+2       1Au1g+3   
   16    1Au1g+4       1Au2g-4       1Au2g-3       1Au2g-2       1Au2g-1       1Au2g0        1Au2g+1       1Au2g+2       1Au2g+3       1Au2g+4   
   17    1Au3g-4       1Au3g-3       1Au3g-2       1Au3g-1       1Au3g0        1Au3g+1       1Au3g+2       1Au3g+3       1Au3g+4       1Au4g-4   
   18    1Au4g-3       1Au4g-2       1Au4g-1       1Au4g0        1Au4g+1       1Au4g+2       1Au4g+3       1Au4g+4       1Au1h-5       1Au1h-4   
   19    1Au1h-3       1Au1h-2       1Au1h-1       1Au1h0        1Au1h+1       1Au1h+2       1Au1h+3       1Au1h+4       1Au1h+5       1Au2h-5   
   20    1Au2h-4       1Au2h-3       1Au2h-2       1Au2h-1       1Au2h0        1Au2h+1       1Au2h+2       1Au2h+3       1Au2h+4       1Au2h+5   
   21    1Au3h-5       1Au3h-4       1Au3h-3       1Au3h-2       1Au3h-1       1Au3h0        1Au3h+1       1Au3h+2       1Au3h+3       1Au3h+4   
   22    1Au3h+5       1Au1i-6       1Au1i-5       1Au1i-4       1Au1i-3       1Au1i-2       1Au1i-1       1Au1i0        1Au1i+1       1Au1i+2   
   23    1Au1i+3       1Au1i+4       1Au1i+5       1Au1i+6       1Au2i-6       1Au2i-5       1Au2i-4       1Au2i-3       1Au2i-2       1Au2i-1   
   24    1Au2i0        1Au2i+1       1Au2i+2       1Au2i+3       1Au2i+4       1Au2i+5       1Au2i+6       2Au1s         2Au2s         2Au3s     
   25    2Au4s         2Au5s         2Au6s         2Au7s         2Au8s         2Au9s         2Au10s        2Au11s        2Au12s        2Au13s    
   26    2Au1pz        2Au1py        2Au1px        2Au2pz        2Au2py        2Au2px        2Au3pz        2Au3py        2Au3px        2Au4pz    
   27    2Au4py        2Au4px        2Au5pz        2Au5py        2Au5px        2Au6pz        2Au6py        2Au6px        2Au7pz        2Au7py    
   28    2Au7px        2Au8pz        2Au8py        2Au8px        2Au9pz        2Au9py        2Au9px        2Au10pz       2Au10py       2Au10px   
   29    2Au11pz       2Au11py       2Au11px       2Au1d-2       2Au1d-1       2Au1d0        2Au1d+1       2Au1d+2       2Au2d-2       2Au2d-1   
   30    2Au2d0        2Au2d+1       2Au2d+2       2Au3d-2       2Au3d-1       2Au3d0        2Au3d+1       2Au3d+2       2Au4d-2       2Au4d-1   
   31    2Au4d0        2Au4d+1       2Au4d+2       2Au5d-2       2Au5d-1       2Au5d0        2Au5d+1       2Au5d+2       2Au6d-2       2Au6d-1   
   32    2Au6d0        2Au6d+1       2Au6d+2       2Au7d-2       2Au7d-1       2Au7d0        2Au7d+1       2Au7d+2       2Au8d-2       2Au8d-1   
   33    2Au8d0        2Au8d+1       2Au8d+2       2Au9d-2       2Au9d-1       2Au9d0        2Au9d+1       2Au9d+2       2Au10d-2      2Au10d-1  
   34    2Au10d0       2Au10d+1      2Au10d+2      2Au1f-3       2Au1f-2       2Au1f-1       2Au1f0        2Au1f+1       2Au1f+2       2Au1f+3   
   35    2Au2f-3       2Au2f-2       2Au2f-1       2Au2f0        2Au2f+1       2Au2f+2       2Au2f+3       2Au3f-3       2Au3f-2       2Au3f-1   
   36    2Au3f0        2Au3f+1       2Au3f+2       2Au3f+3       2Au4f-3       2Au4f-2       2Au4f-1       2Au4f0        2Au4f+1       2Au4f+2   
   37    2Au4f+3       2Au5f-3       2Au5f-2       2Au5f-1       2Au5f0        2Au5f+1       2Au5f+2       2Au5f+3       2Au6f-3       2Au6f-2   
   38    2Au6f-1       2Au6f0        2Au6f+1       2Au6f+2       2Au6f+3       2Au7f-3       2Au7f-2       2Au7f-1       2Au7f0        2Au7f+1   
   39    2Au7f+2       2Au7f+3       2Au8f-3       2Au8f-2       2Au8f-1       2Au8f0        2Au8f+1       2Au8f+2       2Au8f+3       2Au1g-4   
   40    2Au1g-3       2Au1g-2       2Au1g-1       2Au1g0        2Au1g+1       2Au1g+2       2Au1g+3       2Au1g+4       2Au2g-4       2Au2g-3   
   41    2Au2g-2       2Au2g-1       2Au2g0        2Au2g+1       2Au2g+2       2Au2g+3       2Au2g+4       2Au3g-4       2Au3g-3       2Au3g-2   
   42    2Au3g-1       2Au3g0        2Au3g+1       2Au3g+2       2Au3g+3       2Au3g+4       2Au4g-4       2Au4g-3       2Au4g-2       2Au4g-1   
   43    2Au4g0        2Au4g+1       2Au4g+2       2Au4g+3       2Au4g+4       2Au1h-5       2Au1h-4       2Au1h-3       2Au1h-2       2Au1h-1   
   44    2Au1h0        2Au1h+1       2Au1h+2       2Au1h+3       2Au1h+4       2Au1h+5       2Au2h-5       2Au2h-4       2Au2h-3       2Au2h-2   
   45    2Au2h-1       2Au2h0        2Au2h+1       2Au2h+2       2Au2h+3       2Au2h+4       2Au2h+5       2Au3h-5       2Au3h-4       2Au3h-3   
   46    2Au3h-2       2Au3h-1       2Au3h0        2Au3h+1       2Au3h+2       2Au3h+3       2Au3h+4       2Au3h+5       2Au1i-6       2Au1i-5   
   47    2Au1i-4       2Au1i-3       2Au1i-2       2Au1i-1       2Au1i0        2Au1i+1       2Au1i+2       2Au1i+3       2Au1i+4       2Au1i+5   
   48    2Au1i+6       2Au2i-6       2Au2i-5       2Au2i-4       2Au2i-3       2Au2i-2       2Au2i-1       2Au2i0        2Au2i+1       2Au2i+2   
   49    2Au2i+3       2Au2i+4       2Au2i+5       2Au2i+6       3Au1s         3Au2s         3Au3s         3Au4s         3Au5s         3Au6s     
   50    3Au7s         3Au8s         3Au9s         3Au10s        3Au11s        3Au12s        3Au13s        3Au1pz        3Au1py        3Au1px    
   51    3Au2pz        3Au2py        3Au2px        3Au3pz        3Au3py        3Au3px        3Au4pz        3Au4py        3Au4px        3Au5pz    
   52    3Au5py        3Au5px        3Au6pz        3Au6py        3Au6px        3Au7pz        3Au7py        3Au7px        3Au8pz        3Au8py    
   53    3Au8px        3Au9pz        3Au9py        3Au9px        3Au10pz       3Au10py       3Au10px       3Au11pz       3Au11py       3Au11px   
   54    3Au1d-2       3Au1d-1       3Au1d0        3Au1d+1       3Au1d+2       3Au2d-2       3Au2d-1       3Au2d0        3Au2d+1       3Au2d+2   
   55    3Au3d-2       3Au3d-1       3Au3d0        3Au3d+1       3Au3d+2       3Au4d-2       3Au4d-1       3Au4d0        3Au4d+1       3Au4d+2   
   56    3Au5d-2       3Au5d-1       3Au5d0        3Au5d+1       3Au5d+2       3Au6d-2       3Au6d-1       3Au6d0        3Au6d+1       3Au6d+2   
   57    3Au7d-2       3Au7d-1       3Au7d0        3Au7d+1       3Au7d+2       3Au8d-2       3Au8d-1       3Au8d0        3Au8d+1       3Au8d+2   
   58    3Au9d-2       3Au9d-1       3Au9d0        3Au9d+1       3Au9d+2       3Au10d-2      3Au10d-1      3Au10d0       3Au10d+1      3Au10d+2  
   59    3Au1f-3       3Au1f-2       3Au1f-1       3Au1f0        3Au1f+1       3Au1f+2       3Au1f+3       3Au2f-3       3Au2f-2       3Au2f-1   
   60    3Au2f0        3Au2f+1       3Au2f+2       3Au2f+3       3Au3f-3       3Au3f-2       3Au3f-1       3Au3f0        3Au3f+1       3Au3f+2   
   61    3Au3f+3       3Au4f-3       3Au4f-2       3Au4f-1       3Au4f0        3Au4f+1       3Au4f+2       3Au4f+3       3Au5f-3       3Au5f-2   
   62    3Au5f-1       3Au5f0        3Au5f+1       3Au5f+2       3Au5f+3       3Au6f-3       3Au6f-2       3Au6f-1       3Au6f0        3Au6f+1   
   63    3Au6f+2       3Au6f+3       3Au7f-3       3Au7f-2       3Au7f-1       3Au7f0        3Au7f+1       3Au7f+2       3Au7f+3       3Au8f-3   
   64    3Au8f-2       3Au8f-1       3Au8f0        3Au8f+1       3Au8f+2       3Au8f+3       3Au1g-4       3Au1g-3       3Au1g-2       3Au1g-1   
   65    3Au1g0        3Au1g+1       3Au1g+2       3Au1g+3       3Au1g+4       3Au2g-4       3Au2g-3       3Au2g-2       3Au2g-1       3Au2g0    
   66    3Au2g+1       3Au2g+2       3Au2g+3       3Au2g+4       3Au3g-4       3Au3g-3       3Au3g-2       3Au3g-1       3Au3g0        3Au3g+1   
   67    3Au3g+2       3Au3g+3       3Au3g+4       3Au4g-4       3Au4g-3       3Au4g-2       3Au4g-1       3Au4g0        3Au4g+1       3Au4g+2   
   68    3Au4g+3       3Au4g+4       3Au1h-5       3Au1h-4       3Au1h-3       3Au1h-2       3Au1h-1       3Au1h0        3Au1h+1       3Au1h+2   
   69    3Au1h+3       3Au1h+4       3Au1h+5       3Au2h-5       3Au2h-4       3Au2h-3       3Au2h-2       3Au2h-1       3Au2h0        3Au2h+1   
   70    3Au2h+2       3Au2h+3       3Au2h+4       3Au2h+5       3Au3h-5       3Au3h-4       3Au3h-3       3Au3h-2       3Au3h-1       3Au3h0    
   71    3Au3h+1       3Au3h+2       3Au3h+3       3Au3h+4       3Au3h+5       3Au1i-6       3Au1i-5       3Au1i-4       3Au1i-3       3Au1i-2   
   72    3Au1i-1       3Au1i0        3Au1i+1       3Au1i+2       3Au1i+3       3Au1i+4       3Au1i+5       3Au1i+6       3Au2i-6       3Au2i-5   
   73    3Au2i-4       3Au2i-3       3Au2i-2       3Au2i-1       3Au2i0        3Au2i+1       3Au2i+2       3Au2i+3       3Au2i+4       3Au2i+5   
   74    3Au2i+6       4Au1s         4Au2s         4Au3s         4Au4s         4Au5s         4Au6s         4Au7s         4Au8s         4Au9s     
   75    4Au10s        4Au11s        4Au12s        4Au13s        4Au1pz        4Au1py        4Au1px        4Au2pz        4Au2py        4Au2px    
   76    4Au3pz        4Au3py        4Au3px        4Au4pz        4Au4py        4Au4px        4Au5pz        4Au5py        4Au5px        4Au6pz    
   77    4Au6py        4Au6px        4Au7pz        4Au7py        4Au7px        4Au8pz        4Au8py        4Au8px        4Au9pz        4Au9py    
   78    4Au9px        4Au10pz       4Au10py       4Au10px       4Au11pz       4Au11py       4Au11px       4Au1d-2       4Au1d-1       4Au1d0    
   79    4Au1d+1       4Au1d+2       4Au2d-2       4Au2d-1       4Au2d0        4Au2d+1       4Au2d+2       4Au3d-2       4Au3d-1       4Au3d0    
   80    4Au3d+1       4Au3d+2       4Au4d-2       4Au4d-1       4Au4d0        4Au4d+1       4Au4d+2       4Au5d-2       4Au5d-1       4Au5d0    
   81    4Au5d+1       4Au5d+2       4Au6d-2       4Au6d-1       4Au6d0        4Au6d+1       4Au6d+2       4Au7d-2       4Au7d-1       4Au7d0    
   82    4Au7d+1       4Au7d+2       4Au8d-2       4Au8d-1       4Au8d0        4Au8d+1       4Au8d+2       4Au9d-2       4Au9d-1       4Au9d0    
   83    4Au9d+1       4Au9d+2       4Au10d-2      4Au10d-1      4Au10d0       4Au10d+1      4Au10d+2      4Au1f-3       4Au1f-2       4Au1f-1   
   84    4Au1f0        4Au1f+1       4Au1f+2       4Au1f+3       4Au2f-3       4Au2f-2       4Au2f-1       4Au2f0        4Au2f+1       4Au2f+2   
   85    4Au2f+3       4Au3f-3       4Au3f-2       4Au3f-1       4Au3f0        4Au3f+1       4Au3f+2       4Au3f+3       4Au4f-3       4Au4f-2   
   86    4Au4f-1       4Au4f0        4Au4f+1       4Au4f+2       4Au4f+3       4Au5f-3       4Au5f-2       4Au5f-1       4Au5f0        4Au5f+1   
   87    4Au5f+2       4Au5f+3       4Au6f-3       4Au6f-2       4Au6f-1       4Au6f0        4Au6f+1       4Au6f+2       4Au6f+3       4Au7f-3   
   88    4Au7f-2       4Au7f-1       4Au7f0        4Au7f+1       4Au7f+2       4Au7f+3       4Au8f-3       4Au8f-2       4Au8f-1       4Au8f0    
   89    4Au8f+1       4Au8f+2       4Au8f+3       4Au1g-4       4Au1g-3       4Au1g-2       4Au1g-1       4Au1g0        4Au1g+1       4Au1g+2   
   90    4Au1g+3       4Au1g+4       4Au2g-4       4Au2g-3       4Au2g-2       4Au2g-1       4Au2g0        4Au2g+1       4Au2g+2       4Au2g+3   
   91    4Au2g+4       4Au3g-4       4Au3g-3       4Au3g-2       4Au3g-1       4Au3g0        4Au3g+1       4Au3g+2       4Au3g+3       4Au3g+4   
   92    4Au4g-4       4Au4g-3       4Au4g-2       4Au4g-1       4Au4g0        4Au4g+1       4Au4g+2       4Au4g+3       4Au4g+4       4Au1h-5   
   93    4Au1h-4       4Au1h-3       4Au1h-2       4Au1h-1       4Au1h0        4Au1h+1       4Au1h+2       4Au1h+3       4Au1h+4       4Au1h+5   
   94    4Au2h-5       4Au2h-4       4Au2h-3       4Au2h-2       4Au2h-1       4Au2h0        4Au2h+1       4Au2h+2       4Au2h+3       4Au2h+4   
   95    4Au2h+5       4Au3h-5       4Au3h-4       4Au3h-3       4Au3h-2       4Au3h-1       4Au3h0        4Au3h+1       4Au3h+2       4Au3h+3   
   96    4Au3h+4       4Au3h+5       4Au1i-6       4Au1i-5       4Au1i-4       4Au1i-3       4Au1i-2       4Au1i-1       4Au1i0        4Au1i+1   
   97    4Au1i+2       4Au1i+3       4Au1i+4       4Au1i+5       4Au1i+6       4Au2i-6       4Au2i-5       4Au2i-4       4Au2i-3       4Au2i-2   
   98    4Au2i-1       4Au2i0        4Au2i+1       4Au2i+2       4Au2i+3       4Au2i+4       4Au2i+5       4Au2i+6       5Au1s         5Au2s     
   99    5Au3s         5Au4s         5Au5s         5Au6s         5Au7s         5Au8s         5Au9s         5Au10s        5Au11s        5Au12s    
  100    5Au13s        5Au1pz        5Au1py        5Au1px        5Au2pz        5Au2py        5Au2px        5Au3pz        5Au3py        5Au3px    
  101    5Au4pz        5Au4py        5Au4px        5Au5pz        5Au5py        5Au5px        5Au6pz        5Au6py        5Au6px        5Au7pz    
  102    5Au7py        5Au7px        5Au8pz        5Au8py        5Au8px        5Au9pz        5Au9py        5Au9px        5Au10pz       5Au10py   
  103    5Au10px       5Au11pz       5Au11py       5Au11px       5Au1d-2       5Au1d-1       5Au1d0        5Au1d+1       5Au1d+2       5Au2d-2   
  104    5Au2d-1       5Au2d0        5Au2d+1       5Au2d+2       5Au3d-2       5Au3d-1       5Au3d0        5Au3d+1       5Au3d+2       5Au4d-2   
  105    5Au4d-1       5Au4d0        5Au4d+1       5Au4d+2       5Au5d-2       5Au5d-1       5Au5d0        5Au5d+1       5Au5d+2       5Au6d-2   
  106    5Au6d-1       5Au6d0        5Au6d+1       5Au6d+2       5Au7d-2       5Au7d-1       5Au7d0        5Au7d+1       5Au7d+2       5Au8d-2   
  107    5Au8d-1       5Au8d0        5Au8d+1       5Au8d+2       5Au9d-2       5Au9d-1       5Au9d0        5Au9d+1       5Au9d+2       5Au10d-2  
  108    5Au10d-1      5Au10d0       5Au10d+1      5Au10d+2      5Au1f-3       5Au1f-2       5Au1f-1       5Au1f0        5Au1f+1       5Au1f+2   
  109    5Au1f+3       5Au2f-3       5Au2f-2       5Au2f-1       5Au2f0        5Au2f+1       5Au2f+2       5Au2f+3       5Au3f-3       5Au3f-2   
  110    5Au3f-1       5Au3f0        5Au3f+1       5Au3f+2       5Au3f+3       5Au4f-3       5Au4f-2       5Au4f-1       5Au4f0        5Au4f+1   
  111    5Au4f+2       5Au4f+3       5Au5f-3       5Au5f-2       5Au5f-1       5Au5f0        5Au5f+1       5Au5f+2       5Au5f+3       5Au6f-3   
  112    5Au6f-2       5Au6f-1       5Au6f0        5Au6f+1       5Au6f+2       5Au6f+3       5Au7f-3       5Au7f-2       5Au7f-1       5Au7f0    
  113    5Au7f+1       5Au7f+2       5Au7f+3       5Au8f-3       5Au8f-2       5Au8f-1       5Au8f0        5Au8f+1       5Au8f+2       5Au8f+3   
  114    5Au1g-4       5Au1g-3       5Au1g-2       5Au1g-1       5Au1g0        5Au1g+1       5Au1g+2       5Au1g+3       5Au1g+4       5Au2g-4   
  115    5Au2g-3       5Au2g-2       5Au2g-1       5Au2g0        5Au2g+1       5Au2g+2       5Au2g+3       5Au2g+4       5Au3g-4       5Au3g-3   
  116    5Au3g-2       5Au3g-1       5Au3g0        5Au3g+1       5Au3g+2       5Au3g+3       5Au3g+4       5Au4g-4       5Au4g-3       5Au4g-2   
  117    5Au4g-1       5Au4g0        5Au4g+1       5Au4g+2       5Au4g+3       5Au4g+4       5Au1h-5       5Au1h-4       5Au1h-3       5Au1h-2   
  118    5Au1h-1       5Au1h0        5Au1h+1       5Au1h+2       5Au1h+3       5Au1h+4       5Au1h+5       5Au2h-5       5Au2h-4       5Au2h-3   
  119    5Au2h-2       5Au2h-1       5Au2h0        5Au2h+1       5Au2h+2       5Au2h+3       5Au2h+4       5Au2h+5       5Au3h-5       5Au3h-4   
  120    5Au3h-3       5Au3h-2       5Au3h-1       5Au3h0        5Au3h+1       5Au3h+2       5Au3h+3       5Au3h+4       5Au3h+5       5Au1i-6   
  121    5Au1i-5       5Au1i-4       5Au1i-3       5Au1i-2       5Au1i-1       5Au1i0        5Au1i+1       5Au1i+2       5Au1i+3       5Au1i+4   
  122    5Au1i+5       5Au1i+6       5Au2i-6       5Au2i-5       5Au2i-4       5Au2i-3       5Au2i-2       5Au2i-1       5Au2i0        5Au2i+1   
  123    5Au2i+2       5Au2i+3       5Au2i+4       5Au2i+5       5Au2i+6       6Au1s         6Au2s         6Au3s         6Au4s         6Au5s     
  124    6Au6s         6Au7s         6Au8s         6Au9s         6Au10s        6Au11s        6Au12s        6Au13s        6Au1pz        6Au1py    
  125    6Au1px        6Au2pz        6Au2py        6Au2px        6Au3pz        6Au3py        6Au3px        6Au4pz        6Au4py        6Au4px    
  126    6Au5pz        6Au5py        6Au5px        6Au6pz        6Au6py        6Au6px        6Au7pz        6Au7py        6Au7px        6Au8pz    
  127    6Au8py        6Au8px        6Au9pz        6Au9py        6Au9px        6Au10pz       6Au10py       6Au10px       6Au11pz       6Au11py   
  128    6Au11px       6Au1d-2       6Au1d-1       6Au1d0        6Au1d+1       6Au1d+2       6Au2d-2       6Au2d-1       6Au2d0        6Au2d+1   
  129    6Au2d+2       6Au3d-2       6Au3d-1       6Au3d0        6Au3d+1       6Au3d+2       6Au4d-2       6Au4d-1       6Au4d0        6Au4d+1   
  130    6Au4d+2       6Au5d-2       6Au5d-1       6Au5d0        6Au5d+1       6Au5d+2       6Au6d-2       6Au6d-1       6Au6d0        6Au6d+1   
  131    6Au6d+2       6Au7d-2       6Au7d-1       6Au7d0        6Au7d+1       6Au7d+2       6Au8d-2       6Au8d-1       6Au8d0        6Au8d+1   
  132    6Au8d+2       6Au9d-2       6Au9d-1       6Au9d0        6Au9d+1       6Au9d+2       6Au10d-2      6Au10d-1      6Au10d0       6Au10d+1  
  133    6Au10d+2      6Au1f-3       6Au1f-2       6Au1f-1       6Au1f0        6Au1f+1       6Au1f+2       6Au1f+3       6Au2f-3       6Au2f-2   
  134    6Au2f-1       6Au2f0        6Au2f+1       6Au2f+2       6Au2f+3       6Au3f-3       6Au3f-2       6Au3f-1       6Au3f0        6Au3f+1   
  135    6Au3f+2       6Au3f+3       6Au4f-3       6Au4f-2       6Au4f-1       6Au4f0        6Au4f+1       6Au4f+2       6Au4f+3       6Au5f-3   
  136    6Au5f-2       6Au5f-1       6Au5f0        6Au5f+1       6Au5f+2       6Au5f+3       6Au6f-3       6Au6f-2       6Au6f-1       6Au6f0    
  137    6Au6f+1       6Au6f+2       6Au6f+3       6Au7f-3       6Au7f-2       6Au7f-1       6Au7f0        6Au7f+1       6Au7f+2       6Au7f+3   
  138    6Au8f-3       6Au8f-2       6Au8f-1       6Au8f0        6Au8f+1       6Au8f+2       6Au8f+3       6Au1g-4       6Au1g-3       6Au1g-2   
  139    6Au1g-1       6Au1g0        6Au1g+1       6Au1g+2       6Au1g+3       6Au1g+4       6Au2g-4       6Au2g-3       6Au2g-2       6Au2g-1   
  140    6Au2g0        6Au2g+1       6Au2g+2       6Au2g+3       6Au2g+4       6Au3g-4       6Au3g-3       6Au3g-2       6Au3g-1       6Au3g0    
  141    6Au3g+1       6Au3g+2       6Au3g+3       6Au3g+4       6Au4g-4       6Au4g-3       6Au4g-2       6Au4g-1       6Au4g0        6Au4g+1   
  142    6Au4g+2       6Au4g+3       6Au4g+4       6Au1h-5       6Au1h-4       6Au1h-3       6Au1h-2       6Au1h-1       6Au1h0        6Au1h+1   
  143    6Au1h+2       6Au1h+3       6Au1h+4       6Au1h+5       6Au2h-5       6Au2h-4       6Au2h-3       6Au2h-2       6Au2h-1       6Au2h0    
  144    6Au2h+1       6Au2h+2       6Au2h+3       6Au2h+4       6Au2h+5       6Au3h-5       6Au3h-4       6Au3h-3       6Au3h-2       6Au3h-1   
  145    6Au3h0        6Au3h+1       6Au3h+2       6Au3h+3       6Au3h+4       6Au3h+5       6Au1i-6       6Au1i-5       6Au1i-4       6Au1i-3   
  146    6Au1i-2       6Au1i-1       6Au1i0        6Au1i+1       6Au1i+2       6Au1i+3       6Au1i+4       6Au1i+5       6Au1i+6       6Au2i-6   
  147    6Au2i-5       6Au2i-4       6Au2i-3       6Au2i-2       6Au2i-1       6Au2i0        6Au2i+1       6Au2i+2       6Au2i+3       6Au2i+4   
  148    6Au2i+5       6Au2i+6   
 
 Maximum number of basis functions per shell:   56
 Total number of basis functions:   1482
 
 
 Effective core potentials:
 
   1  Au mcdhf-ecp-60        
   2  Au mcdhf-ecp-60        
   3  Au mcdhf-ecp-60        
   4  Au mcdhf-ecp-60        
   5  Au mcdhf-ecp-60        
   6  Au mcdhf-ecp-60        
 
 Initializing the SAD routines for the initial guess...
 Checking the files required for the initial guess...
 Density files have not been found for the initial guess.
 Generating SCFDENSITIES.Au.def2-svp.0
 CPU time [min]:     0.120                   Wall time [min]:     0.210
 
 Character table for point group C1:
 
          E  
    A     1
 
 Number of basis functions per irrep:
    A     192
 
 
 Density functional: PBE hybrid functional (PBE0)
 Constructing integration grid for DFT...
 Angular integration grid: adaptive 590-point Lebedev quadrature
 Radial integration grid: Log3 quadrature
 Total number of grid points: 116794      
 CPU time [min]:     1.254                   Wall time [min]:     0.244
 
 Calculation of overlap integrals...
 CPU time [min]:     1.258                   Wall time [min]:     0.244
 
 Calculation of the square root of the overlap matrix...
 Minimum eigenvalue of the overlap matrix: 0.120333E-02
 CPU time [min]:     1.322                   Wall time [min]:     0.247
 
 Calculation of kinetic energy integrals...
 CPU time [min]:     1.324                   Wall time [min]:     0.247
 Calculation of dipole moment integrals...
 CPU time [min]:     1.326                   Wall time [min]:     0.247
 Calculation of nuclear attraction integrals...
 CPU time [min]:     1.329                   Wall time [min]:     0.247
 Calculation of core potential integrals...
 CPU time [min]:     1.778                   Wall time [min]:     0.588
 
 Calculation of prescreening integrals...
 CPU time [min]:     2.106                   Wall time [min]:     0.597
 
 Calculation of two-center Coulomb integrals...
   1% done.
  12% done.
  23% done.
  36% done.
  49% done.
  63% done.
  75% done.
  88% done.
 100% done.
 CPU time [min]:     2.197                   Wall time [min]:     0.599
 
 Cholesky decomposition of the two-center matrix...
 Reciprocal of the condition number:  0.277814E-05
 CPU time [min]:     2.271                   Wall time [min]:     0.602
 
 
 Running small-basis SCF...

 ************************ 2023-10-22 10:26:48 *************************
 Executing scf...

 @scfsetup: integrals calculated directly
            mrcc/integ direct run
 @scfsetup: calculating on full matrices
            not using symmetry adapted basis
 @scfsetup: diis switched on
 @scfsetup: number of steps to extrapolate from  10
 @scfsetup: tolerance in energy deviation    0.100000E-05
            tolerance in density deviation    0.100000E-05
 @scfsetup: maximum number of iterations:  50
 @scfsetup: restricted closed shell hf calc
 @scfsetup: starting scf from superposition of atomic densities
 @scfsetup: occupation set:
            from initial orbitals
 @scfsetup: Parameter-set for SCF acceleration: difficult
 @scfsetup: diis runs from iteration:   2
 @scfsetup: diis runs to iteration:  50
 @scfsetup: diis runs in every iteration
 @scfsetup: diiswatch is disabled                   
 @scfsetup: diis dtol criteria to switch on:      0.0000E+00
           (or the iteration number below is reached)
 @scfsetup: static damping scheme
            iteration step criteria to turn damping off: 3
 @scfsetup: dynamic level shifting
            tolarance in HOMO-LUMO gap:  0.200
            tolarance in density deviation:     0.0000E+00
            iteration step criteria to turn level shifting off: 8
 Allocation of 220.0 Gbytes of memory...
 ======================================================================
 ITERATION STEP   1
 CPU time [min]:     0.030                   Wall time [min]:     0.005
 

 SCF control                  : initial
 Damping factor/level shift   : 0.700/0.200
 DIIS [start/end/frequency]   :   2 / 50 /  1

 Constructing Fock-matrix...
 
 Pipek-Mezey localization...
 Step  Convergence
   1   5.302503981473
   2   3.613229347615
   3   0.030514192781
   4   0.000898321654
   5   0.000824620287
   6   0.000597688238
   7   0.000546855950
   8   0.000429872880
   9   0.000323870551
  10   0.000208970444
  11   0.000158159457
  12   0.000120291060
  13   0.000091640761
  14   0.000081293229
  15   0.000052531443
  16   0.000040467149
  17   0.000031240233
  18   0.000024223324
  19   0.000018839791
  20   0.000014693500
  21   0.000011490294
  22   0.000010622637
  23   0.000008260097
  24   0.000006354379
  25   0.000004902710
  26   0.000003155577
  27   0.000002509780
  28   0.000002357831
  29   0.000001535929
  30   0.000001453126
  31   0.000000948734
 CPU time [min]:     0.094                   Wall time [min]:     0.007
 
 Constructing local fitting domains...
 Maximum number of atoms in fitting domains:    6
 Average number of atoms in fitting domains:    5.7
 
 First step of Coulomb + first step of exchange...
 Exchange contribution is evaluated for MOs 1 to 57.
   1% done.
  13% done.
  25% done.
  40% done.
  56% done.
  70% done.
  83% done.
 100% done.
 Fitting and assembly step of exchange...
 CPU time [min]:     1.688                   Wall time [min]:     0.056
 
 Second step of Coulomb...
   1% done.
  13% done.
  25% done.
  40% done.
  56% done.
  70% done.
  83% done.
 100% done.
 CPU time [min]:     1.818                   Wall time [min]:     0.060
 
 Calculating the exchange-correlation matrix...
                  0.7500*PBEX [au]:    -57.469214090272
                  1.0000*PBEC [au]:     -4.996639610451
 Exchange-correlation energy  [au]:    -62.465853700723
 CPU time [min]:     2.363                   Wall time [min]:     0.089
 
 Coulomb energy + HF exchange [au]:   1581.812428234135
 Gradient norm:      2.9177E+00
 RMS of [F,P]:                                         0.03729919862715
 RMS of difference density:                            0.01458523817791
 Gap [au]:  0.00529627
 ALPHA OCC:  57
 BETA  OCC:  57
 
 ***KOHN-SHAM ENERGY IN STEP   1 IS          -811.8890775789614054 [AU]
 ======================================================================
 ITERATION STEP   2
 CPU time [min]:     2.380                   Wall time [min]:     0.089
 

 SCF control                  : diis+damping
 Damping factor/level shift   : 0.700/0.200
 DIIS [start/end/frequency]   :   2 / 50 /  1

 Constructing Fock-matrix...
 
 Pipek-Mezey localization...
 Step  Convergence
   1   8.389246789346
   2   3.650543156793
   3   0.283734582638
   4   0.189623604975
   5   0.000304324754
   6   0.000002173534
   7   0.000000102566
 CPU time [min]:     2.419                   Wall time [min]:     0.090
 
 Constructing local fitting domains...
 Maximum number of atoms in fitting domains:    6
 Average number of atoms in fitting domains:    5.7
 
 First step of Coulomb + first step of exchange...
 Exchange contribution is evaluated for MOs 1 to 57.
   1% done.
  13% done.
  25% done.
  40% done.
  56% done.
  70% done.
  83% done.
 100% done.
 Fitting and assembly step of exchange...
 CPU time [min]:     3.741                   Wall time [min]:     0.127
 
 Second step of Coulomb...
   1% done.
  13% done.
  25% done.
  40% done.
  56% done.
  70% done.
  83% done.
 100% done.
 CPU time [min]:     3.813                   Wall time [min]:     0.129
 
 Calculating the exchange-correlation matrix...
                  0.7500*PBEX [au]:    -55.725960676754
                  1.0000*PBEC [au]:     -4.932446366077
 Exchange-correlation energy  [au]:    -60.658407042831
 CPU time [min]:     4.322                   Wall time [min]:     0.156
 
 Coulomb energy + HF exchange [au]:   1558.673515129246
 Gradient norm:      2.2752E-01
 DIIS is running in this iteration step.
 RMS of [F,P]:                                         0.02544043623965
 RMS of difference density:                            0.00486275470057
 Gap [au]:  0.02735090
 ALPHA OCC:  57
 BETA  OCC:  57
 
 ***KOHN-SHAM ENERGY IN STEP   2 IS          -813.5706751615111898 [AU]
 
 Step comparison  Energy Drift [au]  DIIS error drift  Gradient drift
        1            1.6816E+00         1.1859E-02       2.6902E+00
        2            8.1357E+02         1.0000E-06       2.6902E+00
 ======================================================================
 ITERATION STEP   3
 CPU time [min]:     4.338                   Wall time [min]:     0.156
 

 SCF control                  : diis+damping
 Damping factor/level shift   : 0.700/0.200
 DIIS [start/end/frequency]   :   2 / 50 /  1

 Constructing Fock-matrix...
 
 Pipek-Mezey localization...
 Step  Convergence
   1  12.409604418823
   2   6.454533215801
   3   1.164797629670
   4   0.221112449373
   5   0.016649180015
   6   0.000729688819
   7   0.000065023092
   8   0.000007232171
   9   0.000001351710
  10   0.000000465389
 CPU time [min]:     4.368                   Wall time [min]:     0.157
 
 Constructing local fitting domains...
 Local fitting domains are unchanged.
 
 First step of Coulomb + first step of exchange...
 Exchange contribution is evaluated for MOs 1 to 57.
   1% done.
  13% done.
  25% done.
  40% done.
  56% done.
  70% done.
  83% done.
 100% done.
 Fitting and assembly step of exchange...
 CPU time [min]:     5.690                   Wall time [min]:     0.194
 
 Second step of Coulomb...
   1% done.
  13% done.
  25% done.
  40% done.
  56% done.
  70% done.
  83% done.
 100% done.
 CPU time [min]:     5.762                   Wall time [min]:     0.196
 
 Calculating the exchange-correlation matrix...
                  0.7500*PBEX [au]:    -55.141217058636
                  1.0000*PBEC [au]:     -4.916701929692
 Exchange-correlation energy  [au]:    -60.057918988328
 CPU time [min]:     6.268                   Wall time [min]:     0.222
 
 Coulomb energy + HF exchange [au]:   1551.995884192266
 Gradient norm:      5.4363E-02
 DIIS is running in this iteration step.
 RMS of [F,P]:                                         0.01791259230768
 RMS of difference density:                            0.00366082635318
 Gap [au]:  0.04036685
 ALPHA OCC:  57
 BETA  OCC:  57
 
 ***KOHN-SHAM ENERGY IN STEP   3 IS          -813.9841351477398348 [AU]
 
 Step comparison  Energy Drift [au]  DIIS error drift  Gradient drift
        2            4.1346E-01         7.5278E-03       1.7316E-01
 ======================================================================
 ITERATION STEP   4
 CPU time [min]:     6.284                   Wall time [min]:     0.223
 

 SCF control                  : diis
 Damping factor/level shift   : 0.000/0.200
 DIIS [start/end/frequency]   :   2 / 50 /  1

 Constructing Fock-matrix...
 
 Pipek-Mezey localization...
 Step  Convergence
   1   9.887911184353
   2   4.153004563802
   3   3.191586226993
   4   0.855907384925
   5   0.058499679133
   6   0.006206472768
   7   0.000805362562
   8   0.000112956271
   9   0.000016869253
  10   0.000002643817
  11   0.000000433616
 CPU time [min]:     6.314                   Wall time [min]:     0.223
 
 Constructing local fitting domains...
 Local fitting domains are unchanged.
 
 First step of Coulomb + first step of exchange...
 Exchange contribution is evaluated for MOs 1 to 57.
   1% done.
  13% done.
  25% done.
  40% done.
  56% done.
  70% done.
  83% done.
 100% done.
 Fitting and assembly step of exchange...
 CPU time [min]:     7.636                   Wall time [min]:     0.260
 
 Second step of Coulomb...
   1% done.
  13% done.
  25% done.
  40% done.
  56% done.
  70% done.
  83% done.
 100% done.
 CPU time [min]:     7.709                   Wall time [min]:     0.262
 
 Calculating the exchange-correlation matrix...
                  0.7500*PBEX [au]:    -55.042783780511
                  1.0000*PBEC [au]:     -4.919040753887
 Exchange-correlation energy  [au]:    -59.961824534398
 CPU time [min]:     8.219                   Wall time [min]:     0.289
 
 Coulomb energy + HF exchange [au]:   1552.600084154805
 Gradient norm:      1.8069E-01
 DIIS is running in this iteration step.
 RMS of [F,P]:                                         0.01300777268010
 RMS of difference density:                            0.01096961140973
 Gap [au]:  0.04141915
 ALPHA OCC:  57
 BETA  OCC:  57
 
 ***KOHN-SHAM ENERGY IN STEP   4 IS          -814.0126350746741082 [AU]
 
 Step comparison  Energy Drift [au]  DIIS error drift  Gradient drift
        3            2.8500E-02         4.9048E-03      -1.2632E-01
 Warning! The gradient goes uphill (with respect to previous step).
 Warning! The gradient goes uphill (with respect to step   3 ).
 ======================================================================
 ITERATION STEP   5
 CPU time [min]:     8.230                   Wall time [min]:     0.289
 

 SCF control                  : diis
 Damping factor/level shift   : 0.000/0.200
 DIIS [start/end/frequency]   :   2 / 50 /  1

 Constructing Fock-matrix...
 
 Pipek-Mezey localization...
 Step  Convergence
   1  11.413262836169
   2   4.560832690967
   3   2.191015648531
   4   0.463863590826
   5   0.099257983448
   6   0.002269299373
   7   0.000091637448
   8   0.000005108546
   9   0.000000403608
 CPU time [min]:     8.259                   Wall time [min]:     0.290
 
 Constructing local fitting domains...
 Local fitting domains are unchanged.
 
 First step of Coulomb + first step of exchange...
 Exchange contribution is evaluated for MOs 1 to 57.
   1% done.
  13% done.
  25% done.
  40% done.
  56% done.
  70% done.
  83% done.
 100% done.
 Fitting and assembly step of exchange...
 CPU time [min]:     9.592                   Wall time [min]:     0.327
 
 Second step of Coulomb...
   1% done.
  13% done.
  25% done.
  40% done.
  56% done.
  70% done.
  83% done.
 100% done.
 CPU time [min]:     9.665                   Wall time [min]:     0.329
 
 Calculating the exchange-correlation matrix...
                  0.7500*PBEX [au]:    -54.381707441094
                  1.0000*PBEC [au]:     -4.905789295515
 Exchange-correlation energy  [au]:    -59.287496736609
 CPU time [min]:    10.171                   Wall time [min]:     0.355
 
 Coulomb energy + HF exchange [au]:   1544.922142587624
 Gradient norm:      3.2057E-02
 DIIS is running in this iteration step.
 RMS of [F,P]:                                         0.00062201839927
 RMS of difference density:                            0.00222097656412
 Gap [au]:  0.04641991
 ALPHA OCC:  57
 BETA  OCC:  57
 
 ***KOHN-SHAM ENERGY IN STEP   5 IS          -814.3860195946699605 [AU]
 
 Step comparison  Energy Drift [au]  DIIS error drift  Gradient drift
        4            3.7338E-01         1.2386E-02       1.4863E-01
 ======================================================================
 ITERATION STEP   6
 CPU time [min]:    10.183                   Wall time [min]:     0.356
 

 SCF control                  : diis
 Damping factor/level shift   : 0.000/0.200
 DIIS [start/end/frequency]   :   2 / 50 /  1

 Constructing Fock-matrix...
 
 Pipek-Mezey localization...
 Step  Convergence
   1  14.404462460036
   2   5.096994783757
   3   1.769195463650
   4   0.172583027411
   5   0.001353142219
   6   0.000089056202
   7   0.011347450298
   8   0.000531807499
   9   0.000040875664
  10   0.000005153268
  11   0.000001933996
  12   0.000000954180
 CPU time [min]:    10.214                   Wall time [min]:     0.357
 
 Constructing local fitting domains...
 Local fitting domains are unchanged.
 
 First step of Coulomb + first step of exchange...
 Exchange contribution is evaluated for MOs 1 to 57.
   1% done.
  13% done.
  25% done.
  40% done.
  56% done.
  70% done.
  83% done.
 100% done.
 Fitting and assembly step of exchange...
 CPU time [min]:    11.537                   Wall time [min]:     0.393
 
 Second step of Coulomb...
   1% done.
  13% done.
  25% done.
  40% done.
  56% done.
  70% done.
  83% done.
 100% done.
 CPU time [min]:    11.609                   Wall time [min]:     0.395
 
 Calculating the exchange-correlation matrix...
                  0.7500*PBEX [au]:    -54.376621411190
                  1.0000*PBEC [au]:     -4.907089702316
 Exchange-correlation energy  [au]:    -59.283711113506
 CPU time [min]:    12.115                   Wall time [min]:     0.422
 
 Coulomb energy + HF exchange [au]:   1545.286105226507
 Gradient norm:      2.4856E-02
 DIIS is running in this iteration step.
 RMS of [F,P]:                                         0.00034649574638
 RMS of difference density:                            0.00093248300704
 Gap [au]:  0.04495850
 ALPHA OCC:  57
 BETA  OCC:  57
 
 ***KOHN-SHAM ENERGY IN STEP   6 IS          -814.3911612222136682 [AU]
 
 Step comparison  Energy Drift [au]  DIIS error drift  Gradient drift
        5            5.1416E-03         2.7552E-04       7.2008E-03
 ======================================================================
 ITERATION STEP   7
 CPU time [min]:    12.126                   Wall time [min]:     0.422
 

 SCF control                  : diis
 Damping factor/level shift   : 0.000/0.200
 DIIS [start/end/frequency]   :   2 / 50 /  1

 Constructing Fock-matrix...
 
 Pipek-Mezey localization...
 Step  Convergence
   1  16.337594103778
   2   7.531689970915
   3   3.600712845715
   4   1.306442186171
   5   0.041271374827
   6   0.001089979650
   7   0.000110129508
   8   0.000017325530
   9   0.000002776206
  10   0.000000473685
  11   0.000000087790
 CPU time [min]:    12.157                   Wall time [min]:     0.423
 
 Constructing local fitting domains...
 Local fitting domains are unchanged.
 
 First step of Coulomb + first step of exchange...
 Exchange contribution is evaluated for MOs 1 to 57.
   1% done.
  13% done.
  25% done.
  40% done.
  56% done.
  70% done.
  83% done.
 100% done.
 Fitting and assembly step of exchange...
 CPU time [min]:    13.492                   Wall time [min]:     0.460
 
 Second step of Coulomb...
   1% done.
  13% done.
  25% done.
  40% done.
  56% done.
  70% done.
  83% done.
 100% done.
 CPU time [min]:    13.565                   Wall time [min]:     0.462
 
 Calculating the exchange-correlation matrix...
                  0.7500*PBEX [au]:    -54.367010552094
                  1.0000*PBEC [au]:     -4.906941143445
 Exchange-correlation energy  [au]:    -59.273951695538
 CPU time [min]:    14.074                   Wall time [min]:     0.489
 
 Coulomb energy + HF exchange [au]:   1544.901820275260
 Gradient norm:      1.6128E-02
 DIIS is running in this iteration step.
 RMS of [F,P]:                                         0.00024092347343
 RMS of difference density:                            0.00051565262241
 Gap [au]:  0.04682280
 ALPHA OCC:  57
 BETA  OCC:  57
 
 ***KOHN-SHAM ENERGY IN STEP   7 IS          -814.3926507132969164 [AU]
 
 Step comparison  Energy Drift [au]  DIIS error drift  Gradient drift
        6            1.4895E-03         1.0557E-04       8.7278E-03
 ======================================================================
 ITERATION STEP   8
 CPU time [min]:    14.086                   Wall time [min]:     0.489
 

 SCF control                  : diis
 Damping factor/level shift   : 0.000/0.200
 DIIS [start/end/frequency]   :   2 / 50 /  1

 Constructing Fock-matrix...
 
 Pipek-Mezey localization...
 Step  Convergence
   1  16.163043573121
   2   7.656425488867
   3   7.493405601058
   4   1.915348738475
   5   0.545436156380
   6   0.036615490947
   7   0.000407459910
   8   0.000031469346
   9   0.000004119322
  10   0.000000685907
  11   0.000000216646
  12   0.000000103969
  13   0.000000050848
  14   0.000000023097
  15   0.000000012814
  16   0.000000005853
 CPU time [min]:    14.123                   Wall time [min]:     0.490
 
 Constructing local fitting domains...
 Local fitting domains are unchanged.
 
 First step of Coulomb + first step of exchange...
 Exchange contribution is evaluated for MOs 1 to 57.
   1% done.
  13% done.
  25% done.
  40% done.
  56% done.
  70% done.
  83% done.
 100% done.
 Fitting and assembly step of exchange...
 CPU time [min]:    15.444                   Wall time [min]:     0.527
 
 Second step of Coulomb...
   1% done.
  13% done.
  25% done.
  40% done.
  56% done.
  70% done.
  83% done.
 100% done.
 CPU time [min]:    15.516                   Wall time [min]:     0.529
 
 Calculating the exchange-correlation matrix...
                  0.7500*PBEX [au]:    -54.367715230090
                  1.0000*PBEC [au]:     -4.907283405606
 Exchange-correlation energy  [au]:    -59.274998635696
 CPU time [min]:    16.026                   Wall time [min]:     0.555
 
 Coulomb energy + HF exchange [au]:   1545.055300180471
 Gradient norm:      1.1748E-02
 DIIS is running in this iteration step.
 RMS of [F,P]:                                         0.00009024938895
 RMS of difference density:                            0.00030776991283
 Gap [au]:  0.04740027
 ALPHA OCC:  57
 BETA  OCC:  57
 
 ***KOHN-SHAM ENERGY IN STEP   8 IS          -814.3933408579205206 [AU]
 
 Step comparison  Energy Drift [au]  DIIS error drift  Gradient drift
        7            6.9014E-04         1.5067E-04       4.3804E-03
 ======================================================================
 ITERATION STEP   9
 CPU time [min]:    16.037                   Wall time [min]:     0.555
 

 SCF control                  : diis
 Damping factor/level shift   : 0.000/0.000
 DIIS [start/end/frequency]   :   2 / 50 /  1

 Constructing Fock-matrix...
 
 Pipek-Mezey localization...
 Step  Convergence
   1  17.585185211274
   2   7.630947212251
   3  11.495168497518
   4   3.640274281708
   5   0.562949257810
   6   0.008367757314
   7   0.000703190480
   8   0.000295628058
   9   0.000148750281
  10   0.000075213367
  11   0.000038255638
  12   0.000019517522
  13   0.000009984491
  14   0.000005109065
  15   0.000002617244
  16   0.000001341252
  17   0.000000689385
  18   0.000000353872
  19   0.000000181824
  20   0.000000093507
  21   0.000000048138
  22   0.000000024750
  23   0.000000012722
  24   0.000000006538
  25   0.000000003367
  26   0.000000001732
  27   0.000000000892
  28   0.000000000459
  29   0.000000000236
  30   0.000000000122
  31   0.000000000062
  32   0.000000000032
  33   0.000000000017
  34   0.000000000009
  35   0.000000000004
  36   0.000000000002
  37   0.000000000001
  38   0.000000000001
 CPU time [min]:    16.100                   Wall time [min]:     0.557
 
 Constructing local fitting domains...
 Local fitting domains are unchanged.
 
 First step of Coulomb + first step of exchange...
 Exchange contribution is evaluated for MOs 1 to 57.
   1% done.
  13% done.
  25% done.
  40% done.
  56% done.
  70% done.
  83% done.
 100% done.
 Fitting and assembly step of exchange...
 CPU time [min]:    17.437                   Wall time [min]:     0.594
 
 Second step of Coulomb...
   1% done.
  13% done.
  25% done.
  40% done.
  56% done.
  70% done.
  83% done.
 100% done.
 CPU time [min]:    17.509                   Wall time [min]:     0.597
 
 Calculating the exchange-correlation matrix...
                  0.7500*PBEX [au]:    -54.367668678184
                  1.0000*PBEC [au]:     -4.907395284091
 Exchange-correlation energy  [au]:    -59.275063962275
 CPU time [min]:    18.016                   Wall time [min]:     0.623
 
 Coulomb energy + HF exchange [au]:   1545.078389161119
 Gradient norm:      8.7251E-03
 DIIS is running in this iteration step.
 RMS of [F,P]:                                         0.00005918926832
 RMS of difference density:                            0.00043238420672
 Gap [au]:  0.04750721
 ALPHA OCC:  57
 BETA  OCC:  57
 
 ***KOHN-SHAM ENERGY IN STEP   9 IS          -814.3935901971553903 [AU]
 
 Step comparison  Energy Drift [au]  DIIS error drift  Gradient drift
        8            2.4934E-04         3.1060E-05       3.0228E-03
 ======================================================================
 ITERATION STEP  10
 CPU time [min]:    18.027                   Wall time [min]:     0.623
 

 SCF control                  : diis
 Damping factor/level shift   : 0.000/0.000
 DIIS [start/end/frequency]   :   2 / 50 /  1

 Constructing Fock-matrix...
 
 Pipek-Mezey localization...
 Step  Convergence
   1  17.190495354115
   2  11.154866351533
   3   9.597441661005
   4   3.005524529816
   5   0.676782906560
   6   0.008814072929
   7   0.003353162113
   8   0.001602826475
   9   0.000795964946
  10   0.000387366757
  11   0.000186203253
  12   0.000088788950
  13   0.000042170458
  14   0.000019990307
  15   0.000009463875
  16   0.000004481797
  17   0.000002124663
  18   0.000001008129
  19   0.000000478762
  20   0.000000227596
  21   0.000000108349
  22   0.000000051667
  23   0.000000024665
  24   0.000000011801
  25   0.000000005657
  26   0.000000002713
  27   0.000000001303
  28   0.000000000627
  29   0.000000000302
  30   0.000000000146
  31   0.000000000071
  32   0.000000000034
  33   0.000000000016
  34   0.000000000008
  35   0.000000000004
  36   0.000000000002
  37   0.000000000001
 CPU time [min]:    18.088                   Wall time [min]:     0.625
 
 Constructing local fitting domains...
 Local fitting domains are unchanged.
 
 First step of Coulomb + first step of exchange...
 Exchange contribution is evaluated for MOs 1 to 57.
   1% done.
  13% done.
  25% done.
  40% done.
  56% done.
  70% done.
  83% done.
 100% done.
 Fitting and assembly step of exchange...
 CPU time [min]:    19.407                   Wall time [min]:     0.662
 
 Second step of Coulomb...
   1% done.
  13% done.
  25% done.
  40% done.
  56% done.
  70% done.
  83% done.
 100% done.
 CPU time [min]:    19.479                   Wall time [min]:     0.664
 
 Calculating the exchange-correlation matrix...
                  0.7500*PBEX [au]:    -54.363736340771
                  1.0000*PBEC [au]:     -4.907490200391
 Exchange-correlation energy  [au]:    -59.271226541163
 CPU time [min]:    19.984                   Wall time [min]:     0.690
 
 Coulomb energy + HF exchange [au]:   1545.057854266354
 Gradient norm:      1.3460E-03
 DIIS is running in this iteration step.
 RMS of [F,P]:                                         0.00001979847416
 RMS of difference density:                            0.00006539624867
 Gap [au]:  0.04761801
 ALPHA OCC:  57
 BETA  OCC:  57
 
 ***KOHN-SHAM ENERGY IN STEP  10 IS          -814.3937678456491085 [AU]
 
 Step comparison  Energy Drift [au]  DIIS error drift  Gradient drift
        9            1.7765E-04         3.9391E-05       7.3791E-03
 ======================================================================
 ITERATION STEP  11
 CPU time [min]:    19.995                   Wall time [min]:     0.690
 

 SCF control                  : diis
 Damping factor/level shift   : 0.000/0.000
 DIIS [start/end/frequency]   :   2 / 50 /  1

 Constructing Fock-matrix...
 
 Pipek-Mezey localization...
 Step  Convergence
   1  18.119768843866
   2  11.234356580422
   3  13.955826942749
   4   6.960814972595
   5   2.155454316964
   6   0.458910760648
   7   0.005659872284
   8   0.001051013998
   9   0.001465817508
  10   0.002378149599
  11   0.003801059634
  12   0.005980659414
  13   0.008806438664
  14   0.011468913283
  15   0.012507419266
  16   0.011255243898
  17   0.008559380478
  18   0.005704140410
  19   0.003410783323
  20   0.001867388782
  21   0.000958476019
  22   0.000471356770
  23   0.000225537325
  24   0.000106054955
  25   0.000049339837
  26   0.000022793235
  27   0.000010487496
  28   0.000004814599
  29   0.000002205079
  30   0.000001008360
  31   0.000000460737
  32   0.000000210544
  33   0.000000096201
  34   0.000000043945
  35   0.000000020057
  36   0.000000009149
  37   0.000000004178
  38   0.000000001908
  39   0.000000000871
  40   0.000000000397
  41   0.000000000181
  42   0.000000000083
  43   0.000000000038
  44   0.000000000017
  45   0.000000000008
  46   0.000000000004
  47   0.000000000002
  48   0.000000000001
 CPU time [min]:    20.069                   Wall time [min]:     0.692
 
 Constructing local fitting domains...
 Local fitting domains are unchanged.
 
 First step of Coulomb + first step of exchange...
 Exchange contribution is evaluated for MOs 1 to 57.
   1% done.
  13% done.
  25% done.
  40% done.
  56% done.
  70% done.
  83% done.
 100% done.
 Fitting and assembly step of exchange...
 CPU time [min]:    21.389                   Wall time [min]:     0.729
 
 Second step of Coulomb...
   1% done.
  13% done.
  25% done.
  40% done.
  56% done.
  70% done.
  83% done.
 100% done.
 CPU time [min]:    21.462                   Wall time [min]:     0.731
 
 Calculating the exchange-correlation matrix...
                  0.7500*PBEX [au]:    -54.363828484072
                  1.0000*PBEC [au]:     -4.907487002184
 Exchange-correlation energy  [au]:    -59.271315486256
 CPU time [min]:    21.970                   Wall time [min]:     0.757
 
 Coulomb energy + HF exchange [au]:   1545.054240403753
 Gradient norm:      4.8443E-04
 DIIS is running in this iteration step.
 RMS of [F,P]:                                         0.00001457260509
 RMS of difference density:                            0.00002216107722
 Gap [au]:  0.04758874
 ALPHA OCC:  57
 BETA  OCC:  57
 
 ***KOHN-SHAM ENERGY IN STEP  11 IS          -814.3937720455128328 [AU]
 
 Step comparison  Energy Drift [au]  DIIS error drift  Gradient drift
       10            4.1999E-06         5.2259E-06       8.6157E-04
 ======================================================================
 ITERATION STEP  12
 CPU time [min]:    21.981                   Wall time [min]:     0.758
 

 SCF control                  : diis
 Damping factor/level shift   : 0.000/0.000
 DIIS [start/end/frequency]   :   2 / 50 /  1

 Constructing Fock-matrix...
 
 Pipek-Mezey localization...
 Step  Convergence
   1  18.904943090056
   2   9.074565813060
   3   8.393812055482
   4   3.454058533304
   5   0.308978821213
   6   0.033272017311
   7   0.009629545555
   8   0.011121139335
   9   0.012688975655
  10   0.012722420382
  11   0.010757528047
  12   0.007828599276
  13   0.005044907467
  14   0.002934379171
  15   0.001572798888
  16   0.000795472378
  17   0.000387391754
  18   0.000184238617
  19   0.000086344981
  20   0.000040099515
  21   0.000018516655
  22   0.000008519624
  23   0.000003910959
  24   0.000001792687
  25   0.000000820995
  26   0.000000375779
  27   0.000000171944
  28   0.000000078664
  29   0.000000035989
  30   0.000000016468
  31   0.000000007534
  32   0.000000003448
  33   0.000000001578
  34   0.000000000723
  35   0.000000000331
  36   0.000000000152
  37   0.000000000070
  38   0.000000000032
  39   0.000000000015
  40   0.000000000007
  41   0.000000000003
  42   0.000000000001
  43   0.000000000001
 CPU time [min]:    22.049                   Wall time [min]:     0.760
 
 Constructing local fitting domains...
 Local fitting domains are unchanged.
 
 First step of Coulomb + first step of exchange...
 Exchange contribution is evaluated for MOs 1 to 57.
   1% done.
  13% done.
  25% done.
  40% done.
  56% done.
  70% done.
  83% done.
 100% done.
 Fitting and assembly step of exchange...
 CPU time [min]:    23.368                   Wall time [min]:     0.796
 
 Second step of Coulomb...
   1% done.
  13% done.
  25% done.
  40% done.
  56% done.
  70% done.
  83% done.
 100% done.
 CPU time [min]:    23.441                   Wall time [min]:     0.798
 
 Calculating the exchange-correlation matrix...
                  0.7500*PBEX [au]:    -54.363923543534
                  1.0000*PBEC [au]:     -4.907490151821
 Exchange-correlation energy  [au]:    -59.271413695355
 CPU time [min]:    23.950                   Wall time [min]:     0.825
 
 Coulomb energy + HF exchange [au]:   1545.056381866987
 Gradient norm:      1.1877E-04
 DIIS is running in this iteration step.
 RMS of [F,P]:                                         0.00000380589220
 RMS of difference density:                            0.00000680820539
 Gap [au]:  0.04758906
 ALPHA OCC:  57
 BETA  OCC:  57
 
 ***KOHN-SHAM ENERGY IN STEP  12 IS          -814.3937732791755479 [AU]
 
 Step comparison  Energy Drift [au]  DIIS error drift  Gradient drift
       11            1.2337E-06         1.0767E-05       3.6566E-04
 ======================================================================
 ITERATION STEP  13
 CPU time [min]:    23.961                   Wall time [min]:     0.825
 

 SCF control                  : diis
 Damping factor/level shift   : 0.000/0.000
 DIIS [start/end/frequency]   :   2 / 50 /  1

 Constructing Fock-matrix...
 
 Pipek-Mezey localization...
 Step  Convergence
   1  16.752155344732
   2  10.112433347395
   3   9.266677203742
   4   3.872231349882
   5   0.488662775392
   6   0.025070801567
   7   0.017432596843
   8   0.010461859483
   9   0.005304653133
  10   0.002488000290
  11   0.001133533654
  12   0.000512512926
  13   0.000232125766
  14   0.000105606033
  15   0.000048270544
  16   0.000022153879
  17   0.000010201082
  18   0.000004709635
  19   0.000002178987
  20   0.000001009980
  21   0.000000468900
  22   0.000000218018
  23   0.000000101503
  24   0.000000047325
  25   0.000000022091
  26   0.000000010329
  27   0.000000004834
  28   0.000000002266
  29   0.000000001063
  30   0.000000000500
  31   0.000000000235
  32   0.000000000111
  33   0.000000000052
  34   0.000000000025
  35   0.000000000012
  36   0.000000000006
  37   0.000000000003
  38   0.000000000001
  39   0.000000000001
 CPU time [min]:    24.026                   Wall time [min]:     0.827
 
 Constructing local fitting domains...
 Local fitting domains are unchanged.
 
 First step of Coulomb + first step of exchange...
 Exchange contribution is evaluated for MOs 1 to 57.
   1% done.
  13% done.
  25% done.
  40% done.
  56% done.
  70% done.
  83% done.
 100% done.
 Fitting and assembly step of exchange...
 CPU time [min]:    25.348                   Wall time [min]:     0.864
 
 Second step of Coulomb...
   1% done.
  13% done.
  25% done.
  40% done.
  56% done.
  70% done.
  83% done.
 100% done.
 CPU time [min]:    25.420                   Wall time [min]:     0.866
 
 Calculating the exchange-correlation matrix...
                  0.7500*PBEX [au]:    -54.364036941870
                  1.0000*PBEC [au]:     -4.907495835294
 Exchange-correlation energy  [au]:    -59.271532777164
 CPU time [min]:    25.926                   Wall time [min]:     0.892
 
 Coulomb energy + HF exchange [au]:   1545.059074506295
 Gradient norm:      6.9227E-05
 DIIS is running in this iteration step.
 RMS of [F,P]:                                         0.00000206340522
 RMS of difference density:                            0.00000467545193
 Gap [au]:  0.04759696
 ALPHA OCC:  57
 BETA  OCC:  57
 
 ***KOHN-SHAM ENERGY IN STEP  13 IS          -814.3937733588331866 [AU]
 
 Step comparison  Energy Drift [au]  DIIS error drift  Gradient drift
       12            7.9658E-08         1.7425E-06       4.9545E-05
 ======================================================================
 ITERATION STEP  14
 CPU time [min]:    25.937                   Wall time [min]:     0.893
 

 SCF control                  : diis
 Damping factor/level shift   : 0.000/0.000
 DIIS [start/end/frequency]   :   2 / 50 /  1

 Constructing Fock-matrix...
 
 Pipek-Mezey localization...
 Step  Convergence
   1  18.532469827551
   2   9.409172070587
   3  11.730397110519
   4   3.791742354102
   5   0.637573657289
   6   0.020292684299
   7   0.011065974225
   8   0.009473362019
   9   0.007331688662
  10   0.005459917201
  11   0.004466713001
  12   0.004576099287
  13   0.005845064583
  14   0.008165643554
  15   0.010888307906
  16   0.012581850523
  17   0.012040885236
  18   0.009587466006
  19   0.006539121216
  20   0.003942545729
  21   0.002166795434
  22   0.001116522447
  23   0.000551265970
  24   0.000264770487
  25   0.000124946222
  26   0.000058305952
  27   0.000027014718
  28   0.000012459346
  29   0.000005729189
  30   0.000002629354
  31   0.000001205165
  32   0.000000551899
  33   0.000000252616
  34   0.000000115583
  35   0.000000052873
  36   0.000000024185
  37   0.000000011061
  38   0.000000005060
  39   0.000000002313
  40   0.000000001058
  41   0.000000000484
  42   0.000000000221
  43   0.000000000101
  44   0.000000000046
  45   0.000000000021
  46   0.000000000010
  47   0.000000000004
  48   0.000000000002
  49   0.000000000001
 CPU time [min]:    26.013                   Wall time [min]:     0.895
 
 Constructing local fitting domains...
 Local fitting domains are unchanged.
 
 First step of Coulomb + first step of exchange...
 Exchange contribution is evaluated for MOs 1 to 57.
   1% done.
  13% done.
  25% done.
  40% done.
  56% done.
  70% done.
  83% done.
 100% done.
 Fitting and assembly step of exchange...
 CPU time [min]:    27.334                   Wall time [min]:     0.932
 
 Second step of Coulomb...
   1% done.
  13% done.
  25% done.
  40% done.
  56% done.
  70% done.
  83% done.
 100% done.
 CPU time [min]:    27.406                   Wall time [min]:     0.934
 
 Calculating the exchange-correlation matrix...
                  0.7500*PBEX [au]:    -54.364141555722
                  1.0000*PBEC [au]:     -4.907497568924
 Exchange-correlation energy  [au]:    -59.271639124646
 CPU time [min]:    27.912                   Wall time [min]:     0.960
 
 Coulomb energy + HF exchange [au]:   1545.060983755892
 Gradient norm:      7.0635E-05
 DIIS is running in this iteration step.
 RMS of [F,P]:                                         0.00000138221511
 RMS of difference density:                            0.00000310190317
 Gap [au]:  0.04759519
 ALPHA OCC:  57
 BETA  OCC:  57
 
 ***KOHN-SHAM ENERGY IN STEP  14 IS          -814.3937733866118833 [AU]
 
 Step comparison  Energy Drift [au]  DIIS error drift  Gradient drift
       13            2.7779E-08         6.8119E-07      -1.4074E-06
 Warning! The gradient goes uphill (with respect to previous step).
 Warning! The gradient goes uphill (with respect to step  13 ).
 ======================================================================
 ITERATION STEP  15
 CPU time [min]:    27.958                   Wall time [min]:     0.961
 

 SCF control                  : diis
 Damping factor/level shift   : 0.000/0.000
 DIIS [start/end/frequency]   :   2 / 50 /  1

 Constructing Fock-matrix...
 
 Pipek-Mezey localization...
 Step  Convergence
   1  19.439057071275
   2  14.108334562420
   3  11.471736527094
   4   3.303747111197
   5   0.973286278098
   6   0.019886604266
   7   0.001153069411
   8   0.000465403494
   9   0.000228237411
  10   0.000089262729
  11   0.000058300069
  12   0.000025483813
  13   0.000012866274
  14   0.000009286170
  15   0.000005002227
  16   0.000001895657
  17   0.000001243677
  18   0.000000545135
  19   0.000000351043
  20   0.000000198915
  21   0.000000074548
  22   0.000000049106
  23   0.000000027731
  24   0.000000013399
  25   0.000000006626
  26   0.000000002533
  27   0.000000001668
  28   0.000000000944
  29   0.000000000456
  30   0.000000000225
  31   0.000000000086
  32   0.000000000044
  33   0.000000000032
  34   0.000000000018
  35   0.000000000009
  36   0.000000000004
  37   0.000000000002
  38   0.000000000001
  39   0.000000000000
 CPU time [min]:    28.024                   Wall time [min]:     0.963
 
 Constructing local fitting domains...
 Local fitting domains are unchanged.
 
 First step of Coulomb + first step of exchange...
 Exchange contribution is evaluated for MOs 1 to 57.
   1% done.
  13% done.
  25% done.
  40% done.
  56% done.
  70% done.
  83% done.
 100% done.
 Fitting and assembly step of exchange...
 CPU time [min]:    29.343                   Wall time [min]:     1.000
 
 Second step of Coulomb...
   1% done.
  13% done.
  25% done.
  40% done.
  56% done.
  70% done.
  83% done.
 100% done.
 CPU time [min]:    29.415                   Wall time [min]:     1.002
 
 Calculating the exchange-correlation matrix...
                  0.7500*PBEX [au]:    -54.364094711903
                  1.0000*PBEC [au]:     -4.907495789953
 Exchange-correlation energy  [au]:    -59.271590501857
 CPU time [min]:    29.922                   Wall time [min]:     1.028
 
 Coulomb energy + HF exchange [au]:   1545.060104051865
 Gradient norm:      4.0451E-05
 DIIS is running in this iteration step.
 RMS of [F,P]:                                         0.00000076376359
 RMS of difference density:                            0.00000161928936
 Gap [au]:  0.04759297
 ALPHA OCC:  57
 BETA  OCC:  57
 
 ***KOHN-SHAM ENERGY IN STEP  15 IS          -814.3937734016785726 [AU]
 
 Step comparison  Energy Drift [au]  DIIS error drift  Gradient drift
       14            1.5067E-08         6.1845E-07       3.0184E-05
 ======================================================================
 ITERATION STEP  16
 CPU time [min]:    29.933                   Wall time [min]:     1.029
 

 SCF control                  : diis
 Damping factor/level shift   : 0.000/0.000
 DIIS [start/end/frequency]   :   2 / 50 /  1

 Constructing Fock-matrix...
 
 Pipek-Mezey localization...
 Step  Convergence
   1  18.792032012386
   2  11.274235320738
   3  12.253846553420
   4   5.513793906026
   5   2.153035798858
   6   0.036634022900
   7   0.000960595557
   8   0.000328631436
   9   0.000448483239
  10   0.000701099521
  11   0.001152112774
  12   0.001944340490
  13   0.003339619271
  14   0.005750276788
  15   0.009512599641
  16   0.013838939401
  17   0.015877322064
  18   0.013674122646
  19   0.009227468647
  20   0.005288329939
  21   0.002749598019
  22   0.001353113360
  23   0.000645609817
  24   0.000302676550
  25   0.000140476598
  26   0.000064811358
  27   0.000029796305
  28   0.000013670080
  29   0.000006263331
  30   0.000002867197
  31   0.000001311943
  32   0.000000600076
  33   0.000000274419
  34   0.000000125472
  35   0.000000057363
  36   0.000000026226
  37   0.000000011990
  38   0.000000005479
  39   0.000000002506
  40   0.000000001146
  41   0.000000000524
  42   0.000000000240
  43   0.000000000110
  44   0.000000000050
  45   0.000000000023
  46   0.000000000010
  47   0.000000000005
  48   0.000000000002
  49   0.000000000001
  50   0.000000000000
 CPU time [min]:    30.009                   Wall time [min]:     1.031
 
 Constructing local fitting domains...
 Local fitting domains are unchanged.
 
 First step of Coulomb + first step of exchange...
 Exchange contribution is evaluated for MOs 1 to 57.
   1% done.
  13% done.
  25% done.
  40% done.
  56% done.
  70% done.
  83% done.
 100% done.
 Fitting and assembly step of exchange...
 CPU time [min]:    31.330                   Wall time [min]:     1.068
 
 Second step of Coulomb...
   1% done.
  13% done.
  25% done.
  40% done.
  56% done.
  70% done.
  83% done.
 100% done.
 CPU time [min]:    31.402                   Wall time [min]:     1.070
 
 Calculating the exchange-correlation matrix...
                  0.7500*PBEX [au]:    -54.364056860345
                  1.0000*PBEC [au]:     -4.907494289209
 Exchange-correlation energy  [au]:    -59.271551149555
 CPU time [min]:    31.909                   Wall time [min]:     1.096
 
 Coulomb energy + HF exchange [au]:   1545.059324369388
 Gradient norm:      1.3636E-05
 DIIS is running in this iteration step.
 RMS of [F,P]:                                         0.00000028552087
 RMS of difference density:                            0.00000041753024
 Gap [au]:  0.04759340
 ALPHA OCC:  57
 BETA  OCC:  57
 
 ***KOHN-SHAM ENERGY IN STEP  16 IS          -814.3937734056066802 [AU]
 
 Step comparison  Energy Drift [au]  DIIS error drift  Gradient drift
       15            3.9281E-09         4.7824E-07       2.6814E-05
 
 The SCF iteration has converged.
 An extra iteration will be performed to calculate accurate SCF energy.
 
 ======================================================================
 ITERATION STEP  17
 CPU time [min]:    31.920                   Wall time [min]:     1.096
 

 SCF control                  : diis
 Damping factor/level shift   : 0.000/0.000
 DIIS [start/end/frequency]   :   2 / 50 /  1

 Constructing Fock-matrix...
 
 Pipek-Mezey localization...
 Step  Convergence
   1  20.773584139359
   2   9.657797795431
   3  14.950758704936
   4   4.925703946822
   5   0.866775912431
   6   0.037459029922
   7   0.004725490880
   8   0.001927006871
   9   0.000866318445
  10   0.000396704799
  11   0.000180927976
  12   0.000082298097
  13   0.000036789892
  14   0.000016917835
  15   0.000007883202
  16   0.000003834462
  17   0.000001816012
  18   0.000000843167
  19   0.000000373148
  20   0.000000185188
  21   0.000000089922
  22   0.000000042018
  23   0.000000019776
  24   0.000000008568
  25   0.000000004465
  26   0.000000002233
  27   0.000000001053
  28   0.000000000504
  29   0.000000000240
  30   0.000000000115
  31   0.000000000048
  32   0.000000000024
  33   0.000000000014
  34   0.000000000007
  35   0.000000000003
  36   0.000000000001
  37   0.000000000001
 CPU time [min]:    31.982                   Wall time [min]:     1.098
 
 Constructing local fitting domains...
 Maximum number of atoms in fitting domains:    6
 Average number of atoms in fitting domains:    6.0
 
 First step of Coulomb + first step of exchange...
 Exchange contribution is evaluated for MOs 1 to 57.
   1% done.
  13% done.
  25% done.
  40% done.
  56% done.
  70% done.
  83% done.
 100% done.
 CPU time [min]:    32.294                   Wall time [min]:     1.107
 
 Fitting and assembly step of exchange...
 CPU time [min]:    32.327                   Wall time [min]:     1.108
 
 Second step of Coulomb...
   1% done.
  13% done.
  25% done.
  40% done.
  56% done.
  70% done.
  83% done.
 100% done.
 CPU time [min]:    32.399                   Wall time [min]:     1.110
 
 Calculating the exchange-correlation matrix...
                  0.7500*PBEX [au]:    -54.364078807889
                  1.0000*PBEC [au]:     -4.907495000713
 Exchange-correlation energy  [au]:    -59.271573808601
 CPU time [min]:    32.909                   Wall time [min]:     1.136
 
 Coulomb energy + HF exchange [au]:   1545.059601939309
 Gradient norm:      5.2947E-06
 RMS of [F,P]:                                         0.00000019144705
 RMS of difference density:                            0.00000054376151
 Gap [au]:  0.04759340
 ALPHA OCC:  57
 BETA  OCC:  57
 
 ***KOHN-SHAM ENERGY IN STEP  17 IS          -814.3938475253926299 [AU]
 
 Step comparison  Energy Drift [au]  DIIS error drift  Gradient drift
       16            7.4120E-05         9.4074E-08       8.3416E-06
 ======================================================================
 
 SUCCESS...
 THE SCF ITERATION HAS CONVERGED!
 
                   A   
 FINAL ALPHA OCC:  57
 FINAL BETA  OCC:  57
 
 ***FINAL KOHN-SHAM ENERGY:          -814.3938475253926299 [AU]
 
 Orbital energies [au]:
      Irrep         Alpha          Beta
    1   A         -4.176264      -4.176264
    2   A         -4.176195      -4.176195
    3   A         -4.169868      -4.169868
    4   A         -4.169783      -4.169783
    5   A         -4.169296      -4.169296
    6   A         -4.169107      -4.169107
    7   A         -2.381015      -2.381015
    8   A         -2.380609      -2.380609
    9   A         -2.375027      -2.375027
   10   A         -2.373381      -2.373381
   11   A         -2.372643      -2.372643
   12   A         -2.371333      -2.371333
   13   A         -2.366502      -2.366502
   14   A         -2.366431      -2.366431
   15   A         -2.366164      -2.366164
   16   A         -2.365682      -2.365682
   17   A         -2.364913      -2.364913
   18   A         -2.364325      -2.364325
   19   A         -2.363390      -2.363390
   20   A         -2.359225      -2.359225
   21   A         -2.357838      -2.357838
   22   A         -2.357774      -2.357774
   23   A         -2.356304      -2.356304
   24   A         -2.355918      -2.355918
   25   A         -0.431948      -0.431948
   26   A         -0.430318      -0.430318
[...]
  623   A          6.030118       6.030118
  624   A          6.038842       6.038842
  625   A          6.043493       6.043493
  626   A          6.049841       6.049841
  627   A          6.062927       6.062927
  628   A          6.091601       6.091601
  629   A          6.099972       6.099972
  630   A          6.108724       6.108724
  631   A          6.109142       6.109142
  632   A          6.110602       6.110602
  633   A          6.115273       6.115273
  634   A          6.120275       6.120275
  635   A          6.144742       6.144742
  636   A          6.149810       6.149810
  637   A          6.159644       6.159644
  638   A          6.202345       6.202345
  639   A          6.215256       6.215256
  640   A          6.248831       6.248831
  641   A          6.257295       6.257295
  642   A          6.262581       6.262581
  643   A          6.265304       6.265304
  644   A          6.288697       6.288697
  645   A          6.306394       6.306394
  646   A          6.308626       6.308626
  647   A          6.319980       6.319980
  648   A          6.343425       6.343425
  649   A          6.344149       6.344149
  650   A          6.356938       6.356938
  651   A          6.377506       6.377506
  652   A          6.379827       6.379827
  653   A          6.388747       6.388747
  654   A          6.401373       6.401373
  655   A          6.422707       6.422707
  656   A          6.428872       6.428872
  657   A          6.436762       6.436762
  658   A          6.441610       6.441610
  659   A          6.486030       6.486030
  660   A          6.490917       6.490917
  661   A          6.493423       6.493423
  662   A          6.499691       6.499691
  663   A          6.525549       6.525549
  664   A          6.534969       6.534969
  665   A          6.546225       6.546225
  666   A          6.578030       6.578030
  667   A          6.602563       6.602563
  668   A          6.619680       6.619680
  669   A          6.621914       6.621914
  670   A          6.632793       6.632793
  671   A          6.634779       6.634779
  672   A          6.661772       6.661772
  673   A          6.671070       6.671070
  674   A          6.677657       6.677657
  675   A          6.681977       6.681977
  676   A          6.687413       6.687413
  677   A          6.697278       6.697278
  678   A          6.701190       6.701190
  679   A          6.710203       6.710203
  680   A          6.722827       6.722827
  681   A          6.726311       6.726311
  682   A          6.738357       6.738357
  683   A          6.746962       6.746962
  684   A          6.747360       6.747360
  685   A          6.753235       6.753235
  686   A          6.757825       6.757825
  687   A          6.762998       6.762998
  688   A          6.766153       6.766153
  689   A          6.769521       6.769521
  690   A          6.774229       6.774229
  691   A          6.776276       6.776276
  692   A          6.791142       6.791142
  693   A          6.796328       6.796328
  694   A          6.809564       6.809564
  695   A          6.818386       6.818386
  696   A          6.819819       6.819819
  697   A          6.825900       6.825900
  698   A          6.826323       6.826323
  699   A          6.829839       6.829839
  700   A          6.835546       6.835546
  701   A          6.835702       6.835702
  702   A          6.837121       6.837121
  703   A          6.857806       6.857806
  704   A          6.858129       6.858129
  705   A          6.863797       6.863797
  706   A          6.867115       6.867115
  707   A          6.867185       6.867185
  708   A          6.878562       6.878562
  709   A          6.883274       6.883274
  710   A          6.885679       6.885679
  711   A          6.902295       6.902295
  712   A          6.903305       6.903305
  713   A          6.910599       6.910599
  714   A          6.918869       6.918869
  715   A          6.924456       6.924456
  716   A          6.943066       6.943066
  717   A          6.953100       6.953100
  718   A          6.980619       6.980619
  719   A          6.994387       6.994387
  720   A          7.004676       7.004676
  721   A          7.024233       7.024233
  722   A          7.031042       7.031042
  723   A          7.043753       7.043753
  724   A          7.066447       7.066447
  725   A          7.097404       7.097404
  726   A          7.101731       7.101731
  727   A          7.106744       7.106744
  728   A          7.142987       7.142987
  729   A          7.149749       7.149749
  730   A          7.171082       7.171082
  731   A          7.174685       7.174685
  732   A          7.184212       7.184212
  733   A          7.196155       7.196155
  734   A          7.199325       7.199325
  735   A          7.205044       7.205044
  736   A          7.208067       7.208067
  737   A          7.211301       7.211301
  738   A          7.218091       7.218091
  739   A          7.237953       7.237953
  740   A          7.243808       7.243808
  741   A          7.261674       7.261674
  742   A          7.261821       7.261821
  743   A          7.285098       7.285098
  744   A          7.293373       7.293373
  745   A          7.301893       7.301893
  746   A          7.327528       7.327528
  747   A          7.327666       7.327666
  748   A          7.328711       7.328711
  749   A          7.348970       7.348970
  750   A          7.350259       7.350259
  751   A          7.368692       7.368692
  752   A          7.395894       7.395894
  753   A          7.400658       7.400658
  754   A          7.406804       7.406804
  755   A          7.417343       7.417343
  756   A          7.428446       7.428446
  757   A          7.443431       7.443431
  758   A          7.452100       7.452100
  759   A          7.464499       7.464499
  760   A          7.464769       7.464769
  761   A          7.497617       7.497617
  762   A          7.500623       7.500623
  763   A          7.504010       7.504010
  764   A          7.527787       7.527787
  765   A          7.536283       7.536283
  766   A          7.546512       7.546512
  767   A          7.569223       7.569223
  768   A          7.586302       7.586302
  769   A          7.615305       7.615305
  770   A          7.626322       7.626322
  771   A          7.626819       7.626819
  772   A          7.634780       7.634780
  773   A          7.636154       7.636154
  774   A          7.659504       7.659504
  775   A          7.661361       7.661361
  776   A          7.664600       7.664600
  777   A          7.706417       7.706417
  778   A          7.711750       7.711750
  779   A          7.711927       7.711927
  780   A          7.731681       7.731681
  781   A          7.749344       7.749344
  782   A          7.790982       7.790982
  783   A          7.801662       7.801662
  784   A          7.815904       7.815904
  785   A          7.816546       7.816546
  786   A          7.856316       7.856316
  787   A          7.869637       7.869637
  788   A          7.914715       7.914715
  789   A          7.917726       7.917726
  790   A          7.922479       7.922479
  791   A          7.984988       7.984988
  792   A          7.996347       7.996347
  793   A          8.011303       8.011303
  794   A          8.089261       8.089261
  795   A          8.116679       8.116679
  796   A          8.147344       8.147344
  797   A          8.163766       8.163766
  798   A          8.164829       8.164829
  799   A          8.216420       8.216420
  800   A          8.250601       8.250601
  801   A          8.275338       8.275338
  802   A          8.355200       8.355200
  803   A          8.383936       8.383936
  804   A          8.434900       8.434900
  805   A          8.511596       8.511596
  806   A          8.525070       8.525070
  807   A          8.611452       8.611452
  808   A          8.754111       8.754111
  809   A          9.250784       9.250784
  810   A          9.311287       9.311287
  811   A         12.426706      12.426706
  812   A         12.457888      12.457888
  813   A         12.472390      12.472390
  814   A         12.481489      12.481489
  815   A         12.482145      12.482145
  816   A         12.492946      12.492946
  817   A         12.498826      12.498826
  818   A         12.519195      12.519195
  819   A         12.555495      12.555495
  820   A         12.563752      12.563752
  821   A         12.569631      12.569631
  822   A         12.571402      12.571402
  823   A         12.591199      12.591199
  824   A         12.628345      12.628345
  825   A         12.635345      12.635345
  826   A         12.639987      12.639987
  827   A         12.676623      12.676623
  828   A         12.704968      12.704968
  829   A         12.705629      12.705629
  830   A         12.719144      12.719144
  831   A         12.724279      12.724279
  832   A         12.731377      12.731377
  833   A         12.748151      12.748151
  834   A         12.755526      12.755526
  835   A         12.772943      12.772943
  836   A         12.785003      12.785003
  837   A         12.812745      12.812745
  838   A         12.830519      12.830519
  839   A         12.835241      12.835241
  840   A         12.866318      12.866318
  841   A         12.873724      12.873724
  842   A         12.890822      12.890822
  843   A         12.896578      12.896578
  844   A         12.922274      12.922274
  845   A         12.935493      12.935493
  846   A         12.946543      12.946543
  847   A         12.948186      12.948186
  848   A         12.950099      12.950099
  849   A         12.954576      12.954576
  850   A         12.970713      12.970713
  851   A         12.997215      12.997215
  852   A         13.002459      13.002459
  853   A         13.004387      13.004387
  854   A         13.005264      13.005264
  855   A         13.014453      13.014453
  856   A         13.015112      13.015112
  857   A         13.018010      13.018010
  858   A         13.021645      13.021645
  859   A         13.026569      13.026569
  860   A         13.028941      13.028941
  861   A         13.030399      13.030399
  862   A         13.032951      13.032951
  863   A         13.035362      13.035362
  864   A         13.036963      13.036963
  865   A         13.038990      13.038990
  866   A         13.041629      13.041629
  867   A         13.042968      13.042968
  868   A         13.047730      13.047730
  869   A         13.053062      13.053062
  870   A         13.053875      13.053875
  871   A         13.055452      13.055452
  872   A         13.065272      13.065272
  873   A         13.067844      13.067844
  874   A         13.068527      13.068527
  875   A         13.068810      13.068810
  876   A         13.071885      13.071885
  877   A         13.081510      13.081510
  878   A         13.083803      13.083803
  879   A         13.085015      13.085015
  880   A         13.097255      13.097255
  881   A         13.097850      13.097850
  882   A         13.098243      13.098243
  883   A         13.101280      13.101280
  884   A         13.112602      13.112602
  885   A         13.120708      13.120708
  886   A         13.143046      13.143046
  887   A         13.145654      13.145654
  888   A         13.158052      13.158052
  889   A         13.163772      13.163772
  890   A         13.172357      13.172357
  891   A         13.181840      13.181840
  892   A         13.204277      13.204277
  893   A         13.209330      13.209330
  894   A         13.210927      13.210927
  895   A         13.220336      13.220336
  896   A         13.247068      13.247068
  897   A         13.321816      13.321816
  898   A         13.330397      13.330397
  899   A         13.365500      13.365500
  900   A         13.407657      13.407657
  901   A         13.413625      13.413625
  902   A         13.457532      13.457532
  903   A         13.467316      13.467316
  904   A         13.612850      13.612850
  905   A         13.640331      13.640331
  906   A         13.683318      13.683318
  907   A         13.734805      13.734805
  908   A         13.773303      13.773303
  909   A         13.783048      13.783048
  910   A         13.844591      13.844591
  911   A         13.893828      13.893828
  912   A         13.915651      13.915651
  913   A         14.098689      14.098689
  914   A         14.255168      14.255168
  915   A         14.422886      14.422886
  916   A         14.502624      14.502624
  917   A         14.513512      14.513512
  918   A         14.588285      14.588285
  919   A         14.625015      14.625015
  920   A         14.667376      14.667376
  921   A         14.684212      14.684212
  922   A         14.718523      14.718523
  923   A         14.791813      14.791813
  924   A         14.832975      14.832975
  925   A         14.853572      14.853572
  926   A         14.854406      14.854406
  927   A         14.854818      14.854818
  928   A         14.886259      14.886259
  929   A         14.887420      14.887420
  930   A         14.995430      14.995430
  931   A         15.011140      15.011140
  932   A         15.012363      15.012363
  933   A         15.038631      15.038631
  934   A         15.057126      15.057126
  935   A         15.091467      15.091467
  936   A         15.095300      15.095300
  937   A         15.104574      15.104574
  938   A         15.142989      15.142989
  939   A         15.226284      15.226284
  940   A         15.244909      15.244909
  941   A         15.318334      15.318334
  942   A         15.337435      15.337435
  943   A         15.337940      15.337940
  944   A         15.369813      15.369813
  945   A         15.379967      15.379967
  946   A         15.381891      15.381891
  947   A         15.386826      15.386826
  948   A         15.391265      15.391265
  949   A         15.396099      15.396099
  950   A         15.405253      15.405253
  951   A         15.410552      15.410552
  952   A         15.417978      15.417978
  953   A         15.423596      15.423596
  954   A         15.425319      15.425319
  955   A         15.434974      15.434974
  956   A         15.437356      15.437356
  957   A         15.449545      15.449545
  958   A         15.479969      15.479969
  959   A         15.482412      15.482412
  960   A         15.491960      15.491960
  961   A         15.494334      15.494334
  962   A         15.498507      15.498507
  963   A         15.504847      15.504847
  964   A         15.505584      15.505584
  965   A         15.517488      15.517488
  966   A         15.521111      15.521111
  967   A         15.527094      15.527094
  968   A         15.533006      15.533006
  969   A         15.535128      15.535128
  970   A         15.542519      15.542519
  971   A         15.549050      15.549050
  972   A         15.566532      15.566532
  973   A         15.568044      15.568044
  974   A         15.569341      15.569341
  975   A         15.593883      15.593883
  976   A         15.599084      15.599084
  977   A         15.609263      15.609263
  978   A         15.617730      15.617730
  979   A         15.620495      15.620495
  980   A         15.628822      15.628822
  981   A         15.633509      15.633509
  982   A         15.643972      15.643972
  983   A         15.644046      15.644046
  984   A         15.645413      15.645413
  985   A         15.653184      15.653184
  986   A         15.659839      15.659839
  987   A         15.669015      15.669015
  988   A         15.670618      15.670618
  989   A         15.678030      15.678030
  990   A         15.687630      15.687630
  991   A         15.687991      15.687991
  992   A         15.697391      15.697391
  993   A         15.704306      15.704306
  994   A         15.710223      15.710223
  995   A         15.736942      15.736942
  996   A         15.747817      15.747817
  997   A         15.766982      15.766982
  998   A         15.795083      15.795083
  999   A         15.796229      15.796229
 1000   A         15.797111      15.797111
 1001   A         15.823208      15.823208
 1002   A         15.845738      15.845738
 1003   A         15.861664      15.861664
 1004   A         15.892364      15.892364
 1005   A         15.924677      15.924677
 1006   A         15.926487      15.926487
 1007   A         15.933348      15.933348
 1008   A         15.934833      15.934833
 1009   A         15.963542      15.963542
 1010   A         16.019484      16.019484
 1011   A         16.027052      16.027052
 1012   A         16.072464      16.072464
 1013   A         16.146959      16.146959
 1014   A         16.170192      16.170192
 1015   A         16.284400      16.284400
 1016   A         16.433188      16.433188
 1017   A         16.580362      16.580362
 1018   A         16.654643      16.654643
 1019   A         16.837927      16.837927
 1020   A         16.848298      16.848298
 1021   A         29.195608      29.195608
 1022   A         31.088747      31.088747
 1023   A         31.826608      31.826608
 1024   A         32.624443      32.624443
 1025   A         34.211440      34.211440
 1026   A         34.853160      34.853160
 1027   A         40.551538      40.551538
 1028   A         40.556119      40.556119
 1029   A         40.570910      40.570910
 1030   A         40.582800      40.582800
 1031   A         40.595417      40.595417
 1032   A         40.621596      40.621596
 1033   A         40.638816      40.638816
 1034   A         40.641955      40.641955
 1035   A         40.642005      40.642005
 1036   A         40.651425      40.651425
 1037   A         40.692662      40.692662
 1038   A         40.706460      40.706460
 1039   A         40.711367      40.711367
 1040   A         40.723338      40.723338
 1041   A         40.764830      40.764830
 1042   A         40.766758      40.766758
 1043   A         40.768924      40.768924
 1044   A         40.865806      40.865806
 1045   A         40.909775      40.909775
 1046   A         40.935396      40.935396
 1047   A         40.976992      40.976992
 1048   A         41.046460      41.046460
 1049   A         41.050639      41.050639
 1050   A         41.113159      41.113159
 1051   A         41.131383      41.131383
 1052   A         41.206223      41.206223
 1053   A         41.206832      41.206832
 1054   A         41.269484      41.269484
 1055   A         41.576713      41.576713
 1056   A         41.587876      41.587876
 1057   A         58.981566      58.981566
 1058   A         59.003953      59.003953
 1059   A         59.027979      59.027979
 1060   A         59.040314      59.040314
 1061   A         59.046859      59.046859
 1062   A         59.047513      59.047513
 1063   A         59.095485      59.095485
 1064   A         59.110360      59.110360
 1065   A         59.128848      59.128848
 1066   A         59.150662      59.150662
 1067   A         59.156073      59.156073
 1068   A         59.233786      59.233786
 1069   A         59.243294      59.243294
 1070   A         59.310987      59.310987
 1071   A         59.380312      59.380312
 1072   A         59.391699      59.391699
 1073   A         59.708260      59.708260
 1074   A         59.718711      59.718711
 1075   A        138.430147     138.430147
 1076   A        141.007811     141.007811
 1077   A        142.623518     142.623518
 1078   A        143.501948     143.501948
 1079   A        147.079097     147.079097
 1080   A        147.918115     147.918115
 
 RETURNING FROM SCF ALGORITHM
 ======================================================================
 
 ************************ 2023-10-22 11:02:46 *************************
                      Normal termination of mrcc.
 **********************************************************************
