 **********************************************************************
                          MRCC program system
 **********************************************************************
 
                              Written by
     Mihaly Kallay, Peter R. Nagy, David Mester, Laszlo Gyevi-Nagy,
        Jozsef Csoka, P. Bernat Szabo, Zoltan Rolik, Gyula Samu,
     Jozsef Csontos, Bence Hegely, Adam Ganyecz, Istvan Ladjanszki,
       Lorant Szegedy, Bence Ladoczki, Klara Petrov, Mate Farkas,
                    Pal D. Mezei, and Reka A. Horvath
 
        Department of Physical Chemistry and Materials Science
            Budapest University of Technology and Economics
                  Budapest P.O.Box 91, H-1521 Hungary
 
                              www.mrcc.hu
 
                      Release date: March 18, 2022

 ************************ 2022-08-17 08:00:47 *************************
 Executing minp...

 Reading input from MINP...
 
 Input file:
 
calc=LNO-CCSD(T)
scftype=rhf
verbosity=3
mem=190GB
symm=off
unit=angs
scfiguess=small
scfmaxit=1000
scfalg=locfit1


lcorthr=tight
ccmaxit=400
usedisk=0
ccsdalg=dfdirect
ccsdthreads=4
ccsdmkl=thr
ptthreads=4

charge=0
core=8

basis=special
aug-cc-pVDZ-PP
aug-cc-pVDZ-PP
aug-cc-pVDZ
cc-pVDZ
cc-pVDZ
cc-pVDZ
cc-pVDZ
cc-pVDZ
aug-cc-pVDZ
aug-cc-pVDZ
aug-cc-pVDZ
aug-cc-pVDZ
aug-cc-pVDZ
aug-cc-pVDZ
aug-cc-pVDZ
aug-cc-pVDZ
cc-pVDZ
cc-pVDZ
cc-pVDZ
cc-pVDZ
aug-cc-pVDZ
aug-cc-pVDZ
aug-cc-pVDZ
aug-cc-pVDZ
cc-pVDZ
cc-pVDZ
cc-pVDZ
cc-pVDZ
cc-pVDZ
cc-pVDZ
cc-pVDZ
cc-pVDZ
cc-pVDZ
cc-pVDZ
cc-pVDZ
aug-cc-pVDZ
aug-cc-pVDZ
aug-cc-pVDZ
aug-cc-pVDZ
aug-cc-pVDZ
aug-cc-pVDZ
aug-cc-pVDZ
aug-cc-pVDZ
aug-cc-pVDZ
aug-cc-pVDZ
aug-cc-pVDZ
aug-cc-pVDZ
cc-pVDZ
cc-pVDZ
cc-pVDZ
cc-pVDZ
cc-pVDZ
aug-cc-pVDZ
aug-cc-pVDZ
aug-cc-pVDZ
aug-cc-pVDZ
aug-cc-pVDZ
aug-cc-pVDZ
aug-cc-pVDZ
aug-cc-pVDZ
aug-cc-pVDZ
aug-cc-pVDZ
aug-cc-pVDZ
cc-pVDZ
cc-pVDZ
cc-pVDZ
cc-pVDZ
cc-pVDZ
cc-pVDZ
aug-cc-pVDZ
aug-cc-pVDZ
aug-cc-pVDZ
aug-cc-pVDZ
aug-cc-pVDZ
aug-cc-pVDZ
aug-cc-pVDZ
cc-pVDZ
cc-pVDZ
aug-cc-pVDZ
aug-cc-pVDZ
aug-cc-pVDZ
aug-cc-pVDZ
aug-cc-pVDZ
aug-cc-pVDZ
aug-cc-pVDZ
aug-cc-pVDZ
aug-cc-pVDZ
aug-cc-pVDZ

basis_sm=special
def2-SVP
def2-SVP
def2-SVP
def2-SVP
def2-SVP
def2-SVP
def2-SVP
def2-SVP
def2-SVP
def2-SVP
def2-SVP
def2-SVP
def2-SVP
def2-SVP
def2-SVP
def2-SVP
def2-SVP
def2-SVP
def2-SVP
def2-SVP
def2-SVP
def2-SVP
def2-SVP
def2-SVP
def2-SVP
def2-SVP
def2-SVP
def2-SVP
def2-SVP
def2-SVP
def2-SVP
def2-SVP
def2-SVP
def2-SVP
def2-SVP
def2-SVP
def2-SVP
def2-SVP
def2-SVP
def2-SVP
def2-SVP
def2-SVP
def2-SVP
def2-SVP
def2-SVP
def2-SVP
def2-SVP
def2-SVP
def2-SVP
def2-SVP
def2-SVP
def2-SVP
def2-SVP
def2-SVP
def2-SVP
def2-SVP
def2-SVP
def2-SVP
def2-SVP
def2-SVP
def2-SVP
def2-SVP
def2-SVP
def2-SVP
def2-SVP
def2-SVP
def2-SVP
def2-SVP
def2-SVP
def2-SVP
def2-SVP
def2-SVP
def2-SVP
def2-SVP
def2-SVP
def2-SVP
def2-SVP
def2-SVP
def2-SVP
def2-SVP
def2-SVP
def2-SVP
def2-SVP
def2-SVP
def2-SVP
def2-SVP
def2-SVP
def2-SVP

dfbasis_scf=special
def2-QZVPP-RI-JK
def2-QZVPP-RI-JK
def2-QZVPP-RI-JK
def2-QZVPP-RI-JK
def2-QZVPP-RI-JK
def2-QZVPP-RI-JK
def2-QZVPP-RI-JK
def2-QZVPP-RI-JK
def2-QZVPP-RI-JK
def2-QZVPP-RI-JK
def2-QZVPP-RI-JK
def2-QZVPP-RI-JK
def2-QZVPP-RI-JK
def2-QZVPP-RI-JK
def2-QZVPP-RI-JK
def2-QZVPP-RI-JK
def2-QZVPP-RI-JK
def2-QZVPP-RI-JK
def2-QZVPP-RI-JK
def2-QZVPP-RI-JK
def2-QZVPP-RI-JK
def2-QZVPP-RI-JK
def2-QZVPP-RI-JK
def2-QZVPP-RI-JK
def2-QZVPP-RI-JK
def2-QZVPP-RI-JK
def2-QZVPP-RI-JK
def2-QZVPP-RI-JK
def2-QZVPP-RI-JK
def2-QZVPP-RI-JK
def2-QZVPP-RI-JK
def2-QZVPP-RI-JK
def2-QZVPP-RI-JK
def2-QZVPP-RI-JK
def2-QZVPP-RI-JK
def2-QZVPP-RI-JK
def2-QZVPP-RI-JK
def2-QZVPP-RI-JK
def2-QZVPP-RI-JK
def2-QZVPP-RI-JK
def2-QZVPP-RI-JK
def2-QZVPP-RI-JK
def2-QZVPP-RI-JK
def2-QZVPP-RI-JK
def2-QZVPP-RI-JK
def2-QZVPP-RI-JK
def2-QZVPP-RI-JK
def2-QZVPP-RI-JK
def2-QZVPP-RI-JK
def2-QZVPP-RI-JK
def2-QZVPP-RI-JK
def2-QZVPP-RI-JK
def2-QZVPP-RI-JK
def2-QZVPP-RI-JK
def2-QZVPP-RI-JK
def2-QZVPP-RI-JK
def2-QZVPP-RI-JK
def2-QZVPP-RI-JK
def2-QZVPP-RI-JK
def2-QZVPP-RI-JK
def2-QZVPP-RI-JK
def2-QZVPP-RI-JK
def2-QZVPP-RI-JK
def2-QZVPP-RI-JK
def2-QZVPP-RI-JK
def2-QZVPP-RI-JK
def2-QZVPP-RI-JK
def2-QZVPP-RI-JK
def2-QZVPP-RI-JK
def2-QZVPP-RI-JK
def2-QZVPP-RI-JK
def2-QZVPP-RI-JK
def2-QZVPP-RI-JK
def2-QZVPP-RI-JK
def2-QZVPP-RI-JK
def2-QZVPP-RI-JK
def2-QZVPP-RI-JK
def2-QZVPP-RI-JK
def2-QZVPP-RI-JK
def2-QZVPP-RI-JK
def2-QZVPP-RI-JK
def2-QZVPP-RI-JK
def2-QZVPP-RI-JK
def2-QZVPP-RI-JK
def2-QZVPP-RI-JK
def2-QZVPP-RI-JK
def2-QZVPP-RI-JK
def2-QZVPP-RI-JK

dfbasis_cor=special
aug-cc-pVDZ-PP-RI
aug-cc-pVDZ-PP-RI
aug-cc-pVDZ-RI
cc-pVDZ-RI
cc-pVDZ-RI
cc-pVDZ-RI
cc-pVDZ-RI
cc-pVDZ-RI
aug-cc-pVDZ-RI
aug-cc-pVDZ-RI
aug-cc-pVDZ-RI
aug-cc-pVDZ-RI
aug-cc-pVDZ-RI
aug-cc-pVDZ-RI
aug-cc-pVDZ-RI
aug-cc-pVDZ-RI
cc-pVDZ-RI
cc-pVDZ-RI
cc-pVDZ-RI
cc-pVDZ-RI
aug-cc-pVDZ-RI
aug-cc-pVDZ-RI
aug-cc-pVDZ-RI
aug-cc-pVDZ-RI
cc-pVDZ-RI
cc-pVDZ-RI
cc-pVDZ-RI
cc-pVDZ-RI
cc-pVDZ-RI
cc-pVDZ-RI
cc-pVDZ-RI
cc-pVDZ-RI
cc-pVDZ-RI
cc-pVDZ-RI
cc-pVDZ-RI
aug-cc-pVDZ-RI
aug-cc-pVDZ-RI
aug-cc-pVDZ-RI
aug-cc-pVDZ-RI
aug-cc-pVDZ-RI
aug-cc-pVDZ-RI
aug-cc-pVDZ-RI
aug-cc-pVDZ-RI
aug-cc-pVDZ-RI
aug-cc-pVDZ-RI
aug-cc-pVDZ-RI
aug-cc-pVDZ-RI
cc-pVDZ-RI
cc-pVDZ-RI
cc-pVDZ-RI
cc-pVDZ-RI
cc-pVDZ-RI
aug-cc-pVDZ-RI
aug-cc-pVDZ-RI
aug-cc-pVDZ-RI
aug-cc-pVDZ-RI
aug-cc-pVDZ-RI
aug-cc-pVDZ-RI
aug-cc-pVDZ-RI
aug-cc-pVDZ-RI
aug-cc-pVDZ-RI
aug-cc-pVDZ-RI
aug-cc-pVDZ-RI
cc-pVDZ-RI
cc-pVDZ-RI
cc-pVDZ-RI
cc-pVDZ-RI
cc-pVDZ-RI
cc-pVDZ-RI
aug-cc-pVDZ-RI
aug-cc-pVDZ-RI
aug-cc-pVDZ-RI
aug-cc-pVDZ-RI
aug-cc-pVDZ-RI
aug-cc-pVDZ-RI
aug-cc-pVDZ-RI
cc-pVDZ-RI
cc-pVDZ-RI
aug-cc-pVDZ-RI
aug-cc-pVDZ-RI
aug-cc-pVDZ-RI
aug-cc-pVDZ-RI
aug-cc-pVDZ-RI
aug-cc-pVDZ-RI
aug-cc-pVDZ-RI
aug-cc-pVDZ-RI
aug-cc-pVDZ-RI
aug-cc-pVDZ-RI

ecp=special
MCDHF-ECP-60
MCDHF-ECP-60
none
none
none
none
none
none
none
none
none
none
none
none
none
none
none
none
none
none
none
none
none
none
none
none
none
none
none
none
none
none
none
none
none
none
none
none
none
none
none
none
none
none
none
none
none
none
none
none
none
none
none
none
none
none
none
none
none
none
none
none
none
none
none
none
none
none
none
none
none
none
none
none
none
none
none
none
none
none
none
none
none
none
none
none
none
none

unit=angs
geom=xyz
88
Au2 Mg33 O53 ECP64
Au   -2.11388577195   -0.00000130832    5.25586031957
Au   -2.11388577195   -0.00000130832    2.72734044403
O     0.00000000000    0.00000000000    0.00000000000
Mg   -2.11388582115    0.00000000000    0.00000000000
Mg    0.00000000000    2.11388582115    0.00000000000
Mg    2.11388582115    0.00000000000    0.00000000000
Mg    0.00000000000   -2.11388582115    0.00000000000
Mg    0.00000000000    0.00000000000   -2.11388582115
O    -2.11388582115    2.11388582115    0.00000000000
O     2.11388582115    2.11388582115    0.00000000000
O     2.11388582115   -2.11388582115    0.00000000000
O    -2.11388582115   -2.11388582115    0.00000000000
O    -2.11388582115    0.00000000000   -2.11388582115
O     0.00000000000    2.11388582115   -2.11388582115
O     2.11388582115    0.00000000000   -2.11388582115
O     0.00000000000   -2.11388582115   -2.11388582115
Mg   -2.11388582115    2.11388582115   -2.11388582115
Mg    2.11388582115    2.11388582115   -2.11388582115
Mg    2.11388582115   -2.11388582115   -2.11388582115
Mg   -2.11388582115   -2.11388582115   -2.11388582115
O    -4.22777164231    0.00000000000    0.00000000000
O     0.00000000000    4.22777164231    0.00000000000
O     4.22777164231    0.00000000000    0.00000000000
O     0.00000000000   -4.22777164231    0.00000000000
Mg   -4.22777164231    2.11388582115    0.00000000000
Mg   -2.11388582115    4.22777164231    0.00000000000
Mg    2.11388582115    4.22777164231    0.00000000000
Mg    4.22777164231    2.11388582115    0.00000000000
Mg    4.22777164231   -2.11388582115    0.00000000000
Mg    2.11388582115   -4.22777164231    0.00000000000
Mg   -2.11388582115   -4.22777164231    0.00000000000
Mg   -4.22777164231   -2.11388582115    0.00000000000
Mg   -4.22777164231    0.00000000000   -2.11388582115
Mg    0.00000000000    4.22777164231   -2.11388582115
Mg    0.00000000000   -4.22777164231   -2.11388582115
O    -4.22777164231    2.11388582115   -2.11388582115
O    -2.11388582115    4.22777164231   -2.11388582115
O     2.11388582115    4.22777164231   -2.11388582115
O     4.22777164231    2.11388582115   -2.11388582115
O     4.22777164231   -2.11388582115   -2.11388582115
O     2.11388582115   -4.22777164231   -2.11388582115
O    -2.11388582115   -4.22777164231   -2.11388582115
O    -4.22777164231   -2.11388582115   -2.11388582115
O    -4.22777164231    4.22777164231    0.00000000000
O     4.22777164231    4.22777164231    0.00000000000
O     4.22777164231   -4.22777164231    0.00000000000
O    -4.22777164231   -4.22777164231    0.00000000000
Mg   -6.34165746346    0.00000000000    0.00000000000
Mg    0.00000000000    6.34165746346    0.00000000000
Mg    0.00000000000   -6.34165746346    0.00000000000
Mg   -4.22777164231    4.22777164231   -2.11388582115
Mg   -4.22777164231   -4.22777164231   -2.11388582115
O    -6.34165746346    2.11388582115    0.00000000000
O    -2.11388582115    6.34165746346    0.00000000000
O     2.11388582115    6.34165746346    0.00000000000
O     6.34165746346    2.11388582115    0.00000000000
O     6.34165746346   -2.11388582115    0.00000000000
O     2.11388582115   -6.34165746346    0.00000000000
O    -2.11388582115   -6.34165746346    0.00000000000
O    -6.34165746346   -2.11388582115    0.00000000000
O    -6.34165746346    0.00000000000   -2.11388582115
O     0.00000000000    6.34165746346   -2.11388582115
O     0.00000000000   -6.34165746346   -2.11388582115
Mg   -6.34165746346    2.11388582115   -2.11388582115
Mg   -6.34165746346   -2.11388582115   -2.11388582115
Mg   -6.34165746346    4.22777164231    0.00000000000
Mg   -4.22777164231    6.34165746346    0.00000000000
Mg   -4.22777164231   -6.34165746346    0.00000000000
Mg   -6.34165746346   -4.22777164231    0.00000000000
O    -6.34165746346    4.22777164231   -2.11388582115
O    -4.22777164231    6.34165746346   -2.11388582115
O    -4.22777164231   -6.34165746346   -2.11388582115
O    -6.34165746346   -4.22777164231   -2.11388582115
O    -8.45554328461    0.00000000000    0.00000000000
O     0.00000000000    8.45554328461    0.00000000000
O     0.00000000000   -8.45554328461    0.00000000000
Mg   -8.45554328461    2.11388582115    0.00000000000
Mg   -8.45554328461   -2.11388582115    0.00000000000
O    -6.34165746346    6.34165746346    0.00000000000
O    -6.34165746346   -6.34165746346    0.00000000000
O    -8.45554328461    2.11388582115   -2.11388582115
O    -8.45554328461   -2.11388582115   -2.11388582115
O    -8.45554328461    4.22777164231    0.00000000000
O    -4.22777164231    8.45554328461    0.00000000000
O    -4.22777164231   -8.45554328461    0.00000000000
O    -8.45554328461   -4.22777164231    0.00000000000
O   -10.56942910577    2.11388582115    0.00000000000
O   -10.56942910577   -2.11388582115    0.00000000000

ghost=serialno
3-88

 
 
 Checking keyword combinations...
 
 Keywords:
 
 active=none
 agrid=ld0006-ld0590
 agrid_pssp=ld0006-ld0194
 agrid_pssp_sm=ld0006-ld0074
 basis=special
 basis_sm=special
 basopt=off
 bfbasis=none
 bfgsmem=10
 bfgstol=1.0d-3
 bpcompo=0.985
 bpcompv=0.98
 bpdfo=0.985
 bpocc=0.99995d0
 bppdo=0.999d0
 bppdv=0.98
 bpedo=0.99995d0
 bpedv=0.995d0
 calc=ccsd(t)
 ccmaxit=400
 ccprog=ccsd
 ccsdalg=dfdirect
 ccsdmkl=thr
 ccsdrest=off
 ccsdthreads=4
 cctol=5
 charge=0
 cialg=direct
 ciguess=off
 cmpgrp=auto
 comprest=off
 core=8
 corembed=off
 csapprox=off
 cvs=off
 dboc=off
 delocsomofact=
 dendec=cholesky
 dens=0
 dfalg=lineq
 dfbasis_cab=none
 dfbasis_cor=special
 dfbasis_scf=special
 dfbasis_scf_sm=special
 dfintran=drpa
 dft=off
 dhexc=adc(2)
 diag=david
 docc=
 domrad=10.d0
 drpaalg=auto
 dual=off
 dual_df=off
 ecp=special
 edisp=off
 edisp_embed=off
 embed=off
 etemp=300
 epert=none
 eps=
 espcharge=off
 excrad=1.0
 excrad_fin=0.100000000D-02
 fitting=coulomb
 fmm=off
 fmmord=8
 freq=off
 gamma=1.d0
 gauss=spher
 geom=xyz
 gopt=off
 ghost=serialno
 gtol=7
 grdens=off
 gridbatch_cos=2000
 grtol=10
 guido_ct=off
 hamilton=dc
 iface=none
 intalg=auto
 itol=10
 laptol=1.d-3
 lccoporder=lccfirst
 lcorthr=tight
 lccrest=off
 lmp2dens=on
 lnoepso=3e-6
 lnoepsv=3e-7
 boysalg=jacobi
 localcc=2021
 localcorrsymm=off
 locintrf=direct
 mact=
 maxact=off
 maxdim=100
 maxex=0
 maxmicroit=100
 mcscfiguess=hf
 mem=190gb
 mmprog=
 molden=on
 mpitasks=1
 mulmet=3
 mult=
 nacto=0
 nactv=0
 naf_amp=1.d-2
 naf_cor=1e-2
 naf_scf=off
 nafalg=albe
 naftyp=jpq
 nchol=auto
 ndeps=1e-3
 nstate=1
 nsing=0
 nto=off
 ntrip=0
 occ=
 occri=off
 oniom=off
 oniom_eechg=off
 oniom_pcm=off
 oniom_qcorr=off
 optalg=
 optmaxit=50
 optetol=1e-6
 optex=0
 optgtol=1e-4
 optstol=1e-3
 orblocc=off
 orbloce=off
 orbloco=boys
 orblocv=pao
 orblocguess=cholesky
 osveps=-1.d0
 ovirt=off
 ovltol=1e-7
 ovosnorb=80.0
 pcm=off
 popul=off
 pressure=100000
 pssp=off
 ptfreq=0.0
 ptthreads=4
 qro=off
 qscf=off
 qmmm=off
 redcost_exc=off
 redcost_tddft=0.985d0
 refdet=none
 rest=0
 rgrid=log3
 rism=off
 rohfcore=standard
 rohftype=semicanonical
 scfalg=locfit1
 scf_conv=difficult
 scfdamp=0.0d0
 scfdamp_mode=off
 scfdamp_end=1000
 scfdamp_dampstep=0.d0
 scfdamp_dtol=0.0d0
 scfdamp_maxfact=0.0d0
 scfdamp_minfact=0.0d0
 scfdiis=on
 scfdiis_dtol=0.0d0
 scfdiis_end=1000
 scfdiis_start=2
 scfdiis_step=1
 scfdiis_watch=off
 scfdiis_wrange=10
 scfdiis_wlimit=5
 scfdiis_delmax=2
 scfdtol=7
 scfext=10
 scfguessdens=
 scfiguess=small
 scfloc=pm
 scflshift=0.20
 scflshift_end=8
 scflshift_dtol=0.0
 scflshift_gaptol=0.20
 scfmaxit=1000
 scftype=rhf
 scftol=6
 scspe=1.d0
 scsph=1.d0
 scsps=1.2d0
 scsps_t=1.2d0
 scspt=0.33333333333333
 scspt_t=0.33333333333333
 scspv=1.d0
 spairtol=-1.d0
 sqmprog=
 subminp=top
 symm=0
 talg=lapl
 temp=298.15
 test=off
 theodore=off
 tlmo=0.999
 tpao=0.94
 tprint=off
 uncontract=off
 unit=angs
 usedisk=0
 verbosity=3
 wpairtol=3.d-6
 
 Calculating integrals for small-basis SCF...

 ************************ 2022-08-17 08:00:52 *************************
 Executing integ...

 Allocation of 190.0 Gbytes of memory...
 
 
 Number of atoms:                 88
 Charge:                           0
 Number of electrons:             38
 Number of core electrons:        16
 Spin multiplicity:                1
 
                 Cartesian coordinates [bohr]      Atomic mass [AMU]  Z
   1  Au   -3.99466517   -0.00000247    9.93213656   196.966543      79
   2  Au   -3.99466517   -0.00000247    5.15392649   196.966543      79
   3  O     0.00000000    0.00000000    0.00000000     0.000000       0
   4  Mg   -3.99466526    0.00000000    0.00000000     0.000000       0
   5  Mg    0.00000000    3.99466526    0.00000000     0.000000       0
   6  Mg    3.99466526    0.00000000    0.00000000     0.000000       0
   7  Mg    0.00000000   -3.99466526    0.00000000     0.000000       0
   8  Mg    0.00000000    0.00000000   -3.99466526     0.000000       0
   9  O    -3.99466526    3.99466526    0.00000000     0.000000       0
  10  O     3.99466526    3.99466526    0.00000000     0.000000       0
  11  O     3.99466526   -3.99466526    0.00000000     0.000000       0
  12  O    -3.99466526   -3.99466526    0.00000000     0.000000       0
  13  O    -3.99466526    0.00000000   -3.99466526     0.000000       0
  14  O     0.00000000    3.99466526   -3.99466526     0.000000       0
  15  O     3.99466526    0.00000000   -3.99466526     0.000000       0
  16  O     0.00000000   -3.99466526   -3.99466526     0.000000       0
  17  Mg   -3.99466526    3.99466526   -3.99466526     0.000000       0
  18  Mg    3.99466526    3.99466526   -3.99466526     0.000000       0
  19  Mg    3.99466526   -3.99466526   -3.99466526     0.000000       0
  20  Mg   -3.99466526   -3.99466526   -3.99466526     0.000000       0
  21  O    -7.98933052    0.00000000    0.00000000     0.000000       0
  22  O     0.00000000    7.98933052    0.00000000     0.000000       0
  23  O     7.98933052    0.00000000    0.00000000     0.000000       0
  24  O     0.00000000   -7.98933052    0.00000000     0.000000       0
  25  Mg   -7.98933052    3.99466526    0.00000000     0.000000       0
  26  Mg   -3.99466526    7.98933052    0.00000000     0.000000       0
  27  Mg    3.99466526    7.98933052    0.00000000     0.000000       0
  28  Mg    7.98933052    3.99466526    0.00000000     0.000000       0
  29  Mg    7.98933052   -3.99466526    0.00000000     0.000000       0
  30  Mg    3.99466526   -7.98933052    0.00000000     0.000000       0
  31  Mg   -3.99466526   -7.98933052    0.00000000     0.000000       0
  32  Mg   -7.98933052   -3.99466526    0.00000000     0.000000       0
  33  Mg   -7.98933052    0.00000000   -3.99466526     0.000000       0
  34  Mg    0.00000000    7.98933052   -3.99466526     0.000000       0
  35  Mg    0.00000000   -7.98933052   -3.99466526     0.000000       0
  36  O    -7.98933052    3.99466526   -3.99466526     0.000000       0
  37  O    -3.99466526    7.98933052   -3.99466526     0.000000       0
  38  O     3.99466526    7.98933052   -3.99466526     0.000000       0
  39  O     7.98933052    3.99466526   -3.99466526     0.000000       0
  40  O     7.98933052   -3.99466526   -3.99466526     0.000000       0
  41  O     3.99466526   -7.98933052   -3.99466526     0.000000       0
  42  O    -3.99466526   -7.98933052   -3.99466526     0.000000       0
  43  O    -7.98933052   -3.99466526   -3.99466526     0.000000       0
  44  O    -7.98933052    7.98933052    0.00000000     0.000000       0
  45  O     7.98933052    7.98933052    0.00000000     0.000000       0
  46  O     7.98933052   -7.98933052    0.00000000     0.000000       0
  47  O    -7.98933052   -7.98933052    0.00000000     0.000000       0
  48  Mg  -11.98399579    0.00000000    0.00000000     0.000000       0
  49  Mg    0.00000000   11.98399579    0.00000000     0.000000       0
  50  Mg    0.00000000  -11.98399579    0.00000000     0.000000       0
  51  Mg   -7.98933052    7.98933052   -3.99466526     0.000000       0
  52  Mg   -7.98933052   -7.98933052   -3.99466526     0.000000       0
  53  O   -11.98399579    3.99466526    0.00000000     0.000000       0
  54  O    -3.99466526   11.98399579    0.00000000     0.000000       0
  55  O     3.99466526   11.98399579    0.00000000     0.000000       0
  56  O    11.98399579    3.99466526    0.00000000     0.000000       0
  57  O    11.98399579   -3.99466526    0.00000000     0.000000       0
  58  O     3.99466526  -11.98399579    0.00000000     0.000000       0
  59  O    -3.99466526  -11.98399579    0.00000000     0.000000       0
  60  O   -11.98399579   -3.99466526    0.00000000     0.000000       0
  61  O   -11.98399579    0.00000000   -3.99466526     0.000000       0
  62  O     0.00000000   11.98399579   -3.99466526     0.000000       0
  63  O     0.00000000  -11.98399579   -3.99466526     0.000000       0
  64  Mg  -11.98399579    3.99466526   -3.99466526     0.000000       0
  65  Mg  -11.98399579   -3.99466526   -3.99466526     0.000000       0
  66  Mg  -11.98399579    7.98933052    0.00000000     0.000000       0
  67  Mg   -7.98933052   11.98399579    0.00000000     0.000000       0
  68  Mg   -7.98933052  -11.98399579    0.00000000     0.000000       0
  69  Mg  -11.98399579   -7.98933052    0.00000000     0.000000       0
  70  O   -11.98399579    7.98933052   -3.99466526     0.000000       0
  71  O    -7.98933052   11.98399579   -3.99466526     0.000000       0
  72  O    -7.98933052  -11.98399579   -3.99466526     0.000000       0
  73  O   -11.98399579   -7.98933052   -3.99466526     0.000000       0
  74  O   -15.97866105    0.00000000    0.00000000     0.000000       0
  75  O     0.00000000   15.97866105    0.00000000     0.000000       0
  76  O     0.00000000  -15.97866105    0.00000000     0.000000       0
  77  Mg  -15.97866105    3.99466526    0.00000000     0.000000       0
  78  Mg  -15.97866105   -3.99466526    0.00000000     0.000000       0
  79  O   -11.98399579   11.98399579    0.00000000     0.000000       0
  80  O   -11.98399579  -11.98399579    0.00000000     0.000000       0
  81  O   -15.97866105    3.99466526   -3.99466526     0.000000       0
  82  O   -15.97866105   -3.99466526   -3.99466526     0.000000       0
  83  O   -15.97866105    7.98933052    0.00000000     0.000000       0
  84  O    -7.98933052   15.97866105    0.00000000     0.000000       0
  85  O    -7.98933052  -15.97866105    0.00000000     0.000000       0
  86  O   -15.97866105   -7.98933052    0.00000000     0.000000       0
  87  O   -19.97332631    3.99466526    0.00000000     0.000000       0
  88  O   -19.97332631   -3.99466526    0.00000000     0.000000       0
 
 This molecule is a prolate symmetric top.
 
 Point group: C1  
 Computational point group: C1  
 
 Cartesian coordinates in standard orientation [bohr]
   1  Au   -0.00000349   -0.00000004    5.05221564
   2  Au    0.00000050    0.00000001    0.27400557
   3  O     0.20146763   -3.98958169   -4.87992079
   4  Mg    0.00000233    0.00000003   -4.87992092
   5  Mg   -3.78811408   -4.19104700   -4.87992412
   6  Mg    0.40293294   -7.97916341   -4.87992066
   7  Mg    4.19104935   -3.78811638   -4.87991746
   8  Mg    0.20147097   -3.98958165   -8.87458605
   9  O    -3.98957939   -0.20146528   -4.87992425
  10  O    -3.58664878   -8.18062871   -4.87992400
  11  O     4.39251466   -7.77769810   -4.87991733
  12  O     3.98958405    0.20146534   -4.87991758
  13  O     0.00000566    0.00000007   -8.87458618
  14  O    -3.78811075   -4.19104695   -8.87458939
  15  O     0.40293628   -7.97916336   -8.87458593
  16  O     4.19105269   -3.78811634   -8.87458272
  17  Mg   -3.98957606   -0.20146523   -8.87458951
  18  Mg   -3.58664544   -8.18062867   -8.87458926
  19  Mg    4.39251799   -7.77769806   -8.87458259
  20  Mg    3.98958738    0.20146538   -8.87458285
  21  O    -0.20146298    3.98958175   -4.87992104
  22  O    -7.77769580   -4.39251230   -4.87992746
  23  O     0.60439825  -11.96874513   -4.87992054
  24  O     8.18063107   -3.58665107   -4.87991412
  25  Mg   -4.19104470    3.78811644   -4.87992437
  26  Mg   -7.97916111   -0.40293058   -4.87992758
  27  Mg   -7.57623050   -8.38209402   -4.87992733
  28  Mg   -3.38518347  -12.17021043   -4.87992387
  29  Mg    4.59397997  -11.76727982   -4.87991721
  30  Mg    8.38209638   -7.57623279   -4.87991400
  31  Mg    7.97916576    0.40293064   -4.87991425
  32  Mg    3.78811874    4.19104706   -4.87991771
  33  Mg   -0.20145965    3.98958179   -8.87458630
  34  Mg   -7.77769247   -4.39251226   -8.87459272
  35  Mg    8.18063441   -3.58665103   -8.87457939
  36  O    -4.19104136    3.78811648   -8.87458964
  37  O    -7.97915778   -0.40293054   -8.87459284
  38  O    -7.57622716   -8.38209398   -8.87459259
  39  O    -3.38518014  -12.17021039   -8.87458913
  40  O     4.59398330  -11.76727978   -8.87458247
  41  O     8.38209971   -7.57623275   -8.87457926
  42  O     7.97916910    0.40293069   -8.87457951
  43  O     3.78812207    4.19104710   -8.87458297
  44  O    -8.18062642    3.58665113   -4.87992771
  45  O    -7.37476519  -12.37167574   -4.87992720
  46  O     8.58356169  -11.56581451   -4.87991387
  47  O     7.77770046    4.39251236   -4.87991438
  48  Mg   -0.40292829    7.97916347   -4.87992117
  49  Mg  -11.76727752   -4.59397761   -4.87993079
  50  Mg   12.17021279   -3.38518577   -4.87991079
  51  Mg   -8.18062308    3.58665118   -8.87459297
  52  Mg    7.77770379    4.39251241   -8.87457964
  53  O    -4.39251001    7.77769816   -4.87992450
  54  O   -11.96874283   -0.60439589   -4.87993091
  55  O   -11.56581221   -8.58355933   -4.87993066
  56  O    -3.18371816  -16.15979215   -4.87992375
  57  O     4.79544527  -15.75686154   -4.87991708
  58  O    12.37167810   -7.37476749   -4.87991067
  59  O    11.96874748    0.60439595   -4.87991092
  60  O     3.58665343    8.18062877   -4.87991783
  61  O    -0.40292495    7.97916351   -8.87458643
  62  O   -11.76727419   -4.59397757   -8.87459605
  63  O    12.17021612   -3.38518572   -8.87457605
  64  Mg   -4.39250667    7.77769820   -8.87458976
  65  Mg    3.58665677    8.18062882   -8.87458310
  66  Mg   -8.38209172    7.57623285   -4.87992783
  67  Mg  -12.17020814    3.38518583   -4.87993104
  68  Mg   11.76728218    4.59397767   -4.87991104
  69  Mg    7.57623515    8.38209408   -4.87991450
  70  O    -8.38208839    7.57623290   -8.87459309
  71  O   -12.17020480    3.38518587   -8.87459630
  72  O    11.76728551    4.59397771   -8.87457630
  73  O     7.57623848    8.38209412   -8.87457976
  74  O    -0.60439359   11.96874519   -4.87992129
  75  O   -15.75685924   -4.79544292   -4.87993412
  76  O    16.15979451   -3.18372046   -4.87990746
  77  Mg   -4.59397531   11.76727988   -4.87992462
  78  Mg    3.38518812   12.17021049   -4.87991796
  79  O   -12.37167344    7.37476755   -4.87993116
  80  O    11.56581687    8.58355939   -4.87991117
  81  O    -4.59397198   11.76727992   -8.87458989
  82  O     3.38519146   12.17021054   -8.87458322
  83  O    -8.58355703   11.56581457   -4.87992796
  84  O   -16.15978985    3.18372052   -4.87993437
  85  O    15.75686389    4.79544298   -4.87990771
  86  O     7.37476984   12.37167580   -4.87991463
  87  O    -4.79544062   15.75686160   -4.87992475
  88  O     3.18372282   16.15979221   -4.87991808
 
 Nuclear repulsion energy [au]:         75.551303709279
 
 
 Basis set information:
 
 Maximum angular momentum: i
 Maximum number of contracted Gaussians:   13
 Maximum number of primitive Gaussians:    16
 Spherical harmonic GTOs are used.
 
 
 Conventional basis set:
 
   1  Au def2-svp [ 7s 6p 5d 1f | 6s 3p 2d 1f ]
   2  Au def2-svp [ 7s 6p 5d 1f | 6s 3p 2d 1f ]
   3  O  def2-svp [ 7s 4p 1d | 3s 2p 1d ]
   4  Mg def2-svp [ 10s 7p 1d | 4s 3p 1d ]
   5  Mg def2-svp [ 10s 7p 1d | 4s 3p 1d ]
   6  Mg def2-svp [ 10s 7p 1d | 4s 3p 1d ]
   7  Mg def2-svp [ 10s 7p 1d | 4s 3p 1d ]
   8  Mg def2-svp [ 10s 7p 1d | 4s 3p 1d ]
   9  O  def2-svp [ 7s 4p 1d | 3s 2p 1d ]
  10  O  def2-svp [ 7s 4p 1d | 3s 2p 1d ]
  11  O  def2-svp [ 7s 4p 1d | 3s 2p 1d ]
  12  O  def2-svp [ 7s 4p 1d | 3s 2p 1d ]
  13  O  def2-svp [ 7s 4p 1d | 3s 2p 1d ]
  14  O  def2-svp [ 7s 4p 1d | 3s 2p 1d ]
  15  O  def2-svp [ 7s 4p 1d | 3s 2p 1d ]
  16  O  def2-svp [ 7s 4p 1d | 3s 2p 1d ]
  17  Mg def2-svp [ 10s 7p 1d | 4s 3p 1d ]
  18  Mg def2-svp [ 10s 7p 1d | 4s 3p 1d ]
  19  Mg def2-svp [ 10s 7p 1d | 4s 3p 1d ]
  20  Mg def2-svp [ 10s 7p 1d | 4s 3p 1d ]
  21  O  def2-svp [ 7s 4p 1d | 3s 2p 1d ]
  22  O  def2-svp [ 7s 4p 1d | 3s 2p 1d ]
  23  O  def2-svp [ 7s 4p 1d | 3s 2p 1d ]
  24  O  def2-svp [ 7s 4p 1d | 3s 2p 1d ]
  25  Mg def2-svp [ 10s 7p 1d | 4s 3p 1d ]
  26  Mg def2-svp [ 10s 7p 1d | 4s 3p 1d ]
  27  Mg def2-svp [ 10s 7p 1d | 4s 3p 1d ]
  28  Mg def2-svp [ 10s 7p 1d | 4s 3p 1d ]
  29  Mg def2-svp [ 10s 7p 1d | 4s 3p 1d ]
  30  Mg def2-svp [ 10s 7p 1d | 4s 3p 1d ]
  31  Mg def2-svp [ 10s 7p 1d | 4s 3p 1d ]
  32  Mg def2-svp [ 10s 7p 1d | 4s 3p 1d ]
  33  Mg def2-svp [ 10s 7p 1d | 4s 3p 1d ]
  34  Mg def2-svp [ 10s 7p 1d | 4s 3p 1d ]
  35  Mg def2-svp [ 10s 7p 1d | 4s 3p 1d ]
  36  O  def2-svp [ 7s 4p 1d | 3s 2p 1d ]
  37  O  def2-svp [ 7s 4p 1d | 3s 2p 1d ]
  38  O  def2-svp [ 7s 4p 1d | 3s 2p 1d ]
  39  O  def2-svp [ 7s 4p 1d | 3s 2p 1d ]
  40  O  def2-svp [ 7s 4p 1d | 3s 2p 1d ]
  41  O  def2-svp [ 7s 4p 1d | 3s 2p 1d ]
  42  O  def2-svp [ 7s 4p 1d | 3s 2p 1d ]
  43  O  def2-svp [ 7s 4p 1d | 3s 2p 1d ]
  44  O  def2-svp [ 7s 4p 1d | 3s 2p 1d ]
  45  O  def2-svp [ 7s 4p 1d | 3s 2p 1d ]
  46  O  def2-svp [ 7s 4p 1d | 3s 2p 1d ]
  47  O  def2-svp [ 7s 4p 1d | 3s 2p 1d ]
  48  Mg def2-svp [ 10s 7p 1d | 4s 3p 1d ]
  49  Mg def2-svp [ 10s 7p 1d | 4s 3p 1d ]
  50  Mg def2-svp [ 10s 7p 1d | 4s 3p 1d ]
  51  Mg def2-svp [ 10s 7p 1d | 4s 3p 1d ]
  52  Mg def2-svp [ 10s 7p 1d | 4s 3p 1d ]
  53  O  def2-svp [ 7s 4p 1d | 3s 2p 1d ]
  54  O  def2-svp [ 7s 4p 1d | 3s 2p 1d ]
  55  O  def2-svp [ 7s 4p 1d | 3s 2p 1d ]
  56  O  def2-svp [ 7s 4p 1d | 3s 2p 1d ]
  57  O  def2-svp [ 7s 4p 1d | 3s 2p 1d ]
  58  O  def2-svp [ 7s 4p 1d | 3s 2p 1d ]
  59  O  def2-svp [ 7s 4p 1d | 3s 2p 1d ]
  60  O  def2-svp [ 7s 4p 1d | 3s 2p 1d ]
  61  O  def2-svp [ 7s 4p 1d | 3s 2p 1d ]
  62  O  def2-svp [ 7s 4p 1d | 3s 2p 1d ]
  63  O  def2-svp [ 7s 4p 1d | 3s 2p 1d ]
  64  Mg def2-svp [ 10s 7p 1d | 4s 3p 1d ]
  65  Mg def2-svp [ 10s 7p 1d | 4s 3p 1d ]
  66  Mg def2-svp [ 10s 7p 1d | 4s 3p 1d ]
  67  Mg def2-svp [ 10s 7p 1d | 4s 3p 1d ]
  68  Mg def2-svp [ 10s 7p 1d | 4s 3p 1d ]
  69  Mg def2-svp [ 10s 7p 1d | 4s 3p 1d ]
  70  O  def2-svp [ 7s 4p 1d | 3s 2p 1d ]
  71  O  def2-svp [ 7s 4p 1d | 3s 2p 1d ]
  72  O  def2-svp [ 7s 4p 1d | 3s 2p 1d ]
  73  O  def2-svp [ 7s 4p 1d | 3s 2p 1d ]
  74  O  def2-svp [ 7s 4p 1d | 3s 2p 1d ]
  75  O  def2-svp [ 7s 4p 1d | 3s 2p 1d ]
  76  O  def2-svp [ 7s 4p 1d | 3s 2p 1d ]
  77  Mg def2-svp [ 10s 7p 1d | 4s 3p 1d ]
  78  Mg def2-svp [ 10s 7p 1d | 4s 3p 1d ]
  79  O  def2-svp [ 7s 4p 1d | 3s 2p 1d ]
  80  O  def2-svp [ 7s 4p 1d | 3s 2p 1d ]
  81  O  def2-svp [ 7s 4p 1d | 3s 2p 1d ]
  82  O  def2-svp [ 7s 4p 1d | 3s 2p 1d ]
  83  O  def2-svp [ 7s 4p 1d | 3s 2p 1d ]
  84  O  def2-svp [ 7s 4p 1d | 3s 2p 1d ]
  85  O  def2-svp [ 7s 4p 1d | 3s 2p 1d ]
  86  O  def2-svp [ 7s 4p 1d | 3s 2p 1d ]
  87  O  def2-svp [ 7s 4p 1d | 3s 2p 1d ]
  88  O  def2-svp [ 7s 4p 1d | 3s 2p 1d ]
 
 Basis functions:
            1             2             3             4             5             6             7             8             9            10
    0    1Au1s         1Au2s         1Au3s         1Au4s         1Au5s         1Au6s         1Au1pz        1Au1py        1Au1px        1Au2pz    
    1    1Au2py        1Au2px        1Au3pz        1Au3py        1Au3px        1Au1d-2       1Au1d-1       1Au1d0        1Au1d+1       1Au1d+2   
    2    1Au2d-2       1Au2d-1       1Au2d0        1Au2d+1       1Au2d+2       1Au1f-3       1Au1f-2       1Au1f-1       1Au1f0        1Au1f+1   
    3    1Au1f+2       1Au1f+3       2Au1s         2Au2s         2Au3s         2Au4s         2Au5s         2Au6s         2Au1pz        2Au1py    
    4    2Au1px        2Au2pz        2Au2py        2Au2px        2Au3pz        2Au3py        2Au3px        2Au1d-2       2Au1d-1       2Au1d0    
    5    2Au1d+1       2Au1d+2       2Au2d-2       2Au2d-1       2Au2d0        2Au2d+1       2Au2d+2       2Au1f-3       2Au1f-2       2Au1f-1   
    6    2Au1f0        2Au1f+1       2Au1f+2       2Au1f+3       3O1s          3O2s          3O3s          3O1pz         3O1py         3O1px     
    7    3O2pz         3O2py         3O2px         3O1d-2        3O1d-1        3O1d0         3O1d+1        3O1d+2        4Mg1s         4Mg2s     
    8    4Mg3s         4Mg4s         4Mg1pz        4Mg1py        4Mg1px        4Mg2pz        4Mg2py        4Mg2px        4Mg3pz        4Mg3py    
    9    4Mg3px        4Mg1d-2       4Mg1d-1       4Mg1d0        4Mg1d+1       4Mg1d+2       5Mg1s         5Mg2s         5Mg3s         5Mg4s     
   10    5Mg1pz        5Mg1py        5Mg1px        5Mg2pz        5Mg2py        5Mg2px        5Mg3pz        5Mg3py        5Mg3px        5Mg1d-2   
   11    5Mg1d-1       5Mg1d0        5Mg1d+1       5Mg1d+2       6Mg1s         6Mg2s         6Mg3s         6Mg4s         6Mg1pz        6Mg1py    
   12    6Mg1px        6Mg2pz        6Mg2py        6Mg2px        6Mg3pz        6Mg3py        6Mg3px        6Mg1d-2       6Mg1d-1       6Mg1d0    
   13    6Mg1d+1       6Mg1d+2       7Mg1s         7Mg2s         7Mg3s         7Mg4s         7Mg1pz        7Mg1py        7Mg1px        7Mg2pz    
   14    7Mg2py        7Mg2px        7Mg3pz        7Mg3py        7Mg3px        7Mg1d-2       7Mg1d-1       7Mg1d0        7Mg1d+1       7Mg1d+2   
   15    8Mg1s         8Mg2s         8Mg3s         8Mg4s         8Mg1pz        8Mg1py        8Mg1px        8Mg2pz        8Mg2py        8Mg2px    
   16    8Mg3pz        8Mg3py        8Mg3px        8Mg1d-2       8Mg1d-1       8Mg1d0        8Mg1d+1       8Mg1d+2       9O1s          9O2s      
   17    9O3s          9O1pz         9O1py         9O1px         9O2pz         9O2py         9O2px         9O1d-2        9O1d-1        9O1d0     
   18    9O1d+1        9O1d+2       10O1s         10O2s         10O3s         10O1pz        10O1py        10O1px        10O2pz        10O2py     
   19   10O2px        10O1d-2       10O1d-1       10O1d0        10O1d+1       10O1d+2       11O1s         11O2s         11O3s         11O1pz     
   20   11O1py        11O1px        11O2pz        11O2py        11O2px        11O1d-2       11O1d-1       11O1d0        11O1d+1       11O1d+2    
   21   12O1s         12O2s         12O3s         12O1pz        12O1py        12O1px        12O2pz        12O2py        12O2px        12O1d-2    
   22   12O1d-1       12O1d0        12O1d+1       12O1d+2       13O1s         13O2s         13O3s         13O1pz        13O1py        13O1px     
   23   13O2pz        13O2py        13O2px        13O1d-2       13O1d-1       13O1d0        13O1d+1       13O1d+2       14O1s         14O2s      
   24   14O3s         14O1pz        14O1py        14O1px        14O2pz        14O2py        14O2px        14O1d-2       14O1d-1       14O1d0     
   25   14O1d+1       14O1d+2       15O1s         15O2s         15O3s         15O1pz        15O1py        15O1px        15O2pz        15O2py     
   26   15O2px        15O1d-2       15O1d-1       15O1d0        15O1d+1       15O1d+2       16O1s         16O2s         16O3s         16O1pz     
   27   16O1py        16O1px        16O2pz        16O2py        16O2px        16O1d-2       16O1d-1       16O1d0        16O1d+1       16O1d+2    
   28   17Mg1s        17Mg2s        17Mg3s        17Mg4s        17Mg1pz       17Mg1py       17Mg1px       17Mg2pz       17Mg2py       17Mg2px    
   29   17Mg3pz       17Mg3py       17Mg3px       17Mg1d-2      17Mg1d-1      17Mg1d0       17Mg1d+1      17Mg1d+2      18Mg1s        18Mg2s     
   30   18Mg3s        18Mg4s        18Mg1pz       18Mg1py       18Mg1px       18Mg2pz       18Mg2py       18Mg2px       18Mg3pz       18Mg3py    
   31   18Mg3px       18Mg1d-2      18Mg1d-1      18Mg1d0       18Mg1d+1      18Mg1d+2      19Mg1s        19Mg2s        19Mg3s        19Mg4s     
   32   19Mg1pz       19Mg1py       19Mg1px       19Mg2pz       19Mg2py       19Mg2px       19Mg3pz       19Mg3py       19Mg3px       19Mg1d-2   
   33   19Mg1d-1      19Mg1d0       19Mg1d+1      19Mg1d+2      20Mg1s        20Mg2s        20Mg3s        20Mg4s        20Mg1pz       20Mg1py    
   34   20Mg1px       20Mg2pz       20Mg2py       20Mg2px       20Mg3pz       20Mg3py       20Mg3px       20Mg1d-2      20Mg1d-1      20Mg1d0    
   35   20Mg1d+1      20Mg1d+2      21O1s         21O2s         21O3s         21O1pz        21O1py        21O1px        21O2pz        21O2py     
   36   21O2px        21O1d-2       21O1d-1       21O1d0        21O1d+1       21O1d+2       22O1s         22O2s         22O3s         22O1pz     
   37   22O1py        22O1px        22O2pz        22O2py        22O2px        22O1d-2       22O1d-1       22O1d0        22O1d+1       22O1d+2    
   38   23O1s         23O2s         23O3s         23O1pz        23O1py        23O1px        23O2pz        23O2py        23O2px        23O1d-2    
   39   23O1d-1       23O1d0        23O1d+1       23O1d+2       24O1s         24O2s         24O3s         24O1pz        24O1py        24O1px     
   40   24O2pz        24O2py        24O2px        24O1d-2       24O1d-1       24O1d0        24O1d+1       24O1d+2       25Mg1s        25Mg2s     
   41   25Mg3s        25Mg4s        25Mg1pz       25Mg1py       25Mg1px       25Mg2pz       25Mg2py       25Mg2px       25Mg3pz       25Mg3py    
   42   25Mg3px       25Mg1d-2      25Mg1d-1      25Mg1d0       25Mg1d+1      25Mg1d+2      26Mg1s        26Mg2s        26Mg3s        26Mg4s     
   43   26Mg1pz       26Mg1py       26Mg1px       26Mg2pz       26Mg2py       26Mg2px       26Mg3pz       26Mg3py       26Mg3px       26Mg1d-2   
   44   26Mg1d-1      26Mg1d0       26Mg1d+1      26Mg1d+2      27Mg1s        27Mg2s        27Mg3s        27Mg4s        27Mg1pz       27Mg1py    
   45   27Mg1px       27Mg2pz       27Mg2py       27Mg2px       27Mg3pz       27Mg3py       27Mg3px       27Mg1d-2      27Mg1d-1      27Mg1d0    
   46   27Mg1d+1      27Mg1d+2      28Mg1s        28Mg2s        28Mg3s        28Mg4s        28Mg1pz       28Mg1py       28Mg1px       28Mg2pz    
   47   28Mg2py       28Mg2px       28Mg3pz       28Mg3py       28Mg3px       28Mg1d-2      28Mg1d-1      28Mg1d0       28Mg1d+1      28Mg1d+2   
   48   29Mg1s        29Mg2s        29Mg3s        29Mg4s        29Mg1pz       29Mg1py       29Mg1px       29Mg2pz       29Mg2py       29Mg2px    
   49   29Mg3pz       29Mg3py       29Mg3px       29Mg1d-2      29Mg1d-1      29Mg1d0       29Mg1d+1      29Mg1d+2      30Mg1s        30Mg2s     
   50   30Mg3s        30Mg4s        30Mg1pz       30Mg1py       30Mg1px       30Mg2pz       30Mg2py       30Mg2px       30Mg3pz       30Mg3py    
   51   30Mg3px       30Mg1d-2      30Mg1d-1      30Mg1d0       30Mg1d+1      30Mg1d+2      31Mg1s        31Mg2s        31Mg3s        31Mg4s     
   52   31Mg1pz       31Mg1py       31Mg1px       31Mg2pz       31Mg2py       31Mg2px       31Mg3pz       31Mg3py       31Mg3px       31Mg1d-2   
   53   31Mg1d-1      31Mg1d0       31Mg1d+1      31Mg1d+2      32Mg1s        32Mg2s        32Mg3s        32Mg4s        32Mg1pz       32Mg1py    
   54   32Mg1px       32Mg2pz       32Mg2py       32Mg2px       32Mg3pz       32Mg3py       32Mg3px       32Mg1d-2      32Mg1d-1      32Mg1d0    
   55   32Mg1d+1      32Mg1d+2      33Mg1s        33Mg2s        33Mg3s        33Mg4s        33Mg1pz       33Mg1py       33Mg1px       33Mg2pz    
   56   33Mg2py       33Mg2px       33Mg3pz       33Mg3py       33Mg3px       33Mg1d-2      33Mg1d-1      33Mg1d0       33Mg1d+1      33Mg1d+2   
   57   34Mg1s        34Mg2s        34Mg3s        34Mg4s        34Mg1pz       34Mg1py       34Mg1px       34Mg2pz       34Mg2py       34Mg2px    
   58   34Mg3pz       34Mg3py       34Mg3px       34Mg1d-2      34Mg1d-1      34Mg1d0       34Mg1d+1      34Mg1d+2      35Mg1s        35Mg2s     
   59   35Mg3s        35Mg4s        35Mg1pz       35Mg1py       35Mg1px       35Mg2pz       35Mg2py       35Mg2px       35Mg3pz       35Mg3py    
   60   35Mg3px       35Mg1d-2      35Mg1d-1      35Mg1d0       35Mg1d+1      35Mg1d+2      36O1s         36O2s         36O3s         36O1pz     
   61   36O1py        36O1px        36O2pz        36O2py        36O2px        36O1d-2       36O1d-1       36O1d0        36O1d+1       36O1d+2    
   62   37O1s         37O2s         37O3s         37O1pz        37O1py        37O1px        37O2pz        37O2py        37O2px        37O1d-2    
   63   37O1d-1       37O1d0        37O1d+1       37O1d+2       38O1s         38O2s         38O3s         38O1pz        38O1py        38O1px     
   64   38O2pz        38O2py        38O2px        38O1d-2       38O1d-1       38O1d0        38O1d+1       38O1d+2       39O1s         39O2s      
   65   39O3s         39O1pz        39O1py        39O1px        39O2pz        39O2py        39O2px        39O1d-2       39O1d-1       39O1d0     
   66   39O1d+1       39O1d+2       40O1s         40O2s         40O3s         40O1pz        40O1py        40O1px        40O2pz        40O2py     
   67   40O2px        40O1d-2       40O1d-1       40O1d0        40O1d+1       40O1d+2       41O1s         41O2s         41O3s         41O1pz     
   68   41O1py        41O1px        41O2pz        41O2py        41O2px        41O1d-2       41O1d-1       41O1d0        41O1d+1       41O1d+2    
   69   42O1s         42O2s         42O3s         42O1pz        42O1py        42O1px        42O2pz        42O2py        42O2px        42O1d-2    
   70   42O1d-1       42O1d0        42O1d+1       42O1d+2       43O1s         43O2s         43O3s         43O1pz        43O1py        43O1px     
   71   43O2pz        43O2py        43O2px        43O1d-2       43O1d-1       43O1d0        43O1d+1       43O1d+2       44O1s         44O2s      
   72   44O3s         44O1pz        44O1py        44O1px        44O2pz        44O2py        44O2px        44O1d-2       44O1d-1       44O1d0     
   73   44O1d+1       44O1d+2       45O1s         45O2s         45O3s         45O1pz        45O1py        45O1px        45O2pz        45O2py     
   74   45O2px        45O1d-2       45O1d-1       45O1d0        45O1d+1       45O1d+2       46O1s         46O2s         46O3s         46O1pz     
   75   46O1py        46O1px        46O2pz        46O2py        46O2px        46O1d-2       46O1d-1       46O1d0        46O1d+1       46O1d+2    
   76   47O1s         47O2s         47O3s         47O1pz        47O1py        47O1px        47O2pz        47O2py        47O2px        47O1d-2    
   77   47O1d-1       47O1d0        47O1d+1       47O1d+2       48Mg1s        48Mg2s        48Mg3s        48Mg4s        48Mg1pz       48Mg1py    
   78   48Mg1px       48Mg2pz       48Mg2py       48Mg2px       48Mg3pz       48Mg3py       48Mg3px       48Mg1d-2      48Mg1d-1      48Mg1d0    
   79   48Mg1d+1      48Mg1d+2      49Mg1s        49Mg2s        49Mg3s        49Mg4s        49Mg1pz       49Mg1py       49Mg1px       49Mg2pz    
   80   49Mg2py       49Mg2px       49Mg3pz       49Mg3py       49Mg3px       49Mg1d-2      49Mg1d-1      49Mg1d0       49Mg1d+1      49Mg1d+2   
   81   50Mg1s        50Mg2s        50Mg3s        50Mg4s        50Mg1pz       50Mg1py       50Mg1px       50Mg2pz       50Mg2py       50Mg2px    
   82   50Mg3pz       50Mg3py       50Mg3px       50Mg1d-2      50Mg1d-1      50Mg1d0       50Mg1d+1      50Mg1d+2      51Mg1s        51Mg2s     
   83   51Mg3s        51Mg4s        51Mg1pz       51Mg1py       51Mg1px       51Mg2pz       51Mg2py       51Mg2px       51Mg3pz       51Mg3py    
   84   51Mg3px       51Mg1d-2      51Mg1d-1      51Mg1d0       51Mg1d+1      51Mg1d+2      52Mg1s        52Mg2s        52Mg3s        52Mg4s     
   85   52Mg1pz       52Mg1py       52Mg1px       52Mg2pz       52Mg2py       52Mg2px       52Mg3pz       52Mg3py       52Mg3px       52Mg1d-2   
   86   52Mg1d-1      52Mg1d0       52Mg1d+1      52Mg1d+2      53O1s         53O2s         53O3s         53O1pz        53O1py        53O1px     
   87   53O2pz        53O2py        53O2px        53O1d-2       53O1d-1       53O1d0        53O1d+1       53O1d+2       54O1s         54O2s      
   88   54O3s         54O1pz        54O1py        54O1px        54O2pz        54O2py        54O2px        54O1d-2       54O1d-1       54O1d0     
   89   54O1d+1       54O1d+2       55O1s         55O2s         55O3s         55O1pz        55O1py        55O1px        55O2pz        55O2py     
   90   55O2px        55O1d-2       55O1d-1       55O1d0        55O1d+1       55O1d+2       56O1s         56O2s         56O3s         56O1pz     
   91   56O1py        56O1px        56O2pz        56O2py        56O2px        56O1d-2       56O1d-1       56O1d0        56O1d+1       56O1d+2    
   92   57O1s         57O2s         57O3s         57O1pz        57O1py        57O1px        57O2pz        57O2py        57O2px        57O1d-2    
   93   57O1d-1       57O1d0        57O1d+1       57O1d+2       58O1s         58O2s         58O3s         58O1pz        58O1py        58O1px     
   94   58O2pz        58O2py        58O2px        58O1d-2       58O1d-1       58O1d0        58O1d+1       58O1d+2       59O1s         59O2s      
   95   59O3s         59O1pz        59O1py        59O1px        59O2pz        59O2py        59O2px        59O1d-2       59O1d-1       59O1d0     
   96   59O1d+1       59O1d+2       60O1s         60O2s         60O3s         60O1pz        60O1py        60O1px        60O2pz        60O2py     
   97   60O2px        60O1d-2       60O1d-1       60O1d0        60O1d+1       60O1d+2       61O1s         61O2s         61O3s         61O1pz     
   98   61O1py        61O1px        61O2pz        61O2py        61O2px        61O1d-2       61O1d-1       61O1d0        61O1d+1       61O1d+2    
   99   62O1s         62O2s         62O3s         62O1pz        62O1py        62O1px        62O2pz        62O2py        62O2px        62O1d-2    
  100   62O1d-1       62O1d0        62O1d+1       62O1d+2       63O1s         63O2s         63O3s         63O1pz        63O1py        63O1px     
  101   63O2pz        63O2py        63O2px        63O1d-2       63O1d-1       63O1d0        63O1d+1       63O1d+2       64Mg1s        64Mg2s     
  102   64Mg3s        64Mg4s        64Mg1pz       64Mg1py       64Mg1px       64Mg2pz       64Mg2py       64Mg2px       64Mg3pz       64Mg3py    
  103   64Mg3px       64Mg1d-2      64Mg1d-1      64Mg1d0       64Mg1d+1      64Mg1d+2      65Mg1s        65Mg2s        65Mg3s        65Mg4s     
  104   65Mg1pz       65Mg1py       65Mg1px       65Mg2pz       65Mg2py       65Mg2px       65Mg3pz       65Mg3py       65Mg3px       65Mg1d-2   
  105   65Mg1d-1      65Mg1d0       65Mg1d+1      65Mg1d+2      66Mg1s        66Mg2s        66Mg3s        66Mg4s        66Mg1pz       66Mg1py    
  106   66Mg1px       66Mg2pz       66Mg2py       66Mg2px       66Mg3pz       66Mg3py       66Mg3px       66Mg1d-2      66Mg1d-1      66Mg1d0    
  107   66Mg1d+1      66Mg1d+2      67Mg1s        67Mg2s        67Mg3s        67Mg4s        67Mg1pz       67Mg1py       67Mg1px       67Mg2pz    
  108   67Mg2py       67Mg2px       67Mg3pz       67Mg3py       67Mg3px       67Mg1d-2      67Mg1d-1      67Mg1d0       67Mg1d+1      67Mg1d+2   
  109   68Mg1s        68Mg2s        68Mg3s        68Mg4s        68Mg1pz       68Mg1py       68Mg1px       68Mg2pz       68Mg2py       68Mg2px    
  110   68Mg3pz       68Mg3py       68Mg3px       68Mg1d-2      68Mg1d-1      68Mg1d0       68Mg1d+1      68Mg1d+2      69Mg1s        69Mg2s     
  111   69Mg3s        69Mg4s        69Mg1pz       69Mg1py       69Mg1px       69Mg2pz       69Mg2py       69Mg2px       69Mg3pz       69Mg3py    
  112   69Mg3px       69Mg1d-2      69Mg1d-1      69Mg1d0       69Mg1d+1      69Mg1d+2      70O1s         70O2s         70O3s         70O1pz     
  113   70O1py        70O1px        70O2pz        70O2py        70O2px        70O1d-2       70O1d-1       70O1d0        70O1d+1       70O1d+2    
  114   71O1s         71O2s         71O3s         71O1pz        71O1py        71O1px        71O2pz        71O2py        71O2px        71O1d-2    
  115   71O1d-1       71O1d0        71O1d+1       71O1d+2       72O1s         72O2s         72O3s         72O1pz        72O1py        72O1px     
  116   72O2pz        72O2py        72O2px        72O1d-2       72O1d-1       72O1d0        72O1d+1       72O1d+2       73O1s         73O2s      
  117   73O3s         73O1pz        73O1py        73O1px        73O2pz        73O2py        73O2px        73O1d-2       73O1d-1       73O1d0     
  118   73O1d+1       73O1d+2       74O1s         74O2s         74O3s         74O1pz        74O1py        74O1px        74O2pz        74O2py     
  119   74O2px        74O1d-2       74O1d-1       74O1d0        74O1d+1       74O1d+2       75O1s         75O2s         75O3s         75O1pz     
  120   75O1py        75O1px        75O2pz        75O2py        75O2px        75O1d-2       75O1d-1       75O1d0        75O1d+1       75O1d+2    
  121   76O1s         76O2s         76O3s         76O1pz        76O1py        76O1px        76O2pz        76O2py        76O2px        76O1d-2    
  122   76O1d-1       76O1d0        76O1d+1       76O1d+2       77Mg1s        77Mg2s        77Mg3s        77Mg4s        77Mg1pz       77Mg1py    
  123   77Mg1px       77Mg2pz       77Mg2py       77Mg2px       77Mg3pz       77Mg3py       77Mg3px       77Mg1d-2      77Mg1d-1      77Mg1d0    
  124   77Mg1d+1      77Mg1d+2      78Mg1s        78Mg2s        78Mg3s        78Mg4s        78Mg1pz       78Mg1py       78Mg1px       78Mg2pz    
  125   78Mg2py       78Mg2px       78Mg3pz       78Mg3py       78Mg3px       78Mg1d-2      78Mg1d-1      78Mg1d0       78Mg1d+1      78Mg1d+2   
  126   79O1s         79O2s         79O3s         79O1pz        79O1py        79O1px        79O2pz        79O2py        79O2px        79O1d-2    
  127   79O1d-1       79O1d0        79O1d+1       79O1d+2       80O1s         80O2s         80O3s         80O1pz        80O1py        80O1px     
  128   80O2pz        80O2py        80O2px        80O1d-2       80O1d-1       80O1d0        80O1d+1       80O1d+2       81O1s         81O2s      
  129   81O3s         81O1pz        81O1py        81O1px        81O2pz        81O2py        81O2px        81O1d-2       81O1d-1       81O1d0     
  130   81O1d+1       81O1d+2       82O1s         82O2s         82O3s         82O1pz        82O1py        82O1px        82O2pz        82O2py     
  131   82O2px        82O1d-2       82O1d-1       82O1d0        82O1d+1       82O1d+2       83O1s         83O2s         83O3s         83O1pz     
  132   83O1py        83O1px        83O2pz        83O2py        83O2px        83O1d-2       83O1d-1       83O1d0        83O1d+1       83O1d+2    
  133   84O1s         84O2s         84O3s         84O1pz        84O1py        84O1px        84O2pz        84O2py        84O2px        84O1d-2    
  134   84O1d-1       84O1d0        84O1d+1       84O1d+2       85O1s         85O2s         85O3s         85O1pz        85O1py        85O1px     
  135   85O2pz        85O2py        85O2px        85O1d-2       85O1d-1       85O1d0        85O1d+1       85O1d+2       86O1s         86O2s      
  136   86O3s         86O1pz        86O1py        86O1px        86O2pz        86O2py        86O2px        86O1d-2       86O1d-1       86O1d0     
  137   86O1d+1       86O1d+2       87O1s         87O2s         87O3s         87O1pz        87O1py        87O1px        87O2pz        87O2py     
  138   87O2px        87O1d-2       87O1d-1       87O1d0        87O1d+1       87O1d+2       88O1s         88O2s         88O3s         88O1pz     
  139   88O1py        88O1px        88O2pz        88O2py        88O2px        88O1d-2       88O1d-1       88O1d0        88O1d+1       88O1d+2    
 
 Maximum number of basis functions per shell:   10
 Total number of basis functions:   1400
 
 
 Fitting basis set for the SCF calculation:
 
   1  Au def2-qzvpp-ri-jk [ 13s 12p 11d 9f 5g 3h 2i | 13s 11p 10d 8f 4g 3h 2i ]
   2  Au def2-qzvpp-ri-jk [ 13s 12p 11d 9f 5g 3h 2i | 13s 11p 10d 8f 4g 3h 2i ]
   3  O  def2-qzvpp-ri-jk [ 14s 10p 6d 2f 1g | 10s 8p 4d 2f 1g ]
   4  Mg def2-qzvpp-ri-jk [ 16s 12p 9d 4f 1g | 13s 9p 7d 4f 1g ]
   5  Mg def2-qzvpp-ri-jk [ 16s 12p 9d 4f 1g | 13s 9p 7d 4f 1g ]
   6  Mg def2-qzvpp-ri-jk [ 16s 12p 9d 4f 1g | 13s 9p 7d 4f 1g ]
   7  Mg def2-qzvpp-ri-jk [ 16s 12p 9d 4f 1g | 13s 9p 7d 4f 1g ]
   8  Mg def2-qzvpp-ri-jk [ 16s 12p 9d 4f 1g | 13s 9p 7d 4f 1g ]
   9  O  def2-qzvpp-ri-jk [ 14s 10p 6d 2f 1g | 10s 8p 4d 2f 1g ]
  10  O  def2-qzvpp-ri-jk [ 14s 10p 6d 2f 1g | 10s 8p 4d 2f 1g ]
  11  O  def2-qzvpp-ri-jk [ 14s 10p 6d 2f 1g | 10s 8p 4d 2f 1g ]
  12  O  def2-qzvpp-ri-jk [ 14s 10p 6d 2f 1g | 10s 8p 4d 2f 1g ]
  13  O  def2-qzvpp-ri-jk [ 14s 10p 6d 2f 1g | 10s 8p 4d 2f 1g ]
  14  O  def2-qzvpp-ri-jk [ 14s 10p 6d 2f 1g | 10s 8p 4d 2f 1g ]
  15  O  def2-qzvpp-ri-jk [ 14s 10p 6d 2f 1g | 10s 8p 4d 2f 1g ]
  16  O  def2-qzvpp-ri-jk [ 14s 10p 6d 2f 1g | 10s 8p 4d 2f 1g ]
  17  Mg def2-qzvpp-ri-jk [ 16s 12p 9d 4f 1g | 13s 9p 7d 4f 1g ]
  18  Mg def2-qzvpp-ri-jk [ 16s 12p 9d 4f 1g | 13s 9p 7d 4f 1g ]
  19  Mg def2-qzvpp-ri-jk [ 16s 12p 9d 4f 1g | 13s 9p 7d 4f 1g ]
  20  Mg def2-qzvpp-ri-jk [ 16s 12p 9d 4f 1g | 13s 9p 7d 4f 1g ]
  21  O  def2-qzvpp-ri-jk [ 14s 10p 6d 2f 1g | 10s 8p 4d 2f 1g ]
  22  O  def2-qzvpp-ri-jk [ 14s 10p 6d 2f 1g | 10s 8p 4d 2f 1g ]
  23  O  def2-qzvpp-ri-jk [ 14s 10p 6d 2f 1g | 10s 8p 4d 2f 1g ]
  24  O  def2-qzvpp-ri-jk [ 14s 10p 6d 2f 1g | 10s 8p 4d 2f 1g ]
  25  Mg def2-qzvpp-ri-jk [ 16s 12p 9d 4f 1g | 13s 9p 7d 4f 1g ]
  26  Mg def2-qzvpp-ri-jk [ 16s 12p 9d 4f 1g | 13s 9p 7d 4f 1g ]
  27  Mg def2-qzvpp-ri-jk [ 16s 12p 9d 4f 1g | 13s 9p 7d 4f 1g ]
  28  Mg def2-qzvpp-ri-jk [ 16s 12p 9d 4f 1g | 13s 9p 7d 4f 1g ]
  29  Mg def2-qzvpp-ri-jk [ 16s 12p 9d 4f 1g | 13s 9p 7d 4f 1g ]
  30  Mg def2-qzvpp-ri-jk [ 16s 12p 9d 4f 1g | 13s 9p 7d 4f 1g ]
  31  Mg def2-qzvpp-ri-jk [ 16s 12p 9d 4f 1g | 13s 9p 7d 4f 1g ]
  32  Mg def2-qzvpp-ri-jk [ 16s 12p 9d 4f 1g | 13s 9p 7d 4f 1g ]
  33  Mg def2-qzvpp-ri-jk [ 16s 12p 9d 4f 1g | 13s 9p 7d 4f 1g ]
  34  Mg def2-qzvpp-ri-jk [ 16s 12p 9d 4f 1g | 13s 9p 7d 4f 1g ]
  35  Mg def2-qzvpp-ri-jk [ 16s 12p 9d 4f 1g | 13s 9p 7d 4f 1g ]
  36  O  def2-qzvpp-ri-jk [ 14s 10p 6d 2f 1g | 10s 8p 4d 2f 1g ]
  37  O  def2-qzvpp-ri-jk [ 14s 10p 6d 2f 1g | 10s 8p 4d 2f 1g ]
  38  O  def2-qzvpp-ri-jk [ 14s 10p 6d 2f 1g | 10s 8p 4d 2f 1g ]
  39  O  def2-qzvpp-ri-jk [ 14s 10p 6d 2f 1g | 10s 8p 4d 2f 1g ]
  40  O  def2-qzvpp-ri-jk [ 14s 10p 6d 2f 1g | 10s 8p 4d 2f 1g ]
  41  O  def2-qzvpp-ri-jk [ 14s 10p 6d 2f 1g | 10s 8p 4d 2f 1g ]
  42  O  def2-qzvpp-ri-jk [ 14s 10p 6d 2f 1g | 10s 8p 4d 2f 1g ]
  43  O  def2-qzvpp-ri-jk [ 14s 10p 6d 2f 1g | 10s 8p 4d 2f 1g ]
  44  O  def2-qzvpp-ri-jk [ 14s 10p 6d 2f 1g | 10s 8p 4d 2f 1g ]
  45  O  def2-qzvpp-ri-jk [ 14s 10p 6d 2f 1g | 10s 8p 4d 2f 1g ]
  46  O  def2-qzvpp-ri-jk [ 14s 10p 6d 2f 1g | 10s 8p 4d 2f 1g ]
  47  O  def2-qzvpp-ri-jk [ 14s 10p 6d 2f 1g | 10s 8p 4d 2f 1g ]
  48  Mg def2-qzvpp-ri-jk [ 16s 12p 9d 4f 1g | 13s 9p 7d 4f 1g ]
  49  Mg def2-qzvpp-ri-jk [ 16s 12p 9d 4f 1g | 13s 9p 7d 4f 1g ]
  50  Mg def2-qzvpp-ri-jk [ 16s 12p 9d 4f 1g | 13s 9p 7d 4f 1g ]
  51  Mg def2-qzvpp-ri-jk [ 16s 12p 9d 4f 1g | 13s 9p 7d 4f 1g ]
  52  Mg def2-qzvpp-ri-jk [ 16s 12p 9d 4f 1g | 13s 9p 7d 4f 1g ]
  53  O  def2-qzvpp-ri-jk [ 14s 10p 6d 2f 1g | 10s 8p 4d 2f 1g ]
  54  O  def2-qzvpp-ri-jk [ 14s 10p 6d 2f 1g | 10s 8p 4d 2f 1g ]
  55  O  def2-qzvpp-ri-jk [ 14s 10p 6d 2f 1g | 10s 8p 4d 2f 1g ]
  56  O  def2-qzvpp-ri-jk [ 14s 10p 6d 2f 1g | 10s 8p 4d 2f 1g ]
  57  O  def2-qzvpp-ri-jk [ 14s 10p 6d 2f 1g | 10s 8p 4d 2f 1g ]
  58  O  def2-qzvpp-ri-jk [ 14s 10p 6d 2f 1g | 10s 8p 4d 2f 1g ]
  59  O  def2-qzvpp-ri-jk [ 14s 10p 6d 2f 1g | 10s 8p 4d 2f 1g ]
  60  O  def2-qzvpp-ri-jk [ 14s 10p 6d 2f 1g | 10s 8p 4d 2f 1g ]
  61  O  def2-qzvpp-ri-jk [ 14s 10p 6d 2f 1g | 10s 8p 4d 2f 1g ]
  62  O  def2-qzvpp-ri-jk [ 14s 10p 6d 2f 1g | 10s 8p 4d 2f 1g ]
  63  O  def2-qzvpp-ri-jk [ 14s 10p 6d 2f 1g | 10s 8p 4d 2f 1g ]
  64  Mg def2-qzvpp-ri-jk [ 16s 12p 9d 4f 1g | 13s 9p 7d 4f 1g ]
  65  Mg def2-qzvpp-ri-jk [ 16s 12p 9d 4f 1g | 13s 9p 7d 4f 1g ]
  66  Mg def2-qzvpp-ri-jk [ 16s 12p 9d 4f 1g | 13s 9p 7d 4f 1g ]
  67  Mg def2-qzvpp-ri-jk [ 16s 12p 9d 4f 1g | 13s 9p 7d 4f 1g ]
  68  Mg def2-qzvpp-ri-jk [ 16s 12p 9d 4f 1g | 13s 9p 7d 4f 1g ]
  69  Mg def2-qzvpp-ri-jk [ 16s 12p 9d 4f 1g | 13s 9p 7d 4f 1g ]
  70  O  def2-qzvpp-ri-jk [ 14s 10p 6d 2f 1g | 10s 8p 4d 2f 1g ]
  71  O  def2-qzvpp-ri-jk [ 14s 10p 6d 2f 1g | 10s 8p 4d 2f 1g ]
  72  O  def2-qzvpp-ri-jk [ 14s 10p 6d 2f 1g | 10s 8p 4d 2f 1g ]
  73  O  def2-qzvpp-ri-jk [ 14s 10p 6d 2f 1g | 10s 8p 4d 2f 1g ]
  74  O  def2-qzvpp-ri-jk [ 14s 10p 6d 2f 1g | 10s 8p 4d 2f 1g ]
  75  O  def2-qzvpp-ri-jk [ 14s 10p 6d 2f 1g | 10s 8p 4d 2f 1g ]
  76  O  def2-qzvpp-ri-jk [ 14s 10p 6d 2f 1g | 10s 8p 4d 2f 1g ]
  77  Mg def2-qzvpp-ri-jk [ 16s 12p 9d 4f 1g | 13s 9p 7d 4f 1g ]
  78  Mg def2-qzvpp-ri-jk [ 16s 12p 9d 4f 1g | 13s 9p 7d 4f 1g ]
  79  O  def2-qzvpp-ri-jk [ 14s 10p 6d 2f 1g | 10s 8p 4d 2f 1g ]
  80  O  def2-qzvpp-ri-jk [ 14s 10p 6d 2f 1g | 10s 8p 4d 2f 1g ]
  81  O  def2-qzvpp-ri-jk [ 14s 10p 6d 2f 1g | 10s 8p 4d 2f 1g ]
  82  O  def2-qzvpp-ri-jk [ 14s 10p 6d 2f 1g | 10s 8p 4d 2f 1g ]
  83  O  def2-qzvpp-ri-jk [ 14s 10p 6d 2f 1g | 10s 8p 4d 2f 1g ]
  84  O  def2-qzvpp-ri-jk [ 14s 10p 6d 2f 1g | 10s 8p 4d 2f 1g ]
  85  O  def2-qzvpp-ri-jk [ 14s 10p 6d 2f 1g | 10s 8p 4d 2f 1g ]
  86  O  def2-qzvpp-ri-jk [ 14s 10p 6d 2f 1g | 10s 8p 4d 2f 1g ]
  87  O  def2-qzvpp-ri-jk [ 14s 10p 6d 2f 1g | 10s 8p 4d 2f 1g ]
  88  O  def2-qzvpp-ri-jk [ 14s 10p 6d 2f 1g | 10s 8p 4d 2f 1g ]
 
 Basis functions:
            1             2             3             4             5             6             7             8             9            10
    0    1Au1s         1Au2s         1Au3s         1Au4s         1Au5s         1Au6s         1Au7s         1Au8s         1Au9s         1Au10s    
    1    1Au11s        1Au12s        1Au13s        1Au1pz        1Au1py        1Au1px        1Au2pz        1Au2py        1Au2px        1Au3pz    
    2    1Au3py        1Au3px        1Au4pz        1Au4py        1Au4px        1Au5pz        1Au5py        1Au5px        1Au6pz        1Au6py    
    3    1Au6px        1Au7pz        1Au7py        1Au7px        1Au8pz        1Au8py        1Au8px        1Au9pz        1Au9py        1Au9px    
    4    1Au10pz       1Au10py       1Au10px       1Au11pz       1Au11py       1Au11px       1Au1d-2       1Au1d-1       1Au1d0        1Au1d+1   
    5    1Au1d+2       1Au2d-2       1Au2d-1       1Au2d0        1Au2d+1       1Au2d+2       1Au3d-2       1Au3d-1       1Au3d0        1Au3d+1   
    6    1Au3d+2       1Au4d-2       1Au4d-1       1Au4d0        1Au4d+1       1Au4d+2       1Au5d-2       1Au5d-1       1Au5d0        1Au5d+1   
    7    1Au5d+2       1Au6d-2       1Au6d-1       1Au6d0        1Au6d+1       1Au6d+2       1Au7d-2       1Au7d-1       1Au7d0        1Au7d+1   
    8    1Au7d+2       1Au8d-2       1Au8d-1       1Au8d0        1Au8d+1       1Au8d+2       1Au9d-2       1Au9d-1       1Au9d0        1Au9d+1   
    9    1Au9d+2       1Au10d-2      1Au10d-1      1Au10d0       1Au10d+1      1Au10d+2      1Au1f-3       1Au1f-2       1Au1f-1       1Au1f0    
   10    1Au1f+1       1Au1f+2       1Au1f+3       1Au2f-3       1Au2f-2       1Au2f-1       1Au2f0        1Au2f+1       1Au2f+2       1Au2f+3   
   11    1Au3f-3       1Au3f-2       1Au3f-1       1Au3f0        1Au3f+1       1Au3f+2       1Au3f+3       1Au4f-3       1Au4f-2       1Au4f-1   
   12    1Au4f0        1Au4f+1       1Au4f+2       1Au4f+3       1Au5f-3       1Au5f-2       1Au5f-1       1Au5f0        1Au5f+1       1Au5f+2   
   13    1Au5f+3       1Au6f-3       1Au6f-2       1Au6f-1       1Au6f0        1Au6f+1       1Au6f+2       1Au6f+3       1Au7f-3       1Au7f-2   
   14    1Au7f-1       1Au7f0        1Au7f+1       1Au7f+2       1Au7f+3       1Au8f-3       1Au8f-2       1Au8f-1       1Au8f0        1Au8f+1   
   15    1Au8f+2       1Au8f+3       1Au1g-4       1Au1g-3       1Au1g-2       1Au1g-1       1Au1g0        1Au1g+1       1Au1g+2       1Au1g+3   
   16    1Au1g+4       1Au2g-4       1Au2g-3       1Au2g-2       1Au2g-1       1Au2g0        1Au2g+1       1Au2g+2       1Au2g+3       1Au2g+4   
   17    1Au3g-4       1Au3g-3       1Au3g-2       1Au3g-1       1Au3g0        1Au3g+1       1Au3g+2       1Au3g+3       1Au3g+4       1Au4g-4   
   18    1Au4g-3       1Au4g-2       1Au4g-1       1Au4g0        1Au4g+1       1Au4g+2       1Au4g+3       1Au4g+4       1Au1h-5       1Au1h-4   
   19    1Au1h-3       1Au1h-2       1Au1h-1       1Au1h0        1Au1h+1       1Au1h+2       1Au1h+3       1Au1h+4       1Au1h+5       1Au2h-5   
   20    1Au2h-4       1Au2h-3       1Au2h-2       1Au2h-1       1Au2h0        1Au2h+1       1Au2h+2       1Au2h+3       1Au2h+4       1Au2h+5   
   21    1Au3h-5       1Au3h-4       1Au3h-3       1Au3h-2       1Au3h-1       1Au3h0        1Au3h+1       1Au3h+2       1Au3h+3       1Au3h+4   
   22    1Au3h+5       1Au1i-6       1Au1i-5       1Au1i-4       1Au1i-3       1Au1i-2       1Au1i-1       1Au1i0        1Au1i+1       1Au1i+2   
   23    1Au1i+3       1Au1i+4       1Au1i+5       1Au1i+6       1Au2i-6       1Au2i-5       1Au2i-4       1Au2i-3       1Au2i-2       1Au2i-1   
   24    1Au2i0        1Au2i+1       1Au2i+2       1Au2i+3       1Au2i+4       1Au2i+5       1Au2i+6       2Au1s         2Au2s         2Au3s     
   25    2Au4s         2Au5s         2Au6s         2Au7s         2Au8s         2Au9s         2Au10s        2Au11s        2Au12s        2Au13s    
   26    2Au1pz        2Au1py        2Au1px        2Au2pz        2Au2py        2Au2px        2Au3pz        2Au3py        2Au3px        2Au4pz    
   27    2Au4py        2Au4px        2Au5pz        2Au5py        2Au5px        2Au6pz        2Au6py        2Au6px        2Au7pz        2Au7py    
   28    2Au7px        2Au8pz        2Au8py        2Au8px        2Au9pz        2Au9py        2Au9px        2Au10pz       2Au10py       2Au10px   
   29    2Au11pz       2Au11py       2Au11px       2Au1d-2       2Au1d-1       2Au1d0        2Au1d+1       2Au1d+2       2Au2d-2       2Au2d-1   
   30    2Au2d0        2Au2d+1       2Au2d+2       2Au3d-2       2Au3d-1       2Au3d0        2Au3d+1       2Au3d+2       2Au4d-2       2Au4d-1   
   31    2Au4d0        2Au4d+1       2Au4d+2       2Au5d-2       2Au5d-1       2Au5d0        2Au5d+1       2Au5d+2       2Au6d-2       2Au6d-1   
   32    2Au6d0        2Au6d+1       2Au6d+2       2Au7d-2       2Au7d-1       2Au7d0        2Au7d+1       2Au7d+2       2Au8d-2       2Au8d-1   
   33    2Au8d0        2Au8d+1       2Au8d+2       2Au9d-2       2Au9d-1       2Au9d0        2Au9d+1       2Au9d+2       2Au10d-2      2Au10d-1  
   34    2Au10d0       2Au10d+1      2Au10d+2      2Au1f-3       2Au1f-2       2Au1f-1       2Au1f0        2Au1f+1       2Au1f+2       2Au1f+3   
   35    2Au2f-3       2Au2f-2       2Au2f-1       2Au2f0        2Au2f+1       2Au2f+2       2Au2f+3       2Au3f-3       2Au3f-2       2Au3f-1   
   36    2Au3f0        2Au3f+1       2Au3f+2       2Au3f+3       2Au4f-3       2Au4f-2       2Au4f-1       2Au4f0        2Au4f+1       2Au4f+2   
   37    2Au4f+3       2Au5f-3       2Au5f-2       2Au5f-1       2Au5f0        2Au5f+1       2Au5f+2       2Au5f+3       2Au6f-3       2Au6f-2   
   38    2Au6f-1       2Au6f0        2Au6f+1       2Au6f+2       2Au6f+3       2Au7f-3       2Au7f-2       2Au7f-1       2Au7f0        2Au7f+1   
   39    2Au7f+2       2Au7f+3       2Au8f-3       2Au8f-2       2Au8f-1       2Au8f0        2Au8f+1       2Au8f+2       2Au8f+3       2Au1g-4   
   40    2Au1g-3       2Au1g-2       2Au1g-1       2Au1g0        2Au1g+1       2Au1g+2       2Au1g+3       2Au1g+4       2Au2g-4       2Au2g-3   
   41    2Au2g-2       2Au2g-1       2Au2g0        2Au2g+1       2Au2g+2       2Au2g+3       2Au2g+4       2Au3g-4       2Au3g-3       2Au3g-2   
   42    2Au3g-1       2Au3g0        2Au3g+1       2Au3g+2       2Au3g+3       2Au3g+4       2Au4g-4       2Au4g-3       2Au4g-2       2Au4g-1   
   43    2Au4g0        2Au4g+1       2Au4g+2       2Au4g+3       2Au4g+4       2Au1h-5       2Au1h-4       2Au1h-3       2Au1h-2       2Au1h-1   
   44    2Au1h0        2Au1h+1       2Au1h+2       2Au1h+3       2Au1h+4       2Au1h+5       2Au2h-5       2Au2h-4       2Au2h-3       2Au2h-2   
   45    2Au2h-1       2Au2h0        2Au2h+1       2Au2h+2       2Au2h+3       2Au2h+4       2Au2h+5       2Au3h-5       2Au3h-4       2Au3h-3   
   46    2Au3h-2       2Au3h-1       2Au3h0        2Au3h+1       2Au3h+2       2Au3h+3       2Au3h+4       2Au3h+5       2Au1i-6       2Au1i-5   
   47    2Au1i-4       2Au1i-3       2Au1i-2       2Au1i-1       2Au1i0        2Au1i+1       2Au1i+2       2Au1i+3       2Au1i+4       2Au1i+5   
   48    2Au1i+6       2Au2i-6       2Au2i-5       2Au2i-4       2Au2i-3       2Au2i-2       2Au2i-1       2Au2i0        2Au2i+1       2Au2i+2   
   49    2Au2i+3       2Au2i+4       2Au2i+5       2Au2i+6       3O1s          3O2s          3O3s          3O4s          3O5s          3O6s      
   50    3O7s          3O8s          3O9s          3O10s         3O1pz         3O1py         3O1px         3O2pz         3O2py         3O2px     
   51    3O3pz         3O3py         3O3px         3O4pz         3O4py         3O4px         3O5pz         3O5py         3O5px         3O6pz     
   52    3O6py         3O6px         3O7pz         3O7py         3O7px         3O8pz         3O8py         3O8px         3O1d-2        3O1d-1    
   53    3O1d0         3O1d+1        3O1d+2        3O2d-2        3O2d-1        3O2d0         3O2d+1        3O2d+2        3O3d-2        3O3d-1    
   54    3O3d0         3O3d+1        3O3d+2        3O4d-2        3O4d-1        3O4d0         3O4d+1        3O4d+2        3O1f-3        3O1f-2    
   55    3O1f-1        3O1f0         3O1f+1        3O1f+2        3O1f+3        3O2f-3        3O2f-2        3O2f-1        3O2f0         3O2f+1    
   56    3O2f+2        3O2f+3        3O1g-4        3O1g-3        3O1g-2        3O1g-1        3O1g0         3O1g+1        3O1g+2        3O1g+3    
   57    3O1g+4        4Mg1s         4Mg2s         4Mg3s         4Mg4s         4Mg5s         4Mg6s         4Mg7s         4Mg8s         4Mg9s     
   58    4Mg10s        4Mg11s        4Mg12s        4Mg13s        4Mg1pz        4Mg1py        4Mg1px        4Mg2pz        4Mg2py        4Mg2px    
   59    4Mg3pz        4Mg3py        4Mg3px        4Mg4pz        4Mg4py        4Mg4px        4Mg5pz        4Mg5py        4Mg5px        4Mg6pz    
   60    4Mg6py        4Mg6px        4Mg7pz        4Mg7py        4Mg7px        4Mg8pz        4Mg8py        4Mg8px        4Mg9pz        4Mg9py    
   61    4Mg9px        4Mg1d-2       4Mg1d-1       4Mg1d0        4Mg1d+1       4Mg1d+2       4Mg2d-2       4Mg2d-1       4Mg2d0        4Mg2d+1   
   62    4Mg2d+2       4Mg3d-2       4Mg3d-1       4Mg3d0        4Mg3d+1       4Mg3d+2       4Mg4d-2       4Mg4d-1       4Mg4d0        4Mg4d+1   
   63    4Mg4d+2       4Mg5d-2       4Mg5d-1       4Mg5d0        4Mg5d+1       4Mg5d+2       4Mg6d-2       4Mg6d-1       4Mg6d0        4Mg6d+1   
   64    4Mg6d+2       4Mg7d-2       4Mg7d-1       4Mg7d0        4Mg7d+1       4Mg7d+2       4Mg1f-3       4Mg1f-2       4Mg1f-1       4Mg1f0    
   65    4Mg1f+1       4Mg1f+2       4Mg1f+3       4Mg2f-3       4Mg2f-2       4Mg2f-1       4Mg2f0        4Mg2f+1       4Mg2f+2       4Mg2f+3   
   66    4Mg3f-3       4Mg3f-2       4Mg3f-1       4Mg3f0        4Mg3f+1       4Mg3f+2       4Mg3f+3       4Mg4f-3       4Mg4f-2       4Mg4f-1   
   67    4Mg4f0        4Mg4f+1       4Mg4f+2       4Mg4f+3       4Mg1g-4       4Mg1g-3       4Mg1g-2       4Mg1g-1       4Mg1g0        4Mg1g+1   
   68    4Mg1g+2       4Mg1g+3       4Mg1g+4       5Mg1s         5Mg2s         5Mg3s         5Mg4s         5Mg5s         5Mg6s         5Mg7s     
   69    5Mg8s         5Mg9s         5Mg10s        5Mg11s        5Mg12s        5Mg13s        5Mg1pz        5Mg1py        5Mg1px        5Mg2pz    
   70    5Mg2py        5Mg2px        5Mg3pz        5Mg3py        5Mg3px        5Mg4pz        5Mg4py        5Mg4px        5Mg5pz        5Mg5py    
   71    5Mg5px        5Mg6pz        5Mg6py        5Mg6px        5Mg7pz        5Mg7py        5Mg7px        5Mg8pz        5Mg8py        5Mg8px    
   72    5Mg9pz        5Mg9py        5Mg9px        5Mg1d-2       5Mg1d-1       5Mg1d0        5Mg1d+1       5Mg1d+2       5Mg2d-2       5Mg2d-1   
   73    5Mg2d0        5Mg2d+1       5Mg2d+2       5Mg3d-2       5Mg3d-1       5Mg3d0        5Mg3d+1       5Mg3d+2       5Mg4d-2       5Mg4d-1   
   74    5Mg4d0        5Mg4d+1       5Mg4d+2       5Mg5d-2       5Mg5d-1       5Mg5d0        5Mg5d+1       5Mg5d+2       5Mg6d-2       5Mg6d-1   
   75    5Mg6d0        5Mg6d+1       5Mg6d+2       5Mg7d-2       5Mg7d-1       5Mg7d0        5Mg7d+1       5Mg7d+2       5Mg1f-3       5Mg1f-2   
   76    5Mg1f-1       5Mg1f0        5Mg1f+1       5Mg1f+2       5Mg1f+3       5Mg2f-3       5Mg2f-2       5Mg2f-1       5Mg2f0        5Mg2f+1   
   77    5Mg2f+2       5Mg2f+3       5Mg3f-3       5Mg3f-2       5Mg3f-1       5Mg3f0        5Mg3f+1       5Mg3f+2       5Mg3f+3       5Mg4f-3   
   78    5Mg4f-2       5Mg4f-1       5Mg4f0        5Mg4f+1       5Mg4f+2       5Mg4f+3       5Mg1g-4       5Mg1g-3       5Mg1g-2       5Mg1g-1   
   79    5Mg1g0        5Mg1g+1       5Mg1g+2       5Mg1g+3       5Mg1g+4       6Mg1s         6Mg2s         6Mg3s         6Mg4s         6Mg5s     
   80    6Mg6s         6Mg7s         6Mg8s         6Mg9s         6Mg10s        6Mg11s        6Mg12s        6Mg13s        6Mg1pz        6Mg1py    
   81    6Mg1px        6Mg2pz        6Mg2py        6Mg2px        6Mg3pz        6Mg3py        6Mg3px        6Mg4pz        6Mg4py        6Mg4px    
   82    6Mg5pz        6Mg5py        6Mg5px        6Mg6pz        6Mg6py        6Mg6px        6Mg7pz        6Mg7py        6Mg7px        6Mg8pz    
   83    6Mg8py        6Mg8px        6Mg9pz        6Mg9py        6Mg9px        6Mg1d-2       6Mg1d-1       6Mg1d0        6Mg1d+1       6Mg1d+2   
   84    6Mg2d-2       6Mg2d-1       6Mg2d0        6Mg2d+1       6Mg2d+2       6Mg3d-2       6Mg3d-1       6Mg3d0        6Mg3d+1       6Mg3d+2   
   85    6Mg4d-2       6Mg4d-1       6Mg4d0        6Mg4d+1       6Mg4d+2       6Mg5d-2       6Mg5d-1       6Mg5d0        6Mg5d+1       6Mg5d+2   
   86    6Mg6d-2       6Mg6d-1       6Mg6d0        6Mg6d+1       6Mg6d+2       6Mg7d-2       6Mg7d-1       6Mg7d0        6Mg7d+1       6Mg7d+2   
   87    6Mg1f-3       6Mg1f-2       6Mg1f-1       6Mg1f0        6Mg1f+1       6Mg1f+2       6Mg1f+3       6Mg2f-3       6Mg2f-2       6Mg2f-1   
   88    6Mg2f0        6Mg2f+1       6Mg2f+2       6Mg2f+3       6Mg3f-3       6Mg3f-2       6Mg3f-1       6Mg3f0        6Mg3f+1       6Mg3f+2   
   89    6Mg3f+3       6Mg4f-3       6Mg4f-2       6Mg4f-1       6Mg4f0        6Mg4f+1       6Mg4f+2       6Mg4f+3       6Mg1g-4       6Mg1g-3   
   90    6Mg1g-2       6Mg1g-1       6Mg1g0        6Mg1g+1       6Mg1g+2       6Mg1g+3       6Mg1g+4       7Mg1s         7Mg2s         7Mg3s     
   91    7Mg4s         7Mg5s         7Mg6s         7Mg7s         7Mg8s         7Mg9s         7Mg10s        7Mg11s        7Mg12s        7Mg13s    
   92    7Mg1pz        7Mg1py        7Mg1px        7Mg2pz        7Mg2py        7Mg2px        7Mg3pz        7Mg3py        7Mg3px        7Mg4pz    
   93    7Mg4py        7Mg4px        7Mg5pz        7Mg5py        7Mg5px        7Mg6pz        7Mg6py        7Mg6px        7Mg7pz        7Mg7py    
   94    7Mg7px        7Mg8pz        7Mg8py        7Mg8px        7Mg9pz        7Mg9py        7Mg9px        7Mg1d-2       7Mg1d-1       7Mg1d0    
   95    7Mg1d+1       7Mg1d+2       7Mg2d-2       7Mg2d-1       7Mg2d0        7Mg2d+1       7Mg2d+2       7Mg3d-2       7Mg3d-1       7Mg3d0    
   96    7Mg3d+1       7Mg3d+2       7Mg4d-2       7Mg4d-1       7Mg4d0        7Mg4d+1       7Mg4d+2       7Mg5d-2       7Mg5d-1       7Mg5d0    
   97    7Mg5d+1       7Mg5d+2       7Mg6d-2       7Mg6d-1       7Mg6d0        7Mg6d+1       7Mg6d+2       7Mg7d-2       7Mg7d-1       7Mg7d0    
   98    7Mg7d+1       7Mg7d+2       7Mg1f-3       7Mg1f-2       7Mg1f-1       7Mg1f0        7Mg1f+1       7Mg1f+2       7Mg1f+3       7Mg2f-3   
   99    7Mg2f-2       7Mg2f-1       7Mg2f0        7Mg2f+1       7Mg2f+2       7Mg2f+3       7Mg3f-3       7Mg3f-2       7Mg3f-1       7Mg3f0    
  100    7Mg3f+1       7Mg3f+2       7Mg3f+3       7Mg4f-3       7Mg4f-2       7Mg4f-1       7Mg4f0        7Mg4f+1       7Mg4f+2       7Mg4f+3   
  101    7Mg1g-4       7Mg1g-3       7Mg1g-2       7Mg1g-1       7Mg1g0        7Mg1g+1       7Mg1g+2       7Mg1g+3       7Mg1g+4       8Mg1s     
  102    8Mg2s         8Mg3s         8Mg4s         8Mg5s         8Mg6s         8Mg7s         8Mg8s         8Mg9s         8Mg10s        8Mg11s    
  103    8Mg12s        8Mg13s        8Mg1pz        8Mg1py        8Mg1px        8Mg2pz        8Mg2py        8Mg2px        8Mg3pz        8Mg3py    
  104    8Mg3px        8Mg4pz        8Mg4py        8Mg4px        8Mg5pz        8Mg5py        8Mg5px        8Mg6pz        8Mg6py        8Mg6px    
  105    8Mg7pz        8Mg7py        8Mg7px        8Mg8pz        8Mg8py        8Mg8px        8Mg9pz        8Mg9py        8Mg9px        8Mg1d-2   
  106    8Mg1d-1       8Mg1d0        8Mg1d+1       8Mg1d+2       8Mg2d-2       8Mg2d-1       8Mg2d0        8Mg2d+1       8Mg2d+2       8Mg3d-2   
  107    8Mg3d-1       8Mg3d0        8Mg3d+1       8Mg3d+2       8Mg4d-2       8Mg4d-1       8Mg4d0        8Mg4d+1       8Mg4d+2       8Mg5d-2   
  108    8Mg5d-1       8Mg5d0        8Mg5d+1       8Mg5d+2       8Mg6d-2       8Mg6d-1       8Mg6d0        8Mg6d+1       8Mg6d+2       8Mg7d-2   
  109    8Mg7d-1       8Mg7d0        8Mg7d+1       8Mg7d+2       8Mg1f-3       8Mg1f-2       8Mg1f-1       8Mg1f0        8Mg1f+1       8Mg1f+2   
  110    8Mg1f+3       8Mg2f-3       8Mg2f-2       8Mg2f-1       8Mg2f0        8Mg2f+1       8Mg2f+2       8Mg2f+3       8Mg3f-3       8Mg3f-2   
  111    8Mg3f-1       8Mg3f0        8Mg3f+1       8Mg3f+2       8Mg3f+3       8Mg4f-3       8Mg4f-2       8Mg4f-1       8Mg4f0        8Mg4f+1   
  112    8Mg4f+2       8Mg4f+3       8Mg1g-4       8Mg1g-3       8Mg1g-2       8Mg1g-1       8Mg1g0        8Mg1g+1       8Mg1g+2       8Mg1g+3   
  113    8Mg1g+4       9O1s          9O2s          9O3s          9O4s          9O5s          9O6s          9O7s          9O8s          9O9s      
  114    9O10s         9O1pz         9O1py         9O1px         9O2pz         9O2py         9O2px         9O3pz         9O3py         9O3px     
  115    9O4pz         9O4py         9O4px         9O5pz         9O5py         9O5px         9O6pz         9O6py         9O6px         9O7pz     
  116    9O7py         9O7px         9O8pz         9O8py         9O8px         9O1d-2        9O1d-1        9O1d0         9O1d+1        9O1d+2    
  117    9O2d-2        9O2d-1        9O2d0         9O2d+1        9O2d+2        9O3d-2        9O3d-1        9O3d0         9O3d+1        9O3d+2    
  118    9O4d-2        9O4d-1        9O4d0         9O4d+1        9O4d+2        9O1f-3        9O1f-2        9O1f-1        9O1f0         9O1f+1    
  119    9O1f+2        9O1f+3        9O2f-3        9O2f-2        9O2f-1        9O2f0         9O2f+1        9O2f+2        9O2f+3        9O1g-4    
  120    9O1g-3        9O1g-2        9O1g-1        9O1g0         9O1g+1        9O1g+2        9O1g+3        9O1g+4       10O1s         10O2s      
  121   10O3s         10O4s         10O5s         10O6s         10O7s         10O8s         10O9s         10O10s        10O1pz        10O1py     
  122   10O1px        10O2pz        10O2py        10O2px        10O3pz        10O3py        10O3px        10O4pz        10O4py        10O4px     
  123   10O5pz        10O5py        10O5px        10O6pz        10O6py        10O6px        10O7pz        10O7py        10O7px        10O8pz     
  124   10O8py        10O8px        10O1d-2       10O1d-1       10O1d0        10O1d+1       10O1d+2       10O2d-2       10O2d-1       10O2d0     
  125   10O2d+1       10O2d+2       10O3d-2       10O3d-1       10O3d0        10O3d+1       10O3d+2       10O4d-2       10O4d-1       10O4d0     
  126   10O4d+1       10O4d+2       10O1f-3       10O1f-2       10O1f-1       10O1f0        10O1f+1       10O1f+2       10O1f+3       10O2f-3    
  127   10O2f-2       10O2f-1       10O2f0        10O2f+1       10O2f+2       10O2f+3       10O1g-4       10O1g-3       10O1g-2       10O1g-1    
  128   10O1g0        10O1g+1       10O1g+2       10O1g+3       10O1g+4       11O1s         11O2s         11O3s         11O4s         11O5s      
  129   11O6s         11O7s         11O8s         11O9s         11O10s        11O1pz        11O1py        11O1px        11O2pz        11O2py     
  130   11O2px        11O3pz        11O3py        11O3px        11O4pz        11O4py        11O4px        11O5pz        11O5py        11O5px     
  131   11O6pz        11O6py        11O6px        11O7pz        11O7py        11O7px        11O8pz        11O8py        11O8px        11O1d-2    
  132   11O1d-1       11O1d0        11O1d+1       11O1d+2       11O2d-2       11O2d-1       11O2d0        11O2d+1       11O2d+2       11O3d-2    
  133   11O3d-1       11O3d0        11O3d+1       11O3d+2       11O4d-2       11O4d-1       11O4d0        11O4d+1       11O4d+2       11O1f-3    
  134   11O1f-2       11O1f-1       11O1f0        11O1f+1       11O1f+2       11O1f+3       11O2f-3       11O2f-2       11O2f-1       11O2f0     
  135   11O2f+1       11O2f+2       11O2f+3       11O1g-4       11O1g-3       11O1g-2       11O1g-1       11O1g0        11O1g+1       11O1g+2    
  136   11O1g+3       11O1g+4       12O1s         12O2s         12O3s         12O4s         12O5s         12O6s         12O7s         12O8s      
  137   12O9s         12O10s        12O1pz        12O1py        12O1px        12O2pz        12O2py        12O2px        12O3pz        12O3py     
  138   12O3px        12O4pz        12O4py        12O4px        12O5pz        12O5py        12O5px        12O6pz        12O6py        12O6px     
  139   12O7pz        12O7py        12O7px        12O8pz        12O8py        12O8px        12O1d-2       12O1d-1       12O1d0        12O1d+1    
  140   12O1d+2       12O2d-2       12O2d-1       12O2d0        12O2d+1       12O2d+2       12O3d-2       12O3d-1       12O3d0        12O3d+1    
  141   12O3d+2       12O4d-2       12O4d-1       12O4d0        12O4d+1       12O4d+2       12O1f-3       12O1f-2       12O1f-1       12O1f0     
  142   12O1f+1       12O1f+2       12O1f+3       12O2f-3       12O2f-2       12O2f-1       12O2f0        12O2f+1       12O2f+2       12O2f+3    
  143   12O1g-4       12O1g-3       12O1g-2       12O1g-1       12O1g0        12O1g+1       12O1g+2       12O1g+3       12O1g+4       13O1s      
  144   13O2s         13O3s         13O4s         13O5s         13O6s         13O7s         13O8s         13O9s         13O10s        13O1pz     
  145   13O1py        13O1px        13O2pz        13O2py        13O2px        13O3pz        13O3py        13O3px        13O4pz        13O4py     
  146   13O4px        13O5pz        13O5py        13O5px        13O6pz        13O6py        13O6px        13O7pz        13O7py        13O7px     
  147   13O8pz        13O8py        13O8px        13O1d-2       13O1d-1       13O1d0        13O1d+1       13O1d+2       13O2d-2       13O2d-1    
  148   13O2d0        13O2d+1       13O2d+2       13O3d-2       13O3d-1       13O3d0        13O3d+1       13O3d+2       13O4d-2       13O4d-1    
  149   13O4d0        13O4d+1       13O4d+2       13O1f-3       13O1f-2       13O1f-1       13O1f0        13O1f+1       13O1f+2       13O1f+3    
  150   13O2f-3       13O2f-2       13O2f-1       13O2f0        13O2f+1       13O2f+2       13O2f+3       13O1g-4       13O1g-3       13O1g-2    
  151   13O1g-1       13O1g0        13O1g+1       13O1g+2       13O1g+3       13O1g+4       14O1s         14O2s         14O3s         14O4s      
  152   14O5s         14O6s         14O7s         14O8s         14O9s         14O10s        14O1pz        14O1py        14O1px        14O2pz     
  153   14O2py        14O2px        14O3pz        14O3py        14O3px        14O4pz        14O4py        14O4px        14O5pz        14O5py     
  154   14O5px        14O6pz        14O6py        14O6px        14O7pz        14O7py        14O7px        14O8pz        14O8py        14O8px     
  155   14O1d-2       14O1d-1       14O1d0        14O1d+1       14O1d+2       14O2d-2       14O2d-1       14O2d0        14O2d+1       14O2d+2    
  156   14O3d-2       14O3d-1       14O3d0        14O3d+1       14O3d+2       14O4d-2       14O4d-1       14O4d0        14O4d+1       14O4d+2    
  157   14O1f-3       14O1f-2       14O1f-1       14O1f0        14O1f+1       14O1f+2       14O1f+3       14O2f-3       14O2f-2       14O2f-1    
  158   14O2f0        14O2f+1       14O2f+2       14O2f+3       14O1g-4       14O1g-3       14O1g-2       14O1g-1       14O1g0        14O1g+1    
  159   14O1g+2       14O1g+3       14O1g+4       15O1s         15O2s         15O3s         15O4s         15O5s         15O6s         15O7s      
  160   15O8s         15O9s         15O10s        15O1pz        15O1py        15O1px        15O2pz        15O2py        15O2px        15O3pz     
  161   15O3py        15O3px        15O4pz        15O4py        15O4px        15O5pz        15O5py        15O5px        15O6pz        15O6py     
  162   15O6px        15O7pz        15O7py        15O7px        15O8pz        15O8py        15O8px        15O1d-2       15O1d-1       15O1d0     
  163   15O1d+1       15O1d+2       15O2d-2       15O2d-1       15O2d0        15O2d+1       15O2d+2       15O3d-2       15O3d-1       15O3d0     
[...]
 Number of fitting functions:  2336 (100.00%)
 Number of occupied orbitals:    11
 Number of virtual  orbitals:   602
 Number of Cholesky vectors:      9
 MP2 energy in ED [au]:          -0.062740449093
 Number of occupied LNOs:        11 (100.00%)
 Number of virtual  LNOs:        62  (10.30%)
 tol*100>norm                    21  4.439775360139426E-004
 tol*100>norm                    25  4.438405155672663E-004
 tol*100>norm                    75  4.434255130020230E-004
 tol*100>norm                    79  4.444669842674250E-004
 Number of Cholesky vectors:      6
 MP2 energy in LIS [au]:         -0.062716321667
 Correction for frozen LNO [au]: -0.000024127427     (0.038%)
 Number of NAFs:                228   (9.76%)
 CPU time [min]:    54.692                   Wall time [min]:     2.979
 

 Direct DF-CCSD(T) calculation
 
 Convergence criterion:  1.0E-05
 
 Number of occupied/virtual/auxiliary orbitals:    11    62   228
    133.05 MB is the minimal memory requirement for (T)
    115.22 MB is the minimal memory requirement for CCSD
 
 MP2 correlation energy [au]:       -0.636302403137
 
 LMP2 domain correlation energy contribution [au]:       -0.062731128414
 
 CPU time [min]:    54.733                   Wall time [min]:     2.981
 
 
 Starting CCSD iterations...
 
                     Residual norm       Correlation Energy
 Iteration  1        0.184068316079       -0.565872155692
 Iteration  2        0.056871099430       -0.585227934784
 Iteration  3        0.017738004622       -0.588524645893
 Iteration  4        0.007336129833       -0.587613196872
 Iteration  5        0.004009732162       -0.587541858174
 Iteration  6        0.002088071718       -0.587809552908
 Iteration  7        0.000988711549       -0.587807258064
 Iteration  8        0.000343503577       -0.587773023155
 Iteration  9        0.000143239642       -0.587776762424
 Iteration 10        0.000045509020       -0.587777717987
 
 CCSD iteration has converged in 10 steps.
      168.55 MB memory was utilized by CCSD
 
 T1 diagnostic:      2.156E-02            D1 diagnostic:      6.525E-02
 
 T1 contribution [au]:                         0.000000000000
 CCSD correlation energy [au]:                -0.057453961008
 
 CPU time [min]:    55.186                   Wall time [min]:     3.005
 
 Calculation of (T) correction...
 
 Laplace threshold, nquadmin:  1.00E-03   4
 Number of quadrature points:    4
 
      144.99 MB memory is utilized for (T)

 0%       25%       50%       75%       100%
 |---------|---------|---------|---------| 
 
 (T) correction [au]:                   -0.001965765607
 CCSD(T) correlation energy [au]:       -0.059419726615
 
 CPU time [min]:    55.349                   Wall time [min]:     3.015
 
 MO:     8
 Number of atoms in domain:      28
 Number of atomic orbitals:     621
 Number of atoms for local DF:   28
 Number of fitting functions:  2336 (100.00%)
 Number of occupied orbitals:    11
 Number of virtual  orbitals:   602
 Number of Cholesky vectors:      9
 MP2 energy in ED [au]:          -0.062947775527
 Number of occupied LNOs:        11 (100.00%)
 Number of virtual  LNOs:        66  (10.96%)
 tol*100>norm                    21  4.439775360139426E-004
 tol*100>norm                    25  4.438405155672662E-004
 tol*100>norm                    75  4.434255130020234E-004
 tol*100>norm                    79  4.444669842674251E-004
 Number of Cholesky vectors:      6
 MP2 energy in LIS [au]:         -0.062917108722
 Correction for frozen LNO [au]: -0.000030666805     (0.049%)
 Number of NAFs:                238  (10.19%)
 CPU time [min]:    62.312                   Wall time [min]:     3.396
 

 Direct DF-CCSD(T) calculation
 
 Convergence criterion:  1.0E-05
 
 Number of occupied/virtual/auxiliary orbitals:    11    66   238
    141.14 MB is the minimal memory requirement for (T)
    118.77 MB is the minimal memory requirement for CCSD
 
 MP2 correlation energy [au]:       -0.633172814066
 
 LMP2 domain correlation energy contribution [au]:       -0.062929837315
 
 CPU time [min]:    62.346                   Wall time [min]:     3.397
 
 
 Starting CCSD iterations...
 
                     Residual norm       Correlation Energy
 Iteration  1        0.184307093961       -0.563172070086
 Iteration  2        0.057031457946       -0.582457407314
 Iteration  3        0.017813066939       -0.585750314504
 Iteration  4        0.007470160353       -0.584872401907
 Iteration  5        0.004094789852       -0.584801481072
 Iteration  6        0.002105865447       -0.585053936334
 Iteration  7        0.001009871060       -0.585054725802
 Iteration  8        0.000354398323       -0.585022202630
 Iteration  9        0.000152363929       -0.585024968871
 Iteration 10        0.000048787336       -0.585026463426
 
 CCSD iteration has converged in 10 steps.
      187.81 MB memory was utilized by CCSD
 
 T1 diagnostic:      2.156E-02            D1 diagnostic:      6.688E-02
 
 T1 contribution [au]:                         0.000000000000
 CCSD correlation energy [au]:                -0.057617377325
 
 CPU time [min]:    62.820                   Wall time [min]:     3.423
 
 Calculation of (T) correction...
 
 Laplace threshold, nquadmin:  1.00E-03   4
 Number of quadrature points:    4
 
      155.54 MB memory is utilized for (T)

 0%       25%       50%       75%       100%
 |---------|---------|---------|---------| 
 
 (T) correction [au]:                   -0.002011651126
 CCSD(T) correlation energy [au]:       -0.059629028451
 
 CPU time [min]:    63.022                   Wall time [min]:     3.435
 
 MO:     9
 Number of atoms in domain:      28
 Number of atomic orbitals:     621
 Number of atoms for local DF:   28
 Number of fitting functions:  2336 (100.00%)
 Number of occupied orbitals:    11
 Number of virtual  orbitals:   602
 Number of Cholesky vectors:      9
 MP2 energy in ED [au]:          -0.062951327656
 Number of occupied LNOs:        11 (100.00%)
 Number of virtual  LNOs:        66  (10.96%)
 tol*100>norm                    21  4.439775360139425E-004
 tol*100>norm                    25  4.438405155672661E-004
 tol*100>norm                    75  4.434255130020234E-004
 tol*100>norm                    79  4.444669842674248E-004
 Number of Cholesky vectors:      6
 MP2 energy in LIS [au]:         -0.062920604840
 Correction for frozen LNO [au]: -0.000030722816     (0.049%)
 Number of NAFs:                237  (10.15%)
 CPU time [min]:    69.979                   Wall time [min]:     3.811
 

 Direct DF-CCSD(T) calculation
 
 Convergence criterion:  1.0E-05
 
 Number of occupied/virtual/auxiliary orbitals:    11    66   237
    141.04 MB is the minimal memory requirement for (T)
    118.70 MB is the minimal memory requirement for CCSD
 
 MP2 correlation energy [au]:       -0.634017212056
 
 LMP2 domain correlation energy contribution [au]:       -0.062933178831
 
 CPU time [min]:    70.013                   Wall time [min]:     3.813
 
 
 Starting CCSD iterations...
 
                     Residual norm       Correlation Energy
 Iteration  1        0.184416475474       -0.563845139333
 Iteration  2        0.057069196654       -0.583141907652
 Iteration  3        0.017774694163       -0.586434284962
 Iteration  4        0.007442489237       -0.585556962648
 Iteration  5        0.004075167912       -0.585484390162
 Iteration  6        0.002099095140       -0.585736379588
 Iteration  7        0.001008218220       -0.585737431917
 Iteration  8        0.000354408889       -0.585704480086
 Iteration  9        0.000152348486       -0.585707319659
 Iteration 10        0.000049014330       -0.585708850853
 
 CCSD iteration has converged in 10 steps.
      187.75 MB memory was utilized by CCSD
 
 T1 diagnostic:      2.150E-02            D1 diagnostic:      6.674E-02
 
 T1 contribution [au]:                         0.000000000000
 CCSD correlation energy [au]:                -0.057620093099
 
 CPU time [min]:    70.535                   Wall time [min]:     3.841
 
 Calculation of (T) correction...
 
 Laplace threshold, nquadmin:  1.00E-03   4
 Number of quadrature points:    4
 
      155.47 MB memory is utilized for (T)

 0%       25%       50%       75%       100%
 |---------|---------|---------|---------| 
 
 (T) correction [au]:                   -0.002012107619
 CCSD(T) correlation energy [au]:       -0.059632200718
 
 CPU time [min]:    70.749                   Wall time [min]:     3.853
 
 MO:    10
 Number of atoms in domain:      28
 Number of atomic orbitals:     621
 Number of atoms for local DF:   28
 Number of fitting functions:  2336 (100.00%)
 Number of occupied orbitals:    11
 Number of virtual  orbitals:   602
 Number of Cholesky vectors:      9
 MP2 energy in ED [au]:          -0.062952893327
 Number of occupied LNOs:        11 (100.00%)
 Number of virtual  LNOs:        66  (10.96%)
 tol*100>norm                    21  4.439775360139429E-004
 tol*100>norm                    25  4.438405155672662E-004
 tol*100>norm                    75  4.434255130020230E-004
 tol*100>norm                    79  4.444669842674251E-004
 Number of Cholesky vectors:      6
 MP2 energy in LIS [au]:         -0.062922134420
 Correction for frozen LNO [au]: -0.000030758908     (0.049%)
 Number of NAFs:                237  (10.15%)
 CPU time [min]:    77.708                   Wall time [min]:     4.229
 

 Direct DF-CCSD(T) calculation
 
 Convergence criterion:  1.0E-05
 
 Number of occupied/virtual/auxiliary orbitals:    11    66   237
    141.04 MB is the minimal memory requirement for (T)
    118.70 MB is the minimal memory requirement for CCSD
 
 MP2 correlation energy [au]:       -0.634709112778
 
 LMP2 domain correlation energy contribution [au]:       -0.062934658840
 
 CPU time [min]:    77.742                   Wall time [min]:     4.231
 
 
 Starting CCSD iterations...
 
                     Residual norm       Correlation Energy
 Iteration  1        0.184488086675       -0.564383743146
 Iteration  2        0.057095098736       -0.583686537716
 Iteration  3        0.017740540946       -0.586977510819
 Iteration  4        0.007432922852       -0.586099446468
 Iteration  5        0.004068740645       -0.586025490217
 Iteration  6        0.002096471803       -0.586277654839
 Iteration  7        0.001006959468       -0.586278766896
 Iteration  8        0.000353999414       -0.586245606334
 Iteration  9        0.000152126752       -0.586248503756
 Iteration 10        0.000049059743       -0.586250054341
 
 CCSD iteration has converged in 10 steps.
      187.75 MB memory was utilized by CCSD
 
 T1 diagnostic:      2.147E-02            D1 diagnostic:      6.673E-02
 
 T1 contribution [au]:                         0.000000000000
 CCSD correlation energy [au]:                -0.057621315179
 
 CPU time [min]:    78.233                   Wall time [min]:     4.258
 
 Calculation of (T) correction...
 
 Laplace threshold, nquadmin:  1.00E-03   4
 Number of quadrature points:    4
 
      155.47 MB memory is utilized for (T)

 0%       25%       50%       75%       100%
 |---------|---------|---------|---------| 
 
 (T) correction [au]:                   -0.002012178775
 CCSD(T) correlation energy [au]:       -0.059633493954
 
 CPU time [min]:    78.443                   Wall time [min]:     4.269
 
 MO:    11
 Number of atoms in domain:      28
 Number of atomic orbitals:     621
 Number of atoms for local DF:   28
 Number of fitting functions:  2336 (100.00%)
 Number of occupied orbitals:    11
 Number of virtual  orbitals:   602
 Number of Cholesky vectors:      9
 MP2 energy in ED [au]:          -0.062739605316
 Number of occupied LNOs:        11 (100.00%)
 Number of virtual  LNOs:        62  (10.30%)
 tol*100>norm                    21  4.439775360139427E-004
 tol*100>norm                    25  4.438405155672665E-004
 tol*100>norm                    75  4.434255130020234E-004
 tol*100>norm                    79  4.444669842674253E-004
 Number of Cholesky vectors:      6
 MP2 energy in LIS [au]:         -0.062715545193
 Correction for frozen LNO [au]: -0.000024060123     (0.038%)
 Number of NAFs:                229   (9.80%)
 CPU time [min]:    85.086                   Wall time [min]:     4.630
 

 Direct DF-CCSD(T) calculation
 
 Convergence criterion:  1.0E-05
 
 Number of occupied/virtual/auxiliary orbitals:    11    62   229
    133.14 MB is the minimal memory requirement for (T)
    115.28 MB is the minimal memory requirement for CCSD
 
 MP2 correlation energy [au]:       -0.636096976844
 
 LMP2 domain correlation energy contribution [au]:       -0.062730361428
 
 CPU time [min]:    85.119                   Wall time [min]:     4.632
 
 
 Starting CCSD iterations...
 
                     Residual norm       Correlation Energy
 Iteration  1        0.184054804829       -0.565685416175
 Iteration  2        0.056862648032       -0.585042579877
 Iteration  3        0.017740277012       -0.588337779983
 Iteration  4        0.007339517432       -0.587427412436
 Iteration  5        0.004012901020       -0.587357120478
 Iteration  6        0.002088864393       -0.587624366892
 Iteration  7        0.000988653249       -0.587621672578
 Iteration  8        0.000343366842       -0.587587586025
 Iteration  9        0.000143171659       -0.587591374429
 Iteration 10        0.000045497630       -0.587592320041
 
 CCSD iteration has converged in 10 steps.
      168.61 MB memory was utilized by CCSD
 
 T1 diagnostic:      2.157E-02            D1 diagnostic:      6.529E-02
 
 T1 contribution [au]:                         0.000000000000
 CCSD correlation energy [au]:                -0.057453143790
 
 CPU time [min]:    85.528                   Wall time [min]:     4.654
 
 Calculation of (T) correction...
 
 Laplace threshold, nquadmin:  1.00E-03   4
 Number of quadrature points:    4
 
      145.05 MB memory is utilized for (T)

 0%       25%       50%       75%       100%
 |---------|---------|---------|---------| 
 
 (T) correction [au]:                   -0.001965562417
 CCSD(T) correlation energy [au]:       -0.059418706207
 
 CPU time [min]:    85.704                   Wall time [min]:     4.664
 
 **********************************************************************
 Dimensions of the extended domains:    Minimum / Average / Maximum
 
 Number of atoms in domain:                  28      28.0        28
 Number of atomic orbitals:                 621     621.0       621
 Number of fitting functions:              2336    2336.0      2336
 Number of occupied localized MOs:           11      11.0        11
 Number of PAOs:                            602     602.0       602
 Number of occupied LNOs:                    11      11.0        11
 Number of virtual  LNOs:                    62      66.7        93
 Number of NAFs:                            227     238.7       298
 
 **********************************************************************
 Distant (and weak) pair contributions, corrections
 
 Sum of pair energies [au]:                     0.000000000000    (0.000%)
 Sum of energy corrections [au]:               -0.000287980894    (0.041%)
 Pair energies + LNO corrections [au]:         -0.000287980894
 Sum of LMP2 contributions [au]:               -0.706480741197
 
 **********************************************************************
  Time of manipulations in the EDs:      max CPU/Wall [s]  all CPU/Wall [min]
 
 PD construction & multipole pair E      33.04     1.85     0.55     0.03
 Construct MO basis of the ED             8.17     0.42     1.34     0.08
 (mu,nu|P) evaluation & trf 2 (ai|P)     61.74     3.09    11.06     0.55
 Evaluate MP2 energy of the ED           13.12     0.66     2.40     0.12
 Transformations to the LNO basis         6.92     0.35     1.22     0.06
 Build W_PQ (Jai or Jpi part)             4.31     0.66     0.77     0.08
 Evaluate MP2 energy of the LIS           0.47     0.02     0.05     0.00
 (mu,nu|P) evaluation & trf 2 J(abQ)    388.40    21.53    56.88     3.11
 Total of the above for all EDs         483.15    26.74    73.73     4.01
 
 **********************************************************************
 Maximum memory requirement [MB]:       
 
 PD construction & multipole pair E        201.6
 AO integral evaluation in the EDs         764.5
 (mu,nu|P) evaluation & trf 2 (aI|P)      1185.0
 Evaluate MP2 energy in the EDs            515.7
 Transformation to the LNO basis           209.2
 (mu,nu|P) to Jab transformation           939.2
 Evaluate MP2 energy in the LIS            291.0
 Minimum requirement for LIS CCSD          150.4
 Actually allocated  for LIS CCSD          431.3
 Minimum requirement for LIS (T)           220.4
 Actually allocated  for LIS (T)           261.0
 
 ======================================================================
 ======================================================================
 
 
 
 ======================================================================
 ======================================================================
 
 Final local CC results:
 
 Minimum number of correlated electrons:        22       (100.0%)
 Maximum number of correlated electrons:        22       (100.0%)
 Average number of correlated electrons:        22.0     (100.0%)
 Minimum number of correlated orbitals:         73       (  3.8%)
 Maximum number of correlated orbitals:        104       (  5.4%)
 Average number of correlated orbitals:         77.7     (  4.1%)
 
 CPU time for integral calculations [min]:                 15.619
 Wall time for integral calculations [min]:                 2.524
 
 CPU time for SCF calculation [min]:                      256.393
 Wall time for SCF calculation [min]:                      13.108
 
 CPU time for orbital localization [min]:                   0.216
 Wall time for orbital localization [min]:                  0.129
 
 CPU time for integral transformations [min]:              76.929
 Wall time for integral transformations [min]:              4.184
 
 Reference energy [au]:                                  -269.589504039551
 
 LMP2 correlation energy [au]:                             -0.706480741197
 Total LMP2 energy [au]:                                 -270.295984780748
 
 Total MP2 correction for dropped NAFs [au]:                0.000145536488
 Total MP2 correction [au]:                                -0.000142444406
 
 CPU time for CCSD calculations [min]:                      6.256
 Total CPU time for CCSD [min]:                           355.414
 Wall time for CCSD calculations [min]:                     0.335
 Total wall time for CCSD [min]:                           20.280
 
 CCSD correlation energy [au]:                             -0.647478903332
 Total CCSD energy [au]:                                 -270.236982942883
 CCSD correlation energy + 0.5 MP2 corrections [au]:       -0.647550125536
 Total LNO-CCSD energy with MP2 corrections [au]:        -270.237054165087
 
 CPU time for (T) corrections [min]:                        2.527
 Total CPU time for CCSD(T) [min]:                        357.940
 Wall time for (T) corrections [min]:                       0.146
 Total wall time for CCSD(T) [min]:                        20.426
 
 Total (T) correlation energy contribution [au]:           -0.024278783378
 Total (T) correlation energy+0.5 MP2 correction [au]:     -0.024350005581
 CCSD(T) correlation energy [au]:                          -0.671757686710
 Total CCSD(T) energy [au]:                              -270.261261726261
 CCSD(T) correlation energy + MP2 corrections [au]:        -0.671900131117
 Total LNO-CCSD(T) energy with MP2 corrections [au]:     -270.261404170667
 
 ======================================================================
 ======================================================================
 
 ************************ 2022-08-17 08:28:51 *************************
                      Normal termination of mrcc.
 **********************************************************************
