 **********************************************************************
                          MRCC program system
 **********************************************************************
 
                              Written by
     Mihaly Kallay, Peter R. Nagy, David Mester, Laszlo Gyevi-Nagy,
        Jozsef Csoka, P. Bernat Szabo, Zoltan Rolik, Gyula Samu,
     Jozsef Csontos, Bence Hegely, Adam Ganyecz, Istvan Ladjanszki,
       Lorant Szegedy, Bence Ladoczki, Klara Petrov, Mate Farkas,
                    Pal D. Mezei, and Reka A. Horvath
 
        Department of Physical Chemistry and Materials Science
            Budapest University of Technology and Economics
                  Budapest P.O.Box 91, H-1521 Hungary
 
                              www.mrcc.hu
 
                      Release date: March 18, 2022

 ************************ 2023-01-02 15:22:51 *************************
 Executing minp...

 Reading input from MINP...
 
 Input file:
 
calc=LNO-CCSD(T)
scftype=rhf
verbosity=3
mem=190GB
symm=off
unit=angs
scfiguess=restart
scfmaxit=1000
scfalg=locfit1


lcorthr=normal
bpedo=0.99999
ccmaxit=400
usedisk=0
ccsdalg=dfdirect
ccsdthreads=4
ccsdmkl=thr
ptthreads=4

charge=-32
core=58

basis=special
bse_ACVTZ
bse_ACVTZ
aug-cc-pVTZ
bse_CVTZ
bse_CVTZ
bse_CVTZ
bse_CVTZ
bse_CVTZ
aug-cc-pVTZ
aug-cc-pVTZ
aug-cc-pVTZ
aug-cc-pVTZ
aug-cc-pVTZ
aug-cc-pVTZ
aug-cc-pVTZ
aug-cc-pVTZ
bse_CVTZ
bse_CVTZ
bse_CVTZ
bse_CVTZ
aug-cc-pVTZ
aug-cc-pVTZ
aug-cc-pVTZ
aug-cc-pVTZ
bse_CVTZ
bse_CVTZ
bse_CVTZ
bse_CVTZ
bse_CVTZ
bse_CVTZ
bse_CVTZ
bse_CVTZ
bse_CVTZ
bse_CVTZ
bse_CVTZ
bse_CVTZ
aug-cc-pVTZ
aug-cc-pVTZ
aug-cc-pVTZ
aug-cc-pVTZ
aug-cc-pVTZ
aug-cc-pVTZ
aug-cc-pVTZ
aug-cc-pVTZ
aug-cc-pVTZ
aug-cc-pVTZ
aug-cc-pVTZ
aug-cc-pVTZ
aug-cc-pVTZ
aug-cc-pVTZ
aug-cc-pVTZ
aug-cc-pVTZ
aug-cc-pVTZ
aug-cc-pVTZ
aug-cc-pVTZ
aug-cc-pVTZ
aug-cc-pVTZ
aug-cc-pVTZ
aug-cc-pVTZ
aug-cc-pVTZ
nothing
nothing
nothing
nothing
nothing
nothing
nothing
nothing
nothing
nothing
nothing
nothing
nothing
nothing
nothing
nothing
nothing
nothing
nothing
nothing
nothing
nothing
nothing
nothing
nothing
nothing
nothing
nothing
nothing
nothing
nothing
nothing
nothing
nothing
nothing
nothing
nothing
nothing
nothing
nothing
nothing
nothing
nothing
nothing
nothing
nothing
nothing
nothing

basis_sm=special
def2-SVP
def2-SVP
def2-SVP
def2-SVP
def2-SVP
def2-SVP
def2-SVP
def2-SVP
def2-SVP
def2-SVP
def2-SVP
def2-SVP
def2-SVP
def2-SVP
def2-SVP
def2-SVP
def2-SVP
def2-SVP
def2-SVP
def2-SVP
def2-SVP
def2-SVP
def2-SVP
def2-SVP
def2-SVP
def2-SVP
def2-SVP
def2-SVP
def2-SVP
def2-SVP
def2-SVP
def2-SVP
def2-SVP
def2-SVP
def2-SVP
def2-SVP
def2-SVP
def2-SVP
def2-SVP
def2-SVP
def2-SVP
def2-SVP
def2-SVP
def2-SVP
def2-SVP
def2-SVP
def2-SVP
def2-SVP
def2-SVP
def2-SVP
def2-SVP
def2-SVP
def2-SVP
def2-SVP
def2-SVP
def2-SVP
def2-SVP
def2-SVP
def2-SVP
def2-SVP
nothing
nothing
nothing
nothing
nothing
nothing
nothing
nothing
nothing
nothing
nothing
nothing
nothing
nothing
nothing
nothing
nothing
nothing
nothing
nothing
nothing
nothing
nothing
nothing
nothing
nothing
nothing
nothing
nothing
nothing
nothing
nothing
nothing
nothing
nothing
nothing
nothing
nothing
nothing
nothing
nothing
nothing
nothing
nothing
nothing
nothing
nothing
nothing

dfbasis_scf=special
def2-QZVPP-RI-JK
def2-QZVPP-RI-JK
def2-QZVPP-RI-JK
def2-QZVPP-RI-JK
def2-QZVPP-RI-JK
def2-QZVPP-RI-JK
def2-QZVPP-RI-JK
def2-QZVPP-RI-JK
def2-QZVPP-RI-JK
def2-QZVPP-RI-JK
def2-QZVPP-RI-JK
def2-QZVPP-RI-JK
def2-QZVPP-RI-JK
def2-QZVPP-RI-JK
def2-QZVPP-RI-JK
def2-QZVPP-RI-JK
def2-QZVPP-RI-JK
def2-QZVPP-RI-JK
def2-QZVPP-RI-JK
def2-QZVPP-RI-JK
def2-QZVPP-RI-JK
def2-QZVPP-RI-JK
def2-QZVPP-RI-JK
def2-QZVPP-RI-JK
def2-QZVPP-RI-JK
def2-QZVPP-RI-JK
def2-QZVPP-RI-JK
def2-QZVPP-RI-JK
def2-QZVPP-RI-JK
def2-QZVPP-RI-JK
def2-QZVPP-RI-JK
def2-QZVPP-RI-JK
def2-QZVPP-RI-JK
def2-QZVPP-RI-JK
def2-QZVPP-RI-JK
def2-QZVPP-RI-JK
def2-QZVPP-RI-JK
def2-QZVPP-RI-JK
def2-QZVPP-RI-JK
def2-QZVPP-RI-JK
def2-QZVPP-RI-JK
def2-QZVPP-RI-JK
def2-QZVPP-RI-JK
def2-QZVPP-RI-JK
def2-QZVPP-RI-JK
def2-QZVPP-RI-JK
def2-QZVPP-RI-JK
def2-QZVPP-RI-JK
def2-QZVPP-RI-JK
def2-QZVPP-RI-JK
def2-QZVPP-RI-JK
def2-QZVPP-RI-JK
def2-QZVPP-RI-JK
def2-QZVPP-RI-JK
def2-QZVPP-RI-JK
def2-QZVPP-RI-JK
def2-QZVPP-RI-JK
def2-QZVPP-RI-JK
def2-QZVPP-RI-JK
def2-QZVPP-RI-JK
nothing
nothing
nothing
nothing
nothing
nothing
nothing
nothing
nothing
nothing
nothing
nothing
nothing
nothing
nothing
nothing
nothing
nothing
nothing
nothing
nothing
nothing
nothing
nothing
nothing
nothing
nothing
nothing
nothing
nothing
nothing
nothing
nothing
nothing
nothing
nothing
nothing
nothing
nothing
nothing
nothing
nothing
nothing
nothing
nothing
nothing
nothing
nothing

dfbasis_cor=special
bse_ACVTZ_autoaux
bse_ACVTZ_autoaux
aug-cc-pVTZ-RI
bse_CVTZ_mp2fit
bse_CVTZ_mp2fit
bse_CVTZ_mp2fit
bse_CVTZ_mp2fit
bse_CVTZ_mp2fit
aug-cc-pVTZ-RI
aug-cc-pVTZ-RI
aug-cc-pVTZ-RI
aug-cc-pVTZ-RI
aug-cc-pVTZ-RI
aug-cc-pVTZ-RI
aug-cc-pVTZ-RI
aug-cc-pVTZ-RI
bse_CVTZ_mp2fit
bse_CVTZ_mp2fit
bse_CVTZ_mp2fit
bse_CVTZ_mp2fit
aug-cc-pVTZ-RI
aug-cc-pVTZ-RI
aug-cc-pVTZ-RI
aug-cc-pVTZ-RI
bse_CVTZ_mp2fit
bse_CVTZ_mp2fit
bse_CVTZ_mp2fit
bse_CVTZ_mp2fit
bse_CVTZ_mp2fit
bse_CVTZ_mp2fit
bse_CVTZ_mp2fit
bse_CVTZ_mp2fit
bse_CVTZ_mp2fit
bse_CVTZ_mp2fit
bse_CVTZ_mp2fit
bse_CVTZ_mp2fit
aug-cc-pVTZ-RI
aug-cc-pVTZ-RI
aug-cc-pVTZ-RI
aug-cc-pVTZ-RI
aug-cc-pVTZ-RI
aug-cc-pVTZ-RI
aug-cc-pVTZ-RI
aug-cc-pVTZ-RI
aug-cc-pVTZ-RI
aug-cc-pVTZ-RI
aug-cc-pVTZ-RI
aug-cc-pVTZ-RI
aug-cc-pVTZ-RI
aug-cc-pVTZ-RI
aug-cc-pVTZ-RI
aug-cc-pVTZ-RI
aug-cc-pVTZ-RI
aug-cc-pVTZ-RI
aug-cc-pVTZ-RI
aug-cc-pVTZ-RI
aug-cc-pVTZ-RI
aug-cc-pVTZ-RI
aug-cc-pVTZ-RI
aug-cc-pVTZ-RI
nothing
nothing
nothing
nothing
nothing
nothing
nothing
nothing
nothing
nothing
nothing
nothing
nothing
nothing
nothing
nothing
nothing
nothing
nothing
nothing
nothing
nothing
nothing
nothing
nothing
nothing
nothing
nothing
nothing
nothing
nothing
nothing
nothing
nothing
nothing
nothing
nothing
nothing
nothing
nothing
nothing
nothing
nothing
nothing
nothing
nothing
nothing
nothing

ecp=special
MCDHF-ECP-10
MCDHF-ECP-10
none
none
none
none
none
none
none
none
none
none
none
none
none
none
none
none
none
none
none
none
none
none
none
none
none
none
none
none
none
none
none
none
none
none
none
none
none
none
none
none
none
none
none
none
none
none
none
none
none
none
none
none
none
none
none
none
none
none
ECP-12
ECP-12
ECP-12
ECP-12
ECP-12
ECP-12
ECP-12
ECP-12
ECP-12
ECP-12
ECP-12
ECP-12
ECP-12
ECP-12
ECP-12
ECP-12
ECP-12
ECP-12
ECP-12
ECP-12
ECP-12
ECP-12
ECP-12
ECP-12
ECP-12
ECP-12
ECP-12
ECP-12
ECP-12
ECP-12
ECP-12
ECP-12
ECP-12
ECP-12
ECP-12
ECP-12
ECP-12
ECP-12
ECP-12
ECP-12
ECP-12
ECP-12
ECP-12
ECP-12
ECP-12
ECP-12
ECP-12
ECP-12

unit=angs
geom=xyz
108
Cu2 Mg21 O37 ECP48
Cu    0.00000000000    0.00000000000    4.16634288861
Cu    0.00000000000    0.00000000000    1.94244550059
O     0.00000000000    0.00000000000    0.00000000000
Mg   -2.11388582115    0.00000000000    0.00000000000
Mg    0.00000000000    2.11388582115    0.00000000000
Mg    2.11388582115    0.00000000000    0.00000000000
Mg    0.00000000000   -2.11388582115    0.00000000000
Mg    0.00000000000    0.00000000000   -2.11388582115
O    -2.11388582115    2.11388582115    0.00000000000
O     2.11388582115    2.11388582115    0.00000000000
O     2.11388582115   -2.11388582115    0.00000000000
O    -2.11388582115   -2.11388582115    0.00000000000
O    -2.11388582115    0.00000000000   -2.11388582115
O     0.00000000000    2.11388582115   -2.11388582115
O     2.11388582115    0.00000000000   -2.11388582115
O     0.00000000000   -2.11388582115   -2.11388582115
Mg   -2.11388582115    2.11388582115   -2.11388582115
Mg    2.11388582115    2.11388582115   -2.11388582115
Mg    2.11388582115   -2.11388582115   -2.11388582115
Mg   -2.11388582115   -2.11388582115   -2.11388582115
O    -4.22777164231    0.00000000000    0.00000000000
O     0.00000000000    4.22777164231    0.00000000000
O     4.22777164231    0.00000000000    0.00000000000
O     0.00000000000   -4.22777164231    0.00000000000
Mg   -4.22777164231    2.11388582115    0.00000000000
Mg   -2.11388582115    4.22777164231    0.00000000000
Mg    2.11388582115    4.22777164231    0.00000000000
Mg    4.22777164231    2.11388582115    0.00000000000
Mg    4.22777164231   -2.11388582115    0.00000000000
Mg    2.11388582115   -4.22777164231    0.00000000000
Mg   -2.11388582115   -4.22777164231    0.00000000000
Mg   -4.22777164231   -2.11388582115    0.00000000000
Mg   -4.22777164231    0.00000000000   -2.11388582115
Mg    0.00000000000    4.22777164231   -2.11388582115
Mg    4.22777164231    0.00000000000   -2.11388582115
Mg    0.00000000000   -4.22777164231   -2.11388582115
O    -4.22777164231    2.11388582115   -2.11388582115
O    -2.11388582115    4.22777164231   -2.11388582115
O     2.11388582115    4.22777164231   -2.11388582115
O     4.22777164231    2.11388582115   -2.11388582115
O     4.22777164231   -2.11388582115   -2.11388582115
O     2.11388582115   -4.22777164231   -2.11388582115
O    -2.11388582115   -4.22777164231   -2.11388582115
O    -4.22777164231   -2.11388582115   -2.11388582115
O    -4.22777164231    4.22777164231    0.00000000000
O     4.22777164231    4.22777164231    0.00000000000
O     4.22777164231   -4.22777164231    0.00000000000
O    -4.22777164231   -4.22777164231    0.00000000000
O    -6.34165746346    2.11388582115    0.00000000000
O    -2.11388582115    6.34165746346    0.00000000000
O     2.11388582115    6.34165746346    0.00000000000
O     6.34165746346    2.11388582115    0.00000000000
O     6.34165746346   -2.11388582115    0.00000000000
O     2.11388582115   -6.34165746346    0.00000000000
O    -2.11388582115   -6.34165746346    0.00000000000
O    -6.34165746346   -2.11388582115    0.00000000000
O    -6.34165746346    0.00000000000   -2.11388582115
O     0.00000000000    6.34165746346   -2.11388582115
O     6.34165746346    0.00000000000   -2.11388582115
O     0.00000000000   -6.34165746346   -2.11388582115
Mg   -6.34165746346    0.00000000000    0.00000000000
Mg    0.00000000000    6.34165746346    0.00000000000
Mg    6.34165746346    0.00000000000    0.00000000000
Mg    0.00000000000   -6.34165746346    0.00000000000
Mg   -4.22777164231    4.22777164231   -2.11388582115
Mg    4.22777164231    4.22777164231   -2.11388582115
Mg    4.22777164231   -4.22777164231   -2.11388582115
Mg   -4.22777164231   -4.22777164231   -2.11388582115
Mg   -6.34165746346    2.11388582115   -2.11388582115
Mg   -2.11388582115    6.34165746346   -2.11388582115
Mg    2.11388582115    6.34165746346   -2.11388582115
Mg    6.34165746346    2.11388582115   -2.11388582115
Mg    6.34165746346   -2.11388582115   -2.11388582115
Mg    2.11388582115   -6.34165746346   -2.11388582115
Mg   -2.11388582115   -6.34165746346   -2.11388582115
Mg   -6.34165746346   -2.11388582115   -2.11388582115
Mg   -6.34165746346    4.22777164231    0.00000000000
Mg   -4.22777164231    6.34165746346    0.00000000000
Mg    4.22777164231    6.34165746346    0.00000000000
Mg    6.34165746346    4.22777164231    0.00000000000
Mg    6.34165746346   -4.22777164231    0.00000000000
Mg    4.22777164231   -6.34165746346    0.00000000000
Mg   -4.22777164231   -6.34165746346    0.00000000000
Mg   -6.34165746346   -4.22777164231    0.00000000000
Mg   -8.45554328461    2.11388582115    0.00000000000
Mg   -2.11388582115    8.45554328461    0.00000000000
Mg    2.11388582115    8.45554328461    0.00000000000
Mg    8.45554328461    2.11388582115    0.00000000000
Mg    8.45554328461   -2.11388582115    0.00000000000
Mg    2.11388582115   -8.45554328461    0.00000000000
Mg   -2.11388582115   -8.45554328461    0.00000000000
Mg   -8.45554328461   -2.11388582115    0.00000000000
Mg   -8.45554328461    0.00000000000   -2.11388582115
Mg    0.00000000000    8.45554328461   -2.11388582115
Mg    8.45554328461    0.00000000000   -2.11388582115
Mg    0.00000000000   -8.45554328461   -2.11388582115
Mg   -6.34165746346    6.34165746346   -2.11388582115
Mg    6.34165746346    6.34165746346   -2.11388582115
Mg    6.34165746346   -6.34165746346   -2.11388582115
Mg   -6.34165746346   -6.34165746346   -2.11388582115
Mg   -8.45554328461    4.22777164231   -2.11388582115
Mg   -4.22777164231    8.45554328461   -2.11388582115
Mg    4.22777164231    8.45554328461   -2.11388582115
Mg    8.45554328461    4.22777164231   -2.11388582115
Mg    8.45554328461   -4.22777164231   -2.11388582115
Mg    4.22777164231   -8.45554328461   -2.11388582115
Mg   -4.22777164231   -8.45554328461   -2.11388582115
Mg   -8.45554328461   -4.22777164231   -2.11388582115


ghost=serialno


qmmm=Amber
pointcharges
8991
     -6.34165746346    0.00000000000    0.00000000000    2.00000000000
      0.00000000000    6.34165746346    0.00000000000    2.00000000000
      6.34165746346    0.00000000000    0.00000000000    2.00000000000
      0.00000000000   -6.34165746346    0.00000000000    2.00000000000
     -4.22777164231    4.22777164231   -2.11388582115    2.00000000000
      4.22777164231    4.22777164231   -2.11388582115    2.00000000000
      4.22777164231   -4.22777164231   -2.11388582115    2.00000000000
     -4.22777164231   -4.22777164231   -2.11388582115    2.00000000000
     -6.34165746346    2.11388582115   -2.11388582115    2.00000000000
     -2.11388582115    6.34165746346   -2.11388582115    2.00000000000
      2.11388582115    6.34165746346   -2.11388582115    2.00000000000
      6.34165746346    2.11388582115   -2.11388582115    2.00000000000
      6.34165746346   -2.11388582115   -2.11388582115    2.00000000000
      2.11388582115   -6.34165746346   -2.11388582115    2.00000000000
     -2.11388582115   -6.34165746346   -2.11388582115    2.00000000000
     -6.34165746346   -2.11388582115   -2.11388582115    2.00000000000
     -6.34165746346    4.22777164231    0.00000000000    2.00000000000
     -4.22777164231    6.34165746346    0.00000000000    2.00000000000
      4.22777164231    6.34165746346    0.00000000000    2.00000000000
      6.34165746346    4.22777164231    0.00000000000    2.00000000000
      6.34165746346   -4.22777164231    0.00000000000    2.00000000000
      4.22777164231   -6.34165746346    0.00000000000    2.00000000000
     -4.22777164231   -6.34165746346    0.00000000000    2.00000000000
     -6.34165746346   -4.22777164231    0.00000000000    2.00000000000
     -6.34165746346    4.22777164231   -2.11388582115   -2.00000000000
     -4.22777164231    6.34165746346   -2.11388582115   -2.00000000000
      4.22777164231    6.34165746346   -2.11388582115   -2.00000000000
      6.34165746346    4.22777164231   -2.11388582115   -2.00000000000
      6.34165746346   -4.22777164231   -2.11388582115   -2.00000000000
      4.22777164231   -6.34165746346   -2.11388582115   -2.00000000000
     -4.22777164231   -6.34165746346   -2.11388582115   -2.00000000000
     -6.34165746346   -4.22777164231   -2.11388582115   -2.00000000000
     -8.45554328461    0.00000000000    0.00000000000   -2.00000000000
      0.00000000000    8.45554328461    0.00000000000   -2.00000000000
      8.45554328461    0.00000000000    0.00000000000   -2.00000000000
      0.00000000000   -8.45554328461    0.00000000000   -2.00000000000
     -8.45554328461    2.11388582115    0.00000000000    2.00000000000
     -2.11388582115    8.45554328461    0.00000000000    2.00000000000
      2.11388582115    8.45554328461    0.00000000000    2.00000000000
      8.45554328461    2.11388582115    0.00000000000    2.00000000000
      8.45554328461   -2.11388582115    0.00000000000    2.00000000000
      2.11388582115   -8.45554328461    0.00000000000    2.00000000000
     -2.11388582115   -8.45554328461    0.00000000000    2.00000000000
     -8.45554328461   -2.11388582115    0.00000000000    2.00000000000
     -8.45554328461    0.00000000000   -2.11388582115    2.00000000000
      0.00000000000    8.45554328461   -2.11388582115    2.00000000000
      8.45554328461    0.00000000000   -2.11388582115    2.00000000000
      0.00000000000   -8.45554328461   -2.11388582115    2.00000000000
     -6.34165746346    6.34165746346    0.00000000000   -2.00000000000
      6.34165746346    6.34165746346    0.00000000000   -2.00000000000
      6.34165746346   -6.34165746346    0.00000000000   -2.00000000000
     -6.34165746346   -6.34165746346    0.00000000000   -2.00000000000
     -8.45554328461    2.11388582115   -2.11388582115   -2.00000000000
     -2.11388582115    8.45554328461   -2.11388582115   -2.00000000000
      2.11388582115    8.45554328461   -2.11388582115   -2.00000000000
      8.45554328461    2.11388582115   -2.11388582115   -2.00000000000
      8.45554328461   -2.11388582115   -2.11388582115   -2.00000000000
      2.11388582115   -8.45554328461   -2.11388582115   -2.00000000000
     -2.11388582115   -8.45554328461   -2.11388582115   -2.00000000000
     -8.45554328461   -2.11388582115   -2.11388582115   -2.00000000000
     -6.34165746346    6.34165746346   -2.11388582115    2.00000000000
      6.34165746346    6.34165746346   -2.11388582115    2.00000000000
      6.34165746346   -6.34165746346   -2.11388582115    2.00000000000
     -6.34165746346   -6.34165746346   -2.11388582115    2.00000000000
     -8.45554328461    4.22777164231    0.00000000000   -2.00000000000
     -4.22777164231    8.45554328461    0.00000000000   -2.00000000000
      4.22777164231    8.45554328461    0.00000000000   -2.00000000000
      8.45554328461    4.22777164231    0.00000000000   -2.00000000000
      8.45554328461   -4.22777164231    0.00000000000   -2.00000000000
      4.22777164231   -8.45554328461    0.00000000000   -2.00000000000
     -4.22777164231   -8.45554328461    0.00000000000   -2.00000000000
     -8.45554328461   -4.22777164231    0.00000000000   -2.00000000000
     -8.45554328461    4.22777164231   -2.11388582115    2.00000000000
     -4.22777164231    8.45554328461   -2.11388582115    2.00000000000
      4.22777164231    8.45554328461   -2.11388582115    2.00000000000
      8.45554328461    4.22777164231   -2.11388582115    2.00000000000
      8.45554328461   -4.22777164231   -2.11388582115    2.00000000000
      4.22777164231   -8.45554328461   -2.11388582115    2.00000000000
     -4.22777164231   -8.45554328461   -2.11388582115    2.00000000000
     -8.45554328461   -4.22777164231   -2.11388582115    2.00000000000
    -10.56942910577    0.00000000000    0.00000000000    2.00000000000
     -8.45554328461    6.34165746346    0.00000000000    2.00000000000
     -6.34165746346    8.45554328461    0.00000000000    2.00000000000
      0.00000000000   10.56942910577    0.00000000000    2.00000000000
      6.34165746346    8.45554328461    0.00000000000    2.00000000000
      8.45554328461    6.34165746346    0.00000000000    2.00000000000
     10.56942910577    0.00000000000    0.00000000000    2.00000000000
      8.45554328461   -6.34165746346    0.00000000000    2.00000000000
      6.34165746346   -8.45554328461    0.00000000000    2.00000000000
      0.00000000000  -10.56942910577    0.00000000000    2.00000000000
     -6.34165746346   -8.45554328461    0.00000000000    2.00000000000
     -8.45554328461   -6.34165746346    0.00000000000    2.00000000000
    -10.56942910577    2.11388582115    0.00000000000   -2.00000000000
     -2.11388582115   10.56942910577    0.00000000000   -2.00000000000
      2.11388582115   10.56942910577    0.00000000000   -2.00000000000
     10.56942910577    2.11388582115    0.00000000000   -2.00000000000
     10.56942910577   -2.11388582115    0.00000000000   -2.00000000000
      2.11388582115  -10.56942910577    0.00000000000   -2.00000000000
     -2.11388582115  -10.56942910577    0.00000000000   -2.00000000000
    -10.56942910577   -2.11388582115    0.00000000000   -2.00000000000
    -10.56942910577    0.00000000000   -2.11388582115   -2.00000000000
     -8.45554328461    6.34165746346   -2.11388582115   -2.00000000000
     -6.34165746346    8.45554328461   -2.11388582115   -2.00000000000
      0.00000000000   10.56942910577   -2.11388582115   -2.00000000000
      6.34165746346    8.45554328461   -2.11388582115   -2.00000000000
      8.45554328461    6.34165746346   -2.11388582115   -2.00000000000
     10.56942910577    0.00000000000   -2.11388582115   -2.00000000000
      8.45554328461   -6.34165746346   -2.11388582115   -2.00000000000
      6.34165746346   -8.45554328461   -2.11388582115   -2.00000000000
      0.00000000000  -10.56942910577   -2.11388582115   -2.00000000000
     -6.34165746346   -8.45554328461   -2.11388582115   -2.00000000000
     -8.45554328461   -6.34165746346   -2.11388582115   -2.00000000000
    -10.56942910577    2.11388582115   -2.11388582115    2.00000000000
     -2.11388582115   10.56942910577   -2.11388582115    2.00000000000
      2.11388582115   10.56942910577   -2.11388582115    2.00000000000
     10.56942910577    2.11388582115   -2.11388582115    2.00000000000
     10.56942910577   -2.11388582115   -2.11388582115    2.00000000000
      2.11388582115  -10.56942910577   -2.11388582115    2.00000000000
     -2.11388582115  -10.56942910577   -2.11388582115    2.00000000000
    -10.56942910577   -2.11388582115   -2.11388582115    2.00000000000
    -10.56942910577    4.22777164231    0.00000000000    2.00000000000
     -4.22777164231   10.56942910577    0.00000000000    2.00000000000
      4.22777164231   10.56942910577    0.00000000000    2.00000000000
     10.56942910577    4.22777164231    0.00000000000    2.00000000000
     10.56942910577   -4.22777164231    0.00000000000    2.00000000000
      4.22777164231  -10.56942910577    0.00000000000    2.00000000000
     -4.22777164231  -10.56942910577    0.00000000000    2.00000000000
    -10.56942910577   -4.22777164231    0.00000000000    2.00000000000
    -10.56942910577    4.22777164231   -2.11388582115   -2.00000000000
     -4.22777164231   10.56942910577   -2.11388582115   -2.00000000000
      4.22777164231   10.56942910577   -2.11388582115   -2.00000000000
     10.56942910577    4.22777164231   -2.11388582115   -2.00000000000
     10.56942910577   -4.22777164231   -2.11388582115   -2.00000000000
      4.22777164231  -10.56942910577   -2.11388582115   -2.00000000000
     -4.22777164231  -10.56942910577   -2.11388582115   -2.00000000000
    -10.56942910577   -4.22777164231   -2.11388582115   -2.00000000000
     -8.45554328461    8.45554328461    0.00000000000   -2.00000000000
      8.45554328461    8.45554328461    0.00000000000   -2.00000000000
      8.45554328461   -8.45554328461    0.00000000000   -2.00000000000
     -8.45554328461   -8.45554328461    0.00000000000   -2.00000000000
     -8.45554328461    8.45554328461   -2.11388582115    2.00000000000
      8.45554328461    8.45554328461   -2.11388582115    2.00000000000
      8.45554328461   -8.45554328461   -2.11388582115    2.00000000000
     -8.45554328461   -8.45554328461   -2.11388582115    2.00000000000
    -10.56942910577    6.34165746346    0.00000000000   -2.00000000000
     -6.34165746346   10.56942910577    0.00000000000   -2.00000000000
      6.34165746346   10.56942910577    0.00000000000   -2.00000000000
     10.56942910577    6.34165746346    0.00000000000   -2.00000000000
     10.56942910577   -6.34165746346    0.00000000000   -2.00000000000
      6.34165746346  -10.56942910577    0.00000000000   -2.00000000000
     -6.34165746346  -10.56942910577    0.00000000000   -2.00000000000
    -10.56942910577   -6.34165746346    0.00000000000   -2.00000000000
    -10.56942910577    6.34165746346   -2.11388582115    2.00000000000
     -6.34165746346   10.56942910577   -2.11388582115    2.00000000000
      6.34165746346   10.56942910577   -2.11388582115    2.00000000000
     10.56942910577    6.34165746346   -2.11388582115    2.00000000000
     10.56942910577   -6.34165746346   -2.11388582115    2.00000000000
      6.34165746346  -10.56942910577   -2.11388582115    2.00000000000
     -6.34165746346  -10.56942910577   -2.11388582115    2.00000000000
    -10.56942910577   -6.34165746346   -2.11388582115    2.00000000000
    -12.68331492692    0.00000000000    0.00000000000   -2.00000000000
      0.00000000000   12.68331492692    0.00000000000   -2.00000000000
     12.68331492692    0.00000000000    0.00000000000   -2.00000000000
      0.00000000000  -12.68331492692    0.00000000000   -2.00000000000
    -12.68331492692    2.11388582115    0.00000000000    2.00000000000
     -2.11388582115   12.68331492692    0.00000000000    2.00000000000
      2.11388582115   12.68331492692    0.00000000000    2.00000000000
     12.68331492692    2.11388582115    0.00000000000    2.00000000000
     12.68331492692   -2.11388582115    0.00000000000    2.00000000000
      2.11388582115  -12.68331492692    0.00000000000    2.00000000000
     -2.11388582115  -12.68331492692    0.00000000000    2.00000000000
    -12.68331492692   -2.11388582115    0.00000000000    2.00000000000
    -12.68331492692    0.00000000000   -2.11388582115    2.00000000000
      0.00000000000   12.68331492692   -2.11388582115    2.00000000000
     12.68331492692    0.00000000000   -2.11388582115    2.00000000000
      0.00000000000  -12.68331492692   -2.11388582115    2.00000000000
    -12.68331492692    2.11388582115   -2.11388582115   -2.00000000000
     -2.11388582115   12.68331492692   -2.11388582115   -2.00000000000
      2.11388582115   12.68331492692   -2.11388582115   -2.00000000000
     12.68331492692    2.11388582115   -2.11388582115   -2.00000000000
     12.68331492692   -2.11388582115   -2.11388582115   -2.00000000000
      2.11388582115  -12.68331492692   -2.11388582115   -2.00000000000
     -2.11388582115  -12.68331492692   -2.11388582115   -2.00000000000
    -12.68331492692   -2.11388582115   -2.11388582115   -2.00000000000
    -12.68331492692    4.22777164231    0.00000000000   -2.00000000000
     -4.22777164231   12.68331492692    0.00000000000   -2.00000000000
      4.22777164231   12.68331492692    0.00000000000   -2.00000000000
     12.68331492692    4.22777164231    0.00000000000   -2.00000000000
     12.68331492692   -4.22777164231    0.00000000000   -2.00000000000
      4.22777164231  -12.68331492692    0.00000000000   -2.00000000000
     -4.22777164231  -12.68331492692    0.00000000000   -2.00000000000
    -12.68331492692   -4.22777164231    0.00000000000   -2.00000000000
    -10.56942910577    8.45554328461    0.00000000000    2.00000000000
     -8.45554328461   10.56942910577    0.00000000000    2.00000000000
      8.45554328461   10.56942910577    0.00000000000    2.00000000000
     10.56942910577    8.45554328461    0.00000000000    2.00000000000
     10.56942910577   -8.45554328461    0.00000000000    2.00000000000
      8.45554328461  -10.56942910577    0.00000000000    2.00000000000
     -8.45554328461  -10.56942910577    0.00000000000    2.00000000000
    -10.56942910577   -8.45554328461    0.00000000000    2.00000000000
    -12.68331492692    4.22777164231   -2.11388582115    2.00000000000
     -4.22777164231   12.68331492692   -2.11388582115    2.00000000000
      4.22777164231   12.68331492692   -2.11388582115    2.00000000000
     12.68331492692    4.22777164231   -2.11388582115    2.00000000000
     12.68331492692   -4.22777164231   -2.11388582115    2.00000000000
      4.22777164231  -12.68331492692   -2.11388582115    2.00000000000
     -4.22777164231  -12.68331492692   -2.11388582115    2.00000000000
    -12.68331492692   -4.22777164231   -2.11388582115    2.00000000000
    -10.56942910577    8.45554328461   -2.11388582115   -2.00000000000
     -8.45554328461   10.56942910577   -2.11388582115   -2.00000000000
      8.45554328461   10.56942910577   -2.11388582115   -2.00000000000
     10.56942910577    8.45554328461   -2.11388582115   -2.00000000000
     10.56942910577   -8.45554328461   -2.11388582115   -2.00000000000
      8.45554328461  -10.56942910577   -2.11388582115   -2.00000000000
     -8.45554328461  -10.56942910577   -2.11388582115   -2.00000000000
    -10.56942910577   -8.45554328461   -2.11388582115   -2.00000000000
    -12.68331492692    6.34165746346    0.00000000000    2.00000000000
     -6.34165746346   12.68331492692    0.00000000000    2.00000000000
      6.34165746346   12.68331492692    0.00000000000    2.00000000000
     12.68331492692    6.34165746346    0.00000000000    2.00000000000
     12.68331492692   -6.34165746346    0.00000000000    2.00000000000
      6.34165746346  -12.68331492692    0.00000000000    2.00000000000
     -6.34165746346  -12.68331492692    0.00000000000    2.00000000000
    -12.68331492692   -6.34165746346    0.00000000000    2.00000000000
    -12.68331492692    6.34165746346   -2.11388582115   -2.00000000000
     -6.34165746346   12.68331492692   -2.11388582115   -2.00000000000
      6.34165746346   12.68331492692   -2.11388582115   -2.00000000000
     12.68331492692    6.34165746346   -2.11388582115   -2.00000000000
     12.68331492692   -6.34165746346   -2.11388582115   -2.00000000000
      6.34165746346  -12.68331492692   -2.11388582115   -2.00000000000
     -6.34165746346  -12.68331492692   -2.11388582115   -2.00000000000
    -12.68331492692   -6.34165746346   -2.11388582115   -2.00000000000
    -14.79720074808    0.00000000000    0.00000000000    2.00000000000
      0.00000000000   14.79720074808    0.00000000000    2.00000000000
     14.79720074808    0.00000000000    0.00000000000    2.00000000000
      0.00000000000  -14.79720074808    0.00000000000    2.00000000000
    -14.79720074808    2.11388582115    0.00000000000   -2.00000000000
    -10.56942910577   10.56942910577    0.00000000000   -2.00000000000
     -2.11388582115   14.79720074808    0.00000000000   -2.00000000000
      2.11388582115   14.79720074808    0.00000000000   -2.00000000000
     10.56942910577   10.56942910577    0.00000000000   -2.00000000000
     14.79720074808    2.11388582115    0.00000000000   -2.00000000000
     14.79720074808   -2.11388582115    0.00000000000   -2.00000000000
     10.56942910577  -10.56942910577    0.00000000000   -2.00000000000
      2.11388582115  -14.79720074808    0.00000000000   -2.00000000000
     -2.11388582115  -14.79720074808    0.00000000000   -2.00000000000
    -10.56942910577  -10.56942910577    0.00000000000   -2.00000000000
    -14.79720074808   -2.11388582115    0.00000000000   -2.00000000000
    -14.79720074808    0.00000000000   -2.11388582115   -2.00000000000
      0.00000000000   14.79720074808   -2.11388582115   -2.00000000000
     14.79720074808    0.00000000000   -2.11388582115   -2.00000000000
      0.00000000000  -14.79720074808   -2.11388582115   -2.00000000000
    -14.79720074808    2.11388582115   -2.11388582115    2.00000000000
    -10.56942910577   10.56942910577   -2.11388582115    2.00000000000
     -2.11388582115   14.79720074808   -2.11388582115    2.00000000000
      2.11388582115   14.79720074808   -2.11388582115    2.00000000000
     10.56942910577   10.56942910577   -2.11388582115    2.00000000000
     14.79720074808    2.11388582115   -2.11388582115    2.00000000000
     14.79720074808   -2.11388582115   -2.11388582115    2.00000000000
     10.56942910577  -10.56942910577   -2.11388582115    2.00000000000
      2.11388582115  -14.79720074808   -2.11388582115    2.00000000000
     -2.11388582115  -14.79720074808   -2.11388582115    2.00000000000
    -10.56942910577  -10.56942910577   -2.11388582115    2.00000000000
    -14.79720074808   -2.11388582115   -2.11388582115    2.00000000000
    -12.68331492692    8.45554328461    0.00000000000   -2.00000000000
     -8.45554328461   12.68331492692    0.00000000000   -2.00000000000
      8.45554328461   12.68331492692    0.00000000000   -2.00000000000
     12.68331492692    8.45554328461    0.00000000000   -2.00000000000
     12.68331492692   -8.45554328461    0.00000000000   -2.00000000000
      8.45554328461  -12.68331492692    0.00000000000   -2.00000000000
     -8.45554328461  -12.68331492692    0.00000000000   -2.00000000000
    -12.68331492692   -8.45554328461    0.00000000000   -2.00000000000
    -14.79720074808    4.22777164231    0.00000000000    2.00000000000
     -4.22777164231   14.79720074808    0.00000000000    2.00000000000
      4.22777164231   14.79720074808    0.00000000000    2.00000000000
     14.79720074808    4.22777164231    0.00000000000    2.00000000000
     14.79720074808   -4.22777164231    0.00000000000    2.00000000000
      4.22777164231  -14.79720074808    0.00000000000    2.00000000000
     -4.22777164231  -14.79720074808    0.00000000000    2.00000000000
    -14.79720074808   -4.22777164231    0.00000000000    2.00000000000
    -12.68331492692    8.45554328461   -2.11388582115    2.00000000000
     -8.45554328461   12.68331492692   -2.11388582115    2.00000000000
      8.45554328461   12.68331492692   -2.11388582115    2.00000000000
     12.68331492692    8.45554328461   -2.11388582115    2.00000000000
     12.68331492692   -8.45554328461   -2.11388582115    2.00000000000
      8.45554328461  -12.68331492692   -2.11388582115    2.00000000000
     -8.45554328461  -12.68331492692   -2.11388582115    2.00000000000
    -12.68331492692   -8.45554328461   -2.11388582115    2.00000000000
    -14.79720074808    4.22777164231   -2.11388582115   -2.00000000000
     -4.22777164231   14.79720074808   -2.11388582115   -2.00000000000
      4.22777164231   14.79720074808   -2.11388582115   -2.00000000000
     14.79720074808    4.22777164231   -2.11388582115   -2.00000000000
     14.79720074808   -4.22777164231   -2.11388582115   -2.00000000000
      4.22777164231  -14.79720074808   -2.11388582115   -2.00000000000
     -4.22777164231  -14.79720074808   -2.11388582115   -2.00000000000
    -14.79720074808   -4.22777164231   -2.11388582115   -2.00000000000
    -14.79720074808    6.34165746346    0.00000000000   -2.00000000000
     -6.34165746346   14.79720074808    0.00000000000   -2.00000000000
      6.34165746346   14.79720074808    0.00000000000   -2.00000000000
     14.79720074808    6.34165746346    0.00000000000   -2.00000000000
     14.79720074808   -6.34165746346    0.00000000000   -2.00000000000
      6.34165746346  -14.79720074808    0.00000000000   -2.00000000000
     -6.34165746346  -14.79720074808    0.00000000000   -2.00000000000
    -14.79720074808   -6.34165746346    0.00000000000   -2.00000000000
    -14.79720074808    6.34165746346   -2.11388582115    2.00000000000
     -6.34165746346   14.79720074808   -2.11388582115    2.00000000000
      6.34165746346   14.79720074808   -2.11388582115    2.00000000000
     14.79720074808    6.34165746346   -2.11388582115    2.00000000000
     14.79720074808   -6.34165746346   -2.11388582115    2.00000000000
      6.34165746346  -14.79720074808   -2.11388582115    2.00000000000
     -6.34165746346  -14.79720074808   -2.11388582115    2.00000000000
    -14.79720074808   -6.34165746346   -2.11388582115    2.00000000000
    -12.68331492692   10.56942910577    0.00000000000    2.00000000000
    -10.56942910577   12.68331492692    0.00000000000    2.00000000000
     10.56942910577   12.68331492692    0.00000000000    2.00000000000
     12.68331492692   10.56942910577    0.00000000000    2.00000000000
     12.68331492692  -10.56942910577    0.00000000000    2.00000000000
     10.56942910577  -12.68331492692    0.00000000000    2.00000000000
    -10.56942910577  -12.68331492692    0.00000000000    2.00000000000
    -12.68331492692  -10.56942910577    0.00000000000    2.00000000000
    -12.68331492692   10.56942910577   -2.11388582115   -2.00000000000
    -10.56942910577   12.68331492692   -2.11388582115   -2.00000000000
     10.56942910577   12.68331492692   -2.11388582115   -2.00000000000
     12.68331492692   10.56942910577   -2.11388582115   -2.00000000000
     12.68331492692  -10.56942910577   -2.11388582115   -2.00000000000
     10.56942910577  -12.68331492692   -2.11388582115   -2.00000000000
    -10.56942910577  -12.68331492692   -2.11388582115   -2.00000000000
    -12.68331492692  -10.56942910577   -2.11388582115   -2.00000000000
    -16.91108656923    0.00000000000    0.00000000000   -2.00000000000
      0.00000000000   16.91108656923    0.00000000000   -2.00000000000
     16.91108656923    0.00000000000    0.00000000000   -2.00000000000
      0.00000000000  -16.91108656923    0.00000000000   -2.00000000000
    -16.91108656923    2.11388582115    0.00000000000    2.00000000000
    -14.79720074808    8.45554328461    0.00000000000    2.00000000000
     -8.45554328461   14.79720074808    0.00000000000    2.00000000000
     -2.11388582115   16.91108656923    0.00000000000    2.00000000000
      2.11388582115   16.91108656923    0.00000000000    2.00000000000
      8.45554328461   14.79720074808    0.00000000000    2.00000000000
     14.79720074808    8.45554328461    0.00000000000    2.00000000000
     16.91108656923    2.11388582115    0.00000000000    2.00000000000
     16.91108656923   -2.11388582115    0.00000000000    2.00000000000
     14.79720074808   -8.45554328461    0.00000000000    2.00000000000
      8.45554328461  -14.79720074808    0.00000000000    2.00000000000
      2.11388582115  -16.91108656923    0.00000000000    2.00000000000
     -2.11388582115  -16.91108656923    0.00000000000    2.00000000000
     -8.45554328461  -14.79720074808    0.00000000000    2.00000000000
    -14.79720074808   -8.45554328461    0.00000000000    2.00000000000
    -16.91108656923   -2.11388582115    0.00000000000    2.00000000000
    -16.91108656923    0.00000000000   -2.11388582115    2.00000000000
      0.00000000000   16.91108656923   -2.11388582115    2.00000000000
     16.91108656923    0.00000000000   -2.11388582115    2.00000000000
      0.00000000000  -16.91108656923   -2.11388582115    2.00000000000
    -16.91108656923    2.11388582115   -2.11388582115   -2.00000000000
    -14.79720074808    8.45554328461   -2.11388582115   -2.00000000000
     -8.45554328461   14.79720074808   -2.11388582115   -2.00000000000
     -2.11388582115   16.91108656923   -2.11388582115   -2.00000000000
      2.11388582115   16.91108656923   -2.11388582115   -2.00000000000
      8.45554328461   14.79720074808   -2.11388582115   -2.00000000000
     14.79720074808    8.45554328461   -2.11388582115   -2.00000000000
     16.91108656923    2.11388582115   -2.11388582115   -2.00000000000
     16.91108656923   -2.11388582115   -2.11388582115   -2.00000000000
     14.79720074808   -8.45554328461   -2.11388582115   -2.00000000000
      8.45554328461  -14.79720074808   -2.11388582115   -2.00000000000
      2.11388582115  -16.91108656923   -2.11388582115   -2.00000000000
     -2.11388582115  -16.91108656923   -2.11388582115   -2.00000000000
     -8.45554328461  -14.79720074808   -2.11388582115   -2.00000000000
    -14.79720074808   -8.45554328461   -2.11388582115   -2.00000000000
    -16.91108656923   -2.11388582115   -2.11388582115   -2.00000000000
    -16.91108656923    4.22777164231    0.00000000000   -2.00000000000
     -4.22777164231   16.91108656923    0.00000000000   -2.00000000000
      4.22777164231   16.91108656923    0.00000000000   -2.00000000000
     16.91108656923    4.22777164231    0.00000000000   -2.00000000000
     16.91108656923   -4.22777164231    0.00000000000   -2.00000000000
      4.22777164231  -16.91108656923    0.00000000000   -2.00000000000
     -4.22777164231  -16.91108656923    0.00000000000   -2.00000000000
    -16.91108656923   -4.22777164231    0.00000000000   -2.00000000000
    -16.91108656923    4.22777164231   -2.11388582115    2.00000000000
     -4.22777164231   16.91108656923   -2.11388582115    2.00000000000
      4.22777164231   16.91108656923   -2.11388582115    2.00000000000
     16.91108656923    4.22777164231   -2.11388582115    2.00000000000
     16.91108656923   -4.22777164231   -2.11388582115    2.00000000000
      4.22777164231  -16.91108656923   -2.11388582115    2.00000000000
     -4.22777164231  -16.91108656923   -2.11388582115    2.00000000000
    -16.91108656923   -4.22777164231   -2.11388582115    2.00000000000
    -12.68331492692   12.68331492692    0.00000000000   -2.00000000000
     12.68331492692   12.68331492692    0.00000000000   -2.00000000000
     12.68331492692  -12.68331492692    0.00000000000   -2.00000000000
    -12.68331492692  -12.68331492692    0.00000000000   -2.00000000000
    -16.91108656923    6.34165746346    0.00000000000    2.00000000000
     -6.34165746346   16.91108656923    0.00000000000    2.00000000000
      6.34165746346   16.91108656923    0.00000000000    2.00000000000
     16.91108656923    6.34165746346    0.00000000000    2.00000000000
     16.91108656923   -6.34165746346    0.00000000000    2.00000000000
      6.34165746346  -16.91108656923    0.00000000000    2.00000000000
     -6.34165746346  -16.91108656923    0.00000000000    2.00000000000
    -16.91108656923   -6.34165746346    0.00000000000    2.00000000000
    -12.68331492692   12.68331492692   -2.11388582115    2.00000000000
     12.68331492692   12.68331492692   -2.11388582115    2.00000000000
     12.68331492692  -12.68331492692   -2.11388582115    2.00000000000
    -12.68331492692  -12.68331492692   -2.11388582115    2.00000000000
    -14.79720074808   10.56942910577    0.00000000000   -2.00000000000
    -10.56942910577   14.79720074808    0.00000000000   -2.00000000000
     10.56942910577   14.79720074808    0.00000000000   -2.00000000000
     14.79720074808   10.56942910577    0.00000000000   -2.00000000000
     14.79720074808  -10.56942910577    0.00000000000   -2.00000000000
     10.56942910577  -14.79720074808    0.00000000000   -2.00000000000
    -10.56942910577  -14.79720074808    0.00000000000   -2.00000000000
    -14.79720074808  -10.56942910577    0.00000000000   -2.00000000000
    -16.91108656923    6.34165746346   -2.11388582115   -2.00000000000
     -6.34165746346   16.91108656923   -2.11388582115   -2.00000000000
      6.34165746346   16.91108656923   -2.11388582115   -2.00000000000
     16.91108656923    6.34165746346   -2.11388582115   -2.00000000000
     16.91108656923   -6.34165746346   -2.11388582115   -2.00000000000
      6.34165746346  -16.91108656923   -2.11388582115   -2.00000000000
     -6.34165746346  -16.91108656923   -2.11388582115   -2.00000000000
    -16.91108656923   -6.34165746346   -2.11388582115   -2.00000000000
    -14.79720074808   10.56942910577   -2.11388582115    2.00000000000
    -10.56942910577   14.79720074808   -2.11388582115    2.00000000000
     10.56942910577   14.79720074808   -2.11388582115    2.00000000000
     14.79720074808   10.56942910577   -2.11388582115    2.00000000000
     14.79720074808  -10.56942910577   -2.11388582115    2.00000000000
     10.56942910577  -14.79720074808   -2.11388582115    2.00000000000
    -10.56942910577  -14.79720074808   -2.11388582115    2.00000000000
    -14.79720074808  -10.56942910577   -2.11388582115    2.00000000000
    -16.91108656923    8.45554328461    0.00000000000   -2.00000000000
     -8.45554328461   16.91108656923    0.00000000000   -2.00000000000
      8.45554328461   16.91108656923    0.00000000000   -2.00000000000
     16.91108656923    8.45554328461    0.00000000000   -2.00000000000
     16.91108656923   -8.45554328461    0.00000000000   -2.00000000000
      8.45554328461  -16.91108656923    0.00000000000   -2.00000000000
     -8.45554328461  -16.91108656923    0.00000000000   -2.00000000000
    -16.91108656923   -8.45554328461    0.00000000000   -2.00000000000
    -19.02497239038    0.00000000000    0.00000000000    2.00000000000
      0.00000000000   19.02497239038    0.00000000000    2.00000000000
     19.02497239038    0.00000000000    0.00000000000    2.00000000000
      0.00000000000  -19.02497239038    0.00000000000    2.00000000000
    -16.91108656923    8.45554328461   -2.11388582115    2.00000000000
     -8.45554328461   16.91108656923   -2.11388582115    2.00000000000
      8.45554328461   16.91108656923   -2.11388582115    2.00000000000
     16.91108656923    8.45554328461   -2.11388582115    2.00000000000
     16.91108656923   -8.45554328461   -2.11388582115    2.00000000000
      8.45554328461  -16.91108656923   -2.11388582115    2.00000000000
     -8.45554328461  -16.91108656923   -2.11388582115    2.00000000000
    -16.91108656923   -8.45554328461   -2.11388582115    2.00000000000
    -19.02497239038    2.11388582115    0.00000000000   -2.00000000000
     -2.11388582115   19.02497239038    0.00000000000   -2.00000000000
      2.11388582115   19.02497239038    0.00000000000   -2.00000000000
     19.02497239038    2.11388582115    0.00000000000   -2.00000000000
     19.02497239038   -2.11388582115    0.00000000000   -2.00000000000
      2.11388582115  -19.02497239038    0.00000000000   -2.00000000000
     -2.11388582115  -19.02497239038    0.00000000000   -2.00000000000
    -19.02497239038   -2.11388582115    0.00000000000   -2.00000000000
    -19.02497239038    0.00000000000   -2.11388582115   -2.00000000000
      0.00000000000   19.02497239038   -2.11388582115   -2.00000000000
     19.02497239038    0.00000000000   -2.11388582115   -2.00000000000
      0.00000000000  -19.02497239038   -2.11388582115   -2.00000000000
    -19.02497239038    2.11388582115   -2.11388582115    2.00000000000
     -2.11388582115   19.02497239038   -2.11388582115    2.00000000000
      2.11388582115   19.02497239038   -2.11388582115    2.00000000000
     19.02497239038    2.11388582115   -2.11388582115    2.00000000000
     19.02497239038   -2.11388582115   -2.11388582115    2.00000000000
      2.11388582115  -19.02497239038   -2.11388582115    2.00000000000
     -2.11388582115  -19.02497239038   -2.11388582115    2.00000000000
    -19.02497239038   -2.11388582115   -2.11388582115    2.00000000000
    -19.02497239038    4.22777164231    0.00000000000    2.00000000000
    -14.79720074808   12.68331492692    0.00000000000    2.00000000000
    -12.68331492692   14.79720074808    0.00000000000    2.00000000000
     -4.22777164231   19.02497239038    0.00000000000    2.00000000000
      4.22777164231   19.02497239038    0.00000000000    2.00000000000
     12.68331492692   14.79720074808    0.00000000000    2.00000000000
     14.79720074808   12.68331492692    0.00000000000    2.00000000000
     19.02497239038    4.22777164231    0.00000000000    2.00000000000
     19.02497239038   -4.22777164231    0.00000000000    2.00000000000
     14.79720074808  -12.68331492692    0.00000000000    2.00000000000
     12.68331492692  -14.79720074808    0.00000000000    2.00000000000
      4.22777164231  -19.02497239038    0.00000000000    2.00000000000
     -4.22777164231  -19.02497239038    0.00000000000    2.00000000000
    -12.68331492692  -14.79720074808    0.00000000000    2.00000000000
    -14.79720074808  -12.68331492692    0.00000000000    2.00000000000
    -19.02497239038   -4.22777164231    0.00000000000    2.00000000000
    -19.02497239038    4.22777164231   -2.11388582115   -2.00000000000
    -14.79720074808   12.68331492692   -2.11388582115   -2.00000000000
    -12.68331492692   14.79720074808   -2.11388582115   -2.00000000000
     -4.22777164231   19.02497239038   -2.11388582115   -2.00000000000
      4.22777164231   19.02497239038   -2.11388582115   -2.00000000000
     12.68331492692   14.79720074808   -2.11388582115   -2.00000000000
     14.79720074808   12.68331492692   -2.11388582115   -2.00000000000
     19.02497239038    4.22777164231   -2.11388582115   -2.00000000000
     19.02497239038   -4.22777164231   -2.11388582115   -2.00000000000
     14.79720074808  -12.68331492692   -2.11388582115   -2.00000000000
     12.68331492692  -14.79720074808   -2.11388582115   -2.00000000000
      4.22777164231  -19.02497239038   -2.11388582115   -2.00000000000
     -4.22777164231  -19.02497239038   -2.11388582115   -2.00000000000
    -12.68331492692  -14.79720074808   -2.11388582115   -2.00000000000
    -14.79720074808  -12.68331492692   -2.11388582115   -2.00000000000
    -19.02497239038   -4.22777164231   -2.11388582115   -2.00000000000
    -16.91108656923   10.56942910577    0.00000000000    2.00000000000
    -10.56942910577   16.91108656923    0.00000000000    2.00000000000
     10.56942910577   16.91108656923    0.00000000000    2.00000000000
     16.91108656923   10.56942910577    0.00000000000    2.00000000000
     16.91108656923  -10.56942910577    0.00000000000    2.00000000000
     10.56942910577  -16.91108656923    0.00000000000    2.00000000000
    -10.56942910577  -16.91108656923    0.00000000000    2.00000000000
    -16.91108656923  -10.56942910577    0.00000000000    2.00000000000
    -19.02497239038    6.34165746346    0.00000000000   -2.00000000000
     -6.34165746346   19.02497239038    0.00000000000   -2.00000000000
      6.34165746346   19.02497239038    0.00000000000   -2.00000000000
     19.02497239038    6.34165746346    0.00000000000   -2.00000000000
     19.02497239038   -6.34165746346    0.00000000000   -2.00000000000
      6.34165746346  -19.02497239038    0.00000000000   -2.00000000000
     -6.34165746346  -19.02497239038    0.00000000000   -2.00000000000
    -19.02497239038   -6.34165746346    0.00000000000   -2.00000000000
    -16.91108656923   10.56942910577   -2.11388582115   -2.00000000000
    -10.56942910577   16.91108656923   -2.11388582115   -2.00000000000
     10.56942910577   16.91108656923   -2.11388582115   -2.00000000000
     16.91108656923   10.56942910577   -2.11388582115   -2.00000000000
     16.91108656923  -10.56942910577   -2.11388582115   -2.00000000000
     10.56942910577  -16.91108656923   -2.11388582115   -2.00000000000
    -10.56942910577  -16.91108656923   -2.11388582115   -2.00000000000
    -16.91108656923  -10.56942910577   -2.11388582115   -2.00000000000
    -19.02497239038    6.34165746346   -2.11388582115    2.00000000000
     -6.34165746346   19.02497239038   -2.11388582115    2.00000000000
      6.34165746346   19.02497239038   -2.11388582115    2.00000000000
     19.02497239038    6.34165746346   -2.11388582115    2.00000000000
     19.02497239038   -6.34165746346   -2.11388582115    2.00000000000
      6.34165746346  -19.02497239038   -2.11388582115    2.00000000000
     -6.34165746346  -19.02497239038   -2.11388582115    2.00000000000
    -19.02497239038   -6.34165746346   -2.11388582115    2.00000000000
    -19.02497239038    8.45554328461    0.00000000000    2.00000000000
     -8.45554328461   19.02497239038    0.00000000000    2.00000000000
      8.45554328461   19.02497239038    0.00000000000    2.00000000000
     19.02497239038    8.45554328461    0.00000000000    2.00000000000
     19.02497239038   -8.45554328461    0.00000000000    2.00000000000
      8.45554328461  -19.02497239038    0.00000000000    2.00000000000
     -8.45554328461  -19.02497239038    0.00000000000    2.00000000000
    -19.02497239038   -8.45554328461    0.00000000000    2.00000000000
    -14.79720074808   14.79720074808    0.00000000000   -2.00000000000
     14.79720074808   14.79720074808    0.00000000000   -2.00000000000
     14.79720074808  -14.79720074808    0.00000000000   -2.00000000000
    -14.79720074808  -14.79720074808    0.00000000000   -2.00000000000
    -19.02497239038    8.45554328461   -2.11388582115   -2.00000000000
     -8.45554328461   19.02497239038   -2.11388582115   -2.00000000000
      8.45554328461   19.02497239038   -2.11388582115   -2.00000000000
     19.02497239038    8.45554328461   -2.11388582115   -2.00000000000
     19.02497239038   -8.45554328461   -2.11388582115   -2.00000000000
      8.45554328461  -19.02497239038   -2.11388582115   -2.00000000000
     -8.45554328461  -19.02497239038   -2.11388582115   -2.00000000000
    -19.02497239038   -8.45554328461   -2.11388582115   -2.00000000000
    -14.79720074808   14.79720074808   -2.11388582115    2.00000000000
     14.79720074808   14.79720074808   -2.11388582115    2.00000000000
     14.79720074808  -14.79720074808   -2.11388582115    2.00000000000
    -14.79720074808  -14.79720074808   -2.11388582115    2.00000000000
    -21.13885821154    0.00000000000    0.00000000000   -2.00000000000
    -16.91108656923   12.68331492692    0.00000000000   -2.00000000000
    -12.68331492692   16.91108656923    0.00000000000   -2.00000000000
      0.00000000000   21.13885821154    0.00000000000   -2.00000000000
     12.68331492692   16.91108656923    0.00000000000   -2.00000000000
     16.91108656923   12.68331492692    0.00000000000   -2.00000000000
     21.13885821154    0.00000000000    0.00000000000   -2.00000000000
     16.91108656923  -12.68331492692    0.00000000000   -2.00000000000
     12.68331492692  -16.91108656923    0.00000000000   -2.00000000000
      0.00000000000  -21.13885821154    0.00000000000   -2.00000000000
    -12.68331492692  -16.91108656923    0.00000000000   -2.00000000000
    -16.91108656923  -12.68331492692    0.00000000000   -2.00000000000
    -21.13885821154    2.11388582115    0.00000000000    2.00000000000
     -2.11388582115   21.13885821154    0.00000000000    2.00000000000
      2.11388582115   21.13885821154    0.00000000000    2.00000000000
     21.13885821154    2.11388582115    0.00000000000    2.00000000000
     21.13885821154   -2.11388582115    0.00000000000    2.00000000000
      2.11388582115  -21.13885821154    0.00000000000    2.00000000000
     -2.11388582115  -21.13885821154    0.00000000000    2.00000000000
    -21.13885821154   -2.11388582115    0.00000000000    2.00000000000
    -21.13885821154    0.00000000000   -2.11388582115    2.00000000000
    -16.91108656923   12.68331492692   -2.11388582115    2.00000000000
    -12.68331492692   16.91108656923   -2.11388582115    2.00000000000
      0.00000000000   21.13885821154   -2.11388582115    2.00000000000
     12.68331492692   16.91108656923   -2.11388582115    2.00000000000
     16.91108656923   12.68331492692   -2.11388582115    2.00000000000
     21.13885821154    0.00000000000   -2.11388582115    2.00000000000
     16.91108656923  -12.68331492692   -2.11388582115    2.00000000000
     12.68331492692  -16.91108656923   -2.11388582115    2.00000000000
      0.00000000000  -21.13885821154   -2.11388582115    2.00000000000
    -12.68331492692  -16.91108656923   -2.11388582115    2.00000000000
    -16.91108656923  -12.68331492692   -2.11388582115    2.00000000000
    -21.13885821154    2.11388582115   -2.11388582115   -2.00000000000
     -2.11388582115   21.13885821154   -2.11388582115   -2.00000000000
      2.11388582115   21.13885821154   -2.11388582115   -2.00000000000
     21.13885821154    2.11388582115   -2.11388582115   -2.00000000000
     21.13885821154   -2.11388582115   -2.11388582115   -2.00000000000
      2.11388582115  -21.13885821154   -2.11388582115   -2.00000000000
     -2.11388582115  -21.13885821154   -2.11388582115   -2.00000000000
    -21.13885821154   -2.11388582115   -2.11388582115   -2.00000000000
    -21.13885821154    4.22777164231    0.00000000000   -2.00000000000
     -4.22777164231   21.13885821154    0.00000000000   -2.00000000000
      4.22777164231   21.13885821154    0.00000000000   -2.00000000000
     21.13885821154    4.22777164231    0.00000000000   -2.00000000000
     21.13885821154   -4.22777164231    0.00000000000   -2.00000000000
      4.22777164231  -21.13885821154    0.00000000000   -2.00000000000
     -4.22777164231  -21.13885821154    0.00000000000   -2.00000000000
    -21.13885821154   -4.22777164231    0.00000000000   -2.00000000000
    -21.13885821154    4.22777164231   -2.11388582115    2.00000000000
     -4.22777164231   21.13885821154   -2.11388582115    2.00000000000
      4.22777164231   21.13885821154   -2.11388582115    2.00000000000
     21.13885821154    4.22777164231   -2.11388582115    2.00000000000
     21.13885821154   -4.22777164231   -2.11388582115    2.00000000000
      4.22777164231  -21.13885821154   -2.11388582115    2.00000000000
     -4.22777164231  -21.13885821154   -2.11388582115    2.00000000000
    -21.13885821154   -4.22777164231   -2.11388582115    2.00000000000
    -19.02497239038   10.56942910577    0.00000000000   -2.00000000000
    -10.56942910577   19.02497239038    0.00000000000   -2.00000000000
     10.56942910577   19.02497239038    0.00000000000   -2.00000000000
     19.02497239038   10.56942910577    0.00000000000   -2.00000000000
     19.02497239038  -10.56942910577    0.00000000000   -2.00000000000
     10.56942910577  -19.02497239038    0.00000000000   -2.00000000000
    -10.56942910577  -19.02497239038    0.00000000000   -2.00000000000
    -19.02497239038  -10.56942910577    0.00000000000   -2.00000000000
    -19.02497239038   10.56942910577   -2.11388582115    2.00000000000
    -10.56942910577   19.02497239038   -2.11388582115    2.00000000000
     10.56942910577   19.02497239038   -2.11388582115    2.00000000000
     19.02497239038   10.56942910577   -2.11388582115    2.00000000000
     19.02497239038  -10.56942910577   -2.11388582115    2.00000000000
     10.56942910577  -19.02497239038   -2.11388582115    2.00000000000
    -10.56942910577  -19.02497239038   -2.11388582115    2.00000000000
    -19.02497239038  -10.56942910577   -2.11388582115    2.00000000000
    -21.13885821154    6.34165746346    0.00000000000    2.00000000000
     -6.34165746346   21.13885821154    0.00000000000    2.00000000000
      6.34165746346   21.13885821154    0.00000000000    2.00000000000
     21.13885821154    6.34165746346    0.00000000000    2.00000000000
     21.13885821154   -6.34165746346    0.00000000000    2.00000000000
      6.34165746346  -21.13885821154    0.00000000000    2.00000000000
     -6.34165746346  -21.13885821154    0.00000000000    2.00000000000
    -21.13885821154   -6.34165746346    0.00000000000    2.00000000000
    -21.13885821154    6.34165746346   -2.11388582115   -2.00000000000
     -6.34165746346   21.13885821154   -2.11388582115   -2.00000000000
      6.34165746346   21.13885821154   -2.11388582115   -2.00000000000
     21.13885821154    6.34165746346   -2.11388582115   -2.00000000000
     21.13885821154   -6.34165746346   -2.11388582115   -2.00000000000
      6.34165746346  -21.13885821154   -2.11388582115   -2.00000000000
     -6.34165746346  -21.13885821154   -2.11388582115   -2.00000000000
    -21.13885821154   -6.34165746346   -2.11388582115   -2.00000000000
    -16.91108656923   14.79720074808    0.00000000000    2.00000000000
    -14.79720074808   16.91108656923    0.00000000000    2.00000000000
     14.79720074808   16.91108656923    0.00000000000    2.00000000000
     16.91108656923   14.79720074808    0.00000000000    2.00000000000
     16.91108656923  -14.79720074808    0.00000000000    2.00000000000
     14.79720074808  -16.91108656923    0.00000000000    2.00000000000
    -14.79720074808  -16.91108656923    0.00000000000    2.00000000000
    -16.91108656923  -14.79720074808    0.00000000000    2.00000000000
    -16.91108656923   14.79720074808   -2.11388582115   -2.00000000000
    -14.79720074808   16.91108656923   -2.11388582115   -2.00000000000
     14.79720074808   16.91108656923   -2.11388582115   -2.00000000000
     16.91108656923   14.79720074808   -2.11388582115   -2.00000000000
     16.91108656923  -14.79720074808   -2.11388582115   -2.00000000000
     14.79720074808  -16.91108656923   -2.11388582115   -2.00000000000
    -14.79720074808  -16.91108656923   -2.11388582115   -2.00000000000
    -16.91108656923  -14.79720074808   -2.11388582115   -2.00000000000
    -21.13885821154    8.45554328461    0.00000000000   -2.00000000000
     -8.45554328461   21.13885821154    0.00000000000   -2.00000000000
      8.45554328461   21.13885821154    0.00000000000   -2.00000000000
     21.13885821154    8.45554328461    0.00000000000   -2.00000000000
     21.13885821154   -8.45554328461    0.00000000000   -2.00000000000
      8.45554328461  -21.13885821154    0.00000000000   -2.00000000000
     -8.45554328461  -21.13885821154    0.00000000000   -2.00000000000
    -21.13885821154   -8.45554328461    0.00000000000   -2.00000000000
    -19.02497239038   12.68331492692    0.00000000000    2.00000000000
    -12.68331492692   19.02497239038    0.00000000000    2.00000000000
     12.68331492692   19.02497239038    0.00000000000    2.00000000000
     19.02497239038   12.68331492692    0.00000000000    2.00000000000
     19.02497239038  -12.68331492692    0.00000000000    2.00000000000
     12.68331492692  -19.02497239038    0.00000000000    2.00000000000
    -12.68331492692  -19.02497239038    0.00000000000    2.00000000000
    -19.02497239038  -12.68331492692    0.00000000000    2.00000000000
    -21.13885821154    8.45554328461   -2.11388582115    2.00000000000
     -8.45554328461   21.13885821154   -2.11388582115    2.00000000000
      8.45554328461   21.13885821154   -2.11388582115    2.00000000000
     21.13885821154    8.45554328461   -2.11388582115    2.00000000000
     21.13885821154   -8.45554328461   -2.11388582115    2.00000000000
      8.45554328461  -21.13885821154   -2.11388582115    2.00000000000
     -8.45554328461  -21.13885821154   -2.11388582115    2.00000000000
    -21.13885821154   -8.45554328461   -2.11388582115    2.00000000000
    -19.02497239038   12.68331492692   -2.11388582115   -2.00000000000
    -12.68331492692   19.02497239038   -2.11388582115   -2.00000000000
     12.68331492692   19.02497239038   -2.11388582115   -2.00000000000
     19.02497239038   12.68331492692   -2.11388582115   -2.00000000000
     19.02497239038  -12.68331492692   -2.11388582115   -2.00000000000
     12.68331492692  -19.02497239038   -2.11388582115   -2.00000000000
    -12.68331492692  -19.02497239038   -2.11388582115   -2.00000000000
    -19.02497239038  -12.68331492692   -2.11388582115   -2.00000000000
    -23.25274403269    0.00000000000    0.00000000000    2.00000000000
      0.00000000000   23.25274403269    0.00000000000    2.00000000000
     23.25274403269    0.00000000000    0.00000000000    2.00000000000
      0.00000000000  -23.25274403269    0.00000000000    2.00000000000
    -23.25274403269    2.11388582115    0.00000000000   -2.00000000000
     -2.11388582115   23.25274403269    0.00000000000   -2.00000000000
      2.11388582115   23.25274403269    0.00000000000   -2.00000000000
     23.25274403269    2.11388582115    0.00000000000   -2.00000000000
     23.25274403269   -2.11388582115    0.00000000000   -2.00000000000
      2.11388582115  -23.25274403269    0.00000000000   -2.00000000000
     -2.11388582115  -23.25274403269    0.00000000000   -2.00000000000
    -23.25274403269   -2.11388582115    0.00000000000   -2.00000000000
    -23.25274403269    0.00000000000   -2.11388582115   -2.00000000000
      0.00000000000   23.25274403269   -2.11388582115   -2.00000000000
     23.25274403269    0.00000000000   -2.11388582115   -2.00000000000
      0.00000000000  -23.25274403269   -2.11388582115   -2.00000000000
    -23.25274403269    2.11388582115   -2.11388582115    2.00000000000
     -2.11388582115   23.25274403269   -2.11388582115    2.00000000000
      2.11388582115   23.25274403269   -2.11388582115    2.00000000000
     23.25274403269    2.11388582115   -2.11388582115    2.00000000000
     23.25274403269   -2.11388582115   -2.11388582115    2.00000000000
      2.11388582115  -23.25274403269   -2.11388582115    2.00000000000
     -2.11388582115  -23.25274403269   -2.11388582115    2.00000000000
    -23.25274403269   -2.11388582115   -2.11388582115    2.00000000000
    -23.25274403269    4.22777164231    0.00000000000    2.00000000000
    -21.13885821154   10.56942910577    0.00000000000    2.00000000000
    -10.56942910577   21.13885821154    0.00000000000    2.00000000000
     -4.22777164231   23.25274403269    0.00000000000    2.00000000000
      4.22777164231   23.25274403269    0.00000000000    2.00000000000
     10.56942910577   21.13885821154    0.00000000000    2.00000000000
     21.13885821154   10.56942910577    0.00000000000    2.00000000000
     23.25274403269    4.22777164231    0.00000000000    2.00000000000
     23.25274403269   -4.22777164231    0.00000000000    2.00000000000
     21.13885821154  -10.56942910577    0.00000000000    2.00000000000
     10.56942910577  -21.13885821154    0.00000000000    2.00000000000
      4.22777164231  -23.25274403269    0.00000000000    2.00000000000
     -4.22777164231  -23.25274403269    0.00000000000    2.00000000000
    -10.56942910577  -21.13885821154    0.00000000000    2.00000000000
    -21.13885821154  -10.56942910577    0.00000000000    2.00000000000
    -23.25274403269   -4.22777164231    0.00000000000    2.00000000000
    -23.25274403269    4.22777164231   -2.11388582115   -2.00000000000
    -21.13885821154   10.56942910577   -2.11388582115   -2.00000000000
    -10.56942910577   21.13885821154   -2.11388582115   -2.00000000000
     -4.22777164231   23.25274403269   -2.11388582115   -2.00000000000
      4.22777164231   23.25274403269   -2.11388582115   -2.00000000000
     10.56942910577   21.13885821154   -2.11388582115   -2.00000000000
     21.13885821154   10.56942910577   -2.11388582115   -2.00000000000
     23.25274403269    4.22777164231   -2.11388582115   -2.00000000000
     23.25274403269   -4.22777164231   -2.11388582115   -2.00000000000
     21.13885821154  -10.56942910577   -2.11388582115   -2.00000000000
     10.56942910577  -21.13885821154   -2.11388582115   -2.00000000000
      4.22777164231  -23.25274403269   -2.11388582115   -2.00000000000
     -4.22777164231  -23.25274403269   -2.11388582115   -2.00000000000
    -10.56942910577  -21.13885821154   -2.11388582115   -2.00000000000
    -21.13885821154  -10.56942910577   -2.11388582115   -2.00000000000
    -23.25274403269   -4.22777164231   -2.11388582115   -2.00000000000
    -16.91108656923   16.91108656923    0.00000000000   -2.00000000000
     16.91108656923   16.91108656923    0.00000000000   -2.00000000000
     16.91108656923  -16.91108656923    0.00000000000   -2.00000000000
    -16.91108656923  -16.91108656923    0.00000000000   -2.00000000000
    -16.91108656923   16.91108656923   -2.11388582115    2.00000000000
     16.91108656923   16.91108656923   -2.11388582115    2.00000000000
     16.91108656923  -16.91108656923   -2.11388582115    2.00000000000
    -16.91108656923  -16.91108656923   -2.11388582115    2.00000000000
    -23.25274403269    6.34165746346    0.00000000000   -2.00000000000
    -19.02497239038   14.79720074808    0.00000000000   -2.00000000000
    -14.79720074808   19.02497239038    0.00000000000   -2.00000000000
     -6.34165746346   23.25274403269    0.00000000000   -2.00000000000
      6.34165746346   23.25274403269    0.00000000000   -2.00000000000
     14.79720074808   19.02497239038    0.00000000000   -2.00000000000
     19.02497239038   14.79720074808    0.00000000000   -2.00000000000
     23.25274403269    6.34165746346    0.00000000000   -2.00000000000
     23.25274403269   -6.34165746346    0.00000000000   -2.00000000000
     19.02497239038  -14.79720074808    0.00000000000   -2.00000000000
     14.79720074808  -19.02497239038    0.00000000000   -2.00000000000
      6.34165746346  -23.25274403269    0.00000000000   -2.00000000000
     -6.34165746346  -23.25274403269    0.00000000000   -2.00000000000
    -14.79720074808  -19.02497239038    0.00000000000   -2.00000000000
    -19.02497239038  -14.79720074808    0.00000000000   -2.00000000000
    -23.25274403269   -6.34165746346    0.00000000000   -2.00000000000
    -23.25274403269    6.34165746346   -2.11388582115    2.00000000000
    -19.02497239038   14.79720074808   -2.11388582115    2.00000000000
    -14.79720074808   19.02497239038   -2.11388582115    2.00000000000
     -6.34165746346   23.25274403269   -2.11388582115    2.00000000000
      6.34165746346   23.25274403269   -2.11388582115    2.00000000000
     14.79720074808   19.02497239038   -2.11388582115    2.00000000000
     19.02497239038   14.79720074808   -2.11388582115    2.00000000000
     23.25274403269    6.34165746346   -2.11388582115    2.00000000000
     23.25274403269   -6.34165746346   -2.11388582115    2.00000000000
     19.02497239038  -14.79720074808   -2.11388582115    2.00000000000
     14.79720074808  -19.02497239038   -2.11388582115    2.00000000000
      6.34165746346  -23.25274403269   -2.11388582115    2.00000000000
     -6.34165746346  -23.25274403269   -2.11388582115    2.00000000000
    -14.79720074808  -19.02497239038   -2.11388582115    2.00000000000
    -19.02497239038  -14.79720074808   -2.11388582115    2.00000000000
    -23.25274403269   -6.34165746346   -2.11388582115    2.00000000000
    -21.13885821154   12.68331492692    0.00000000000   -2.00000000000
    -12.68331492692   21.13885821154    0.00000000000   -2.00000000000
     12.68331492692   21.13885821154    0.00000000000   -2.00000000000
     21.13885821154   12.68331492692    0.00000000000   -2.00000000000
     21.13885821154  -12.68331492692    0.00000000000   -2.00000000000
     12.68331492692  -21.13885821154    0.00000000000   -2.00000000000
    -12.68331492692  -21.13885821154    0.00000000000   -2.00000000000
    -21.13885821154  -12.68331492692    0.00000000000   -2.00000000000
    -23.25274403269    8.45554328461    0.00000000000    2.00000000000
     -8.45554328461   23.25274403269    0.00000000000    2.00000000000
      8.45554328461   23.25274403269    0.00000000000    2.00000000000
     23.25274403269    8.45554328461    0.00000000000    2.00000000000
     23.25274403269   -8.45554328461    0.00000000000    2.00000000000
      8.45554328461  -23.25274403269    0.00000000000    2.00000000000
     -8.45554328461  -23.25274403269    0.00000000000    2.00000000000
    -23.25274403269   -8.45554328461    0.00000000000    2.00000000000
    -21.13885821154   12.68331492692   -2.11388582115    2.00000000000
    -12.68331492692   21.13885821154   -2.11388582115    2.00000000000
     12.68331492692   21.13885821154   -2.11388582115    2.00000000000
     21.13885821154   12.68331492692   -2.11388582115    2.00000000000
     21.13885821154  -12.68331492692   -2.11388582115    2.00000000000
     12.68331492692  -21.13885821154   -2.11388582115    2.00000000000
    -12.68331492692  -21.13885821154   -2.11388582115    2.00000000000
    -21.13885821154  -12.68331492692   -2.11388582115    2.00000000000
    -23.25274403269    8.45554328461   -2.11388582115   -2.00000000000
     -8.45554328461   23.25274403269   -2.11388582115   -2.00000000000
      8.45554328461   23.25274403269   -2.11388582115   -2.00000000000
     23.25274403269    8.45554328461   -2.11388582115   -2.00000000000
     23.25274403269   -8.45554328461   -2.11388582115   -2.00000000000
      8.45554328461  -23.25274403269   -2.11388582115   -2.00000000000
     -8.45554328461  -23.25274403269   -2.11388582115   -2.00000000000
    -23.25274403269   -8.45554328461   -2.11388582115   -2.00000000000
    -25.36662985384    0.00000000000    0.00000000000   -2.00000000000
      0.00000000000   25.36662985384    0.00000000000   -2.00000000000
     25.36662985384    0.00000000000    0.00000000000   -2.00000000000
      0.00000000000  -25.36662985384    0.00000000000   -2.00000000000
    -25.36662985384    2.11388582115    0.00000000000    2.00000000000
    -19.02497239038   16.91108656923    0.00000000000    2.00000000000
    -16.91108656923   19.02497239038    0.00000000000    2.00000000000
     -2.11388582115   25.36662985384    0.00000000000    2.00000000000
      2.11388582115   25.36662985384    0.00000000000    2.00000000000
     16.91108656923   19.02497239038    0.00000000000    2.00000000000
     19.02497239038   16.91108656923    0.00000000000    2.00000000000
     25.36662985384    2.11388582115    0.00000000000    2.00000000000
     25.36662985384   -2.11388582115    0.00000000000    2.00000000000
     19.02497239038  -16.91108656923    0.00000000000    2.00000000000
     16.91108656923  -19.02497239038    0.00000000000    2.00000000000
      2.11388582115  -25.36662985384    0.00000000000    2.00000000000
     -2.11388582115  -25.36662985384    0.00000000000    2.00000000000
    -16.91108656923  -19.02497239038    0.00000000000    2.00000000000
    -19.02497239038  -16.91108656923    0.00000000000    2.00000000000
    -25.36662985384   -2.11388582115    0.00000000000    2.00000000000
    -25.36662985384    0.00000000000   -2.11388582115    2.00000000000
      0.00000000000   25.36662985384   -2.11388582115    2.00000000000
     25.36662985384    0.00000000000   -2.11388582115    2.00000000000
      0.00000000000  -25.36662985384   -2.11388582115    2.00000000000
    -23.25274403269   10.56942910577    0.00000000000   -2.00000000000
    -10.56942910577   23.25274403269    0.00000000000   -2.00000000000
     10.56942910577   23.25274403269    0.00000000000   -2.00000000000
     23.25274403269   10.56942910577    0.00000000000   -2.00000000000
     23.25274403269  -10.56942910577    0.00000000000   -2.00000000000
     10.56942910577  -23.25274403269    0.00000000000   -2.00000000000
    -10.56942910577  -23.25274403269    0.00000000000   -2.00000000000
    -23.25274403269  -10.56942910577    0.00000000000   -2.00000000000
    -25.36662985384    2.11388582115   -2.11388582115   -2.00000000000
    -19.02497239038   16.91108656923   -2.11388582115   -2.00000000000
    -16.91108656923   19.02497239038   -2.11388582115   -2.00000000000
     -2.11388582115   25.36662985384   -2.11388582115   -2.00000000000
      2.11388582115   25.36662985384   -2.11388582115   -2.00000000000
     16.91108656923   19.02497239038   -2.11388582115   -2.00000000000
     19.02497239038   16.91108656923   -2.11388582115   -2.00000000000
     25.36662985384    2.11388582115   -2.11388582115   -2.00000000000
     25.36662985384   -2.11388582115   -2.11388582115   -2.00000000000
     19.02497239038  -16.91108656923   -2.11388582115   -2.00000000000
     16.91108656923  -19.02497239038   -2.11388582115   -2.00000000000
      2.11388582115  -25.36662985384   -2.11388582115   -2.00000000000
     -2.11388582115  -25.36662985384   -2.11388582115   -2.00000000000
    -16.91108656923  -19.02497239038   -2.11388582115   -2.00000000000
    -19.02497239038  -16.91108656923   -2.11388582115   -2.00000000000
    -25.36662985384   -2.11388582115   -2.11388582115   -2.00000000000
    -23.25274403269   10.56942910577   -2.11388582115    2.00000000000
    -10.56942910577   23.25274403269   -2.11388582115    2.00000000000
     10.56942910577   23.25274403269   -2.11388582115    2.00000000000
     23.25274403269   10.56942910577   -2.11388582115    2.00000000000
     23.25274403269  -10.56942910577   -2.11388582115    2.00000000000
     10.56942910577  -23.25274403269   -2.11388582115    2.00000000000
    -10.56942910577  -23.25274403269   -2.11388582115    2.00000000000
    -23.25274403269  -10.56942910577   -2.11388582115    2.00000000000
    -25.36662985384    4.22777164231    0.00000000000   -2.00000000000
     -4.22777164231   25.36662985384    0.00000000000   -2.00000000000
      4.22777164231   25.36662985384    0.00000000000   -2.00000000000
     25.36662985384    4.22777164231    0.00000000000   -2.00000000000
     25.36662985384   -4.22777164231    0.00000000000   -2.00000000000
      4.22777164231  -25.36662985384    0.00000000000   -2.00000000000
     -4.22777164231  -25.36662985384    0.00000000000   -2.00000000000
    -25.36662985384   -4.22777164231    0.00000000000   -2.00000000000
    -21.13885821154   14.79720074808    0.00000000000    2.00000000000
    -14.79720074808   21.13885821154    0.00000000000    2.00000000000
     14.79720074808   21.13885821154    0.00000000000    2.00000000000
     21.13885821154   14.79720074808    0.00000000000    2.00000000000
     21.13885821154  -14.79720074808    0.00000000000    2.00000000000
     14.79720074808  -21.13885821154    0.00000000000    2.00000000000
    -14.79720074808  -21.13885821154    0.00000000000    2.00000000000
    -21.13885821154  -14.79720074808    0.00000000000    2.00000000000
    -25.36662985384    4.22777164231   -2.11388582115    2.00000000000
     -4.22777164231   25.36662985384   -2.11388582115    2.00000000000
      4.22777164231   25.36662985384   -2.11388582115    2.00000000000
     25.36662985384    4.22777164231   -2.11388582115    2.00000000000
     25.36662985384   -4.22777164231   -2.11388582115    2.00000000000
      4.22777164231  -25.36662985384   -2.11388582115    2.00000000000
     -4.22777164231  -25.36662985384   -2.11388582115    2.00000000000
    -25.36662985384   -4.22777164231   -2.11388582115    2.00000000000
    -21.13885821154   14.79720074808   -2.11388582115   -2.00000000000
    -14.79720074808   21.13885821154   -2.11388582115   -2.00000000000
     14.79720074808   21.13885821154   -2.11388582115   -2.00000000000
     21.13885821154   14.79720074808   -2.11388582115   -2.00000000000
     21.13885821154  -14.79720074808   -2.11388582115   -2.00000000000
     14.79720074808  -21.13885821154   -2.11388582115   -2.00000000000
    -14.79720074808  -21.13885821154   -2.11388582115   -2.00000000000
    -21.13885821154  -14.79720074808   -2.11388582115   -2.00000000000
    -25.36662985384    6.34165746346    0.00000000000    2.00000000000
     -6.34165746346   25.36662985384    0.00000000000    2.00000000000
      6.34165746346   25.36662985384    0.00000000000    2.00000000000
     25.36662985384    6.34165746346    0.00000000000    2.00000000000
     25.36662985384   -6.34165746346    0.00000000000    2.00000000000
      6.34165746346  -25.36662985384    0.00000000000    2.00000000000
     -6.34165746346  -25.36662985384    0.00000000000    2.00000000000
    -25.36662985384   -6.34165746346    0.00000000000    2.00000000000
    -25.36662985384    6.34165746346   -2.11388582115   -2.00000000000
     -6.34165746346   25.36662985384   -2.11388582115   -2.00000000000
      6.34165746346   25.36662985384   -2.11388582115   -2.00000000000
     25.36662985384    6.34165746346   -2.11388582115   -2.00000000000
     25.36662985384   -6.34165746346   -2.11388582115   -2.00000000000
      6.34165746346  -25.36662985384   -2.11388582115   -2.00000000000
     -6.34165746346  -25.36662985384   -2.11388582115   -2.00000000000
    -25.36662985384   -6.34165746346   -2.11388582115   -2.00000000000
    -23.25274403269   12.68331492692    0.00000000000    2.00000000000
    -12.68331492692   23.25274403269    0.00000000000    2.00000000000
     12.68331492692   23.25274403269    0.00000000000    2.00000000000
     23.25274403269   12.68331492692    0.00000000000    2.00000000000
     23.25274403269  -12.68331492692    0.00000000000    2.00000000000
     12.68331492692  -23.25274403269    0.00000000000    2.00000000000
    -12.68331492692  -23.25274403269    0.00000000000    2.00000000000
    -23.25274403269  -12.68331492692    0.00000000000    2.00000000000
    -23.25274403269   12.68331492692   -2.11388582115   -2.00000000000
    -12.68331492692   23.25274403269   -2.11388582115   -2.00000000000
     12.68331492692   23.25274403269   -2.11388582115   -2.00000000000
     23.25274403269   12.68331492692   -2.11388582115   -2.00000000000
     23.25274403269  -12.68331492692   -2.11388582115   -2.00000000000
     12.68331492692  -23.25274403269   -2.11388582115   -2.00000000000
    -12.68331492692  -23.25274403269   -2.11388582115   -2.00000000000
    -23.25274403269  -12.68331492692   -2.11388582115   -2.00000000000
    -25.36662985384    8.45554328461    0.00000000000   -2.00000000000
     -8.45554328461   25.36662985384    0.00000000000   -2.00000000000
      8.45554328461   25.36662985384    0.00000000000   -2.00000000000
     25.36662985384    8.45554328461    0.00000000000   -2.00000000000
     25.36662985384   -8.45554328461    0.00000000000   -2.00000000000
      8.45554328461  -25.36662985384    0.00000000000   -2.00000000000
     -8.45554328461  -25.36662985384    0.00000000000   -2.00000000000
    -25.36662985384   -8.45554328461    0.00000000000   -2.00000000000
    -25.36662985384    8.45554328461   -2.11388582115    2.00000000000
     -8.45554328461   25.36662985384   -2.11388582115    2.00000000000
      8.45554328461   25.36662985384   -2.11388582115    2.00000000000
     25.36662985384    8.45554328461   -2.11388582115    2.00000000000
     25.36662985384   -8.45554328461   -2.11388582115    2.00000000000
[...]
 Number of atoms for local DF:   40
 Number of fitting functions:  5854  (72.18%)
 Warning: drop high-lying PAOs                    15
 Number of occupied orbitals:    32
 Number of virtual  orbitals:  2039
 Number of Cholesky vectors:      8
 MP2 energy in ED [au]:          -0.071882460993
 Number of occupied LNOs:        20  (62.50%)
 Number of virtual  LNOs:        88   (4.32%)
 tol*100>norm                   528  8.493368733949904E-003
 tol*100>norm                   968  8.252383421229392E-003
dropped smallnorm  1061  1062   5.74430851E-06
dropped smallnorm  1070  1072   2.07746877E-05
dropped smallnorm  1070  1073   1.83548000E-05
dropped smallnorm  1070  1074   1.82880177E-05
 tol*100>norm                  1473  7.984109454066983E-003
 tol*100>norm                  1703  7.733907220585143E-003
 tol*100>norm                  1795  7.409314338153537E-003
 tol*100>norm                  1979  7.524771485789923E-003
 tol*100>norm                  2025  7.534423747205847E-003
 Number of Cholesky vectors:      6
 MP2 energy in LIS [au]:         -0.071424379721
 Correction for frozen LNO [au]: -0.000458081272     (0.637%)
 Number of NAFs:                294   (5.02%)
 CPU time [min]: 43308.211                   Wall time [min]:  2513.207
 

 Direct DF-CCSD(T) calculation
 
 Convergence criterion:  1.0E-05
 
 Number of occupied/virtual/auxiliary orbitals:    20    88   294
    376.28 MB is the minimal memory requirement for (T)
    321.91 MB is the minimal memory requirement for CCSD
 
 MP2 correlation energy [au]:       -0.691769807856
 
 LMP2 domain correlation energy contribution [au]:       -0.071423718300
 
 CPU time [min]: 43308.298                   Wall time [min]:  2513.212
 
 
 Starting CCSD iterations...
 
                     Residual norm       Correlation Energy
 Iteration  1        0.208377950878       -0.694341687985
 Iteration  2        0.049967193325       -0.708647076325
 Iteration  3        0.016980196418       -0.710982406771
 Iteration  4        0.004643310870       -0.710945173496
 Iteration  5        0.001382648390       -0.710943600238
 Iteration  6        0.000354226093       -0.710941871785
 Iteration  7        0.000123930525       -0.710938723647
 Iteration  8        0.000038025816       -0.710939311484
 
 CCSD iteration has converged in  8 steps.
      539.88 MB memory was utilized by CCSD
 
 T1 diagnostic:      1.115E-02            D1 diagnostic:      3.419E-02
 
 T1 contribution [au]:                         0.000000000000
 CCSD correlation energy [au]:                -0.070809681957
 
 CPU time [min]: 43310.151                   Wall time [min]:  2513.310
 
 Calculation of (T) correction...
 
 Laplace threshold, nquadmin:  1.00E-02   3
 Number of quadrature points:    3
 
      471.42 MB memory is utilized for (T)

 0%       25%       50%       75%       100%
 |---------|---------|---------|---------| 
 
 (T) correction [au]:                   -0.002793760050
 CCSD(T) correlation energy [au]:       -0.073603442006
 
 CPU time [min]: 43311.352                   Wall time [min]:  2513.377
 
 MO:   249
 Number of atoms in domain:      60
 Number of atomic orbitals:    3185
 Number of atoms for local DF:   60
 Number of fitting functions:  8534 (100.00%)
 Warning: drop high-lying PAOs                    23
 Number of occupied orbitals:    75
 Number of virtual  orbitals:  2853
 Number of Cholesky vectors:      9
 MP2 energy in ED [au]:          -0.075487444510
 Number of occupied LNOs:        36  (48.00%)
 Number of virtual  LNOs:       129   (4.52%)
 tol*100>norm                   246  8.842032784055502E-003
dropped smallnorm   411   412   7.03194835E-06
dropped smallnorm   420   422   2.69491251E-05
dropped smallnorm   420   423   2.02719703E-05
dropped smallnorm   420   424   2.19796187E-05
dropped smallnorm   525   530   6.55864171E-06
dropped smallnorm   534   540   1.46656966E-05
dropped smallnorm   534   541   2.22455353E-05
dropped smallnorm   534   542   1.88514056E-05
 tol*100>norm                   633  8.358875183029971E-003
 tol*100>norm                   679  8.361032949471089E-003
 tol*100>norm                   771  8.464014375679917E-003
 tol*100>norm                   817  8.353037250711171E-003
 tol*100>norm                   863  8.019168932778317E-003
 tol*100>norm                   909  8.353665441753063E-003
dropped smallnorm  1007  1016   6.94304085E-06
dropped smallnorm  1016  1026   2.49202731E-05
dropped smallnorm  1016  1027   1.84077480E-05
dropped smallnorm  1016  1028   1.83421844E-05
dropped smallnorm  1062  1075   7.34434588E-06
dropped smallnorm  1071  1085   2.51850167E-05
dropped smallnorm  1071  1086   2.05439854E-05
dropped smallnorm  1071  1087   1.83548179E-05
 tol*100>norm                  1283  8.135033395704303E-003
dropped smallnorm  1950  1967   7.00505253E-06
dropped smallnorm  1959  1977   2.58575830E-05
dropped smallnorm  1959  1978   1.89220243E-05
dropped smallnorm  1959  1979   1.94356779E-05
 tol*100>norm                  2175  7.995813124930223E-003
 tol*100>norm                  2221  7.883036518521564E-003
 tol*100>norm                  2267  7.882979932734808E-003
 tol*100>norm                  2313  7.998056105277993E-003
 tol*100>norm                  3095  7.431319892250598E-003
 Number of Cholesky vectors:      6
 MP2 energy in LIS [au]:         -0.074222938285
 Correction for frozen LNO [au]: -0.001264506225     (1.675%)
 Number of NAFs:                470   (5.51%)
 CPU time [min]: 43771.148                   Wall time [min]:  2540.154
 

 Direct DF-CCSD(T) calculation
 
 Convergence criterion:  1.0E-05
 
 Number of occupied/virtual/auxiliary orbitals:    36   129   470
    832.61 MB is the minimal memory requirement for (T)
    636.94 MB is the minimal memory requirement for CCSD
 
 MP2 correlation energy [au]:       -0.929748769459
 
 LMP2 domain correlation energy contribution [au]:       -0.074223068239
 
 CPU time [min]: 43771.386                   Wall time [min]:  2540.195
 
 
 Starting CCSD iterations...
 
                     Residual norm       Correlation Energy
 Iteration  1        0.243518474803       -0.940944663792
 Iteration  2        0.064104920944       -0.965487195408
 Iteration  3        0.022131487526       -0.969263492435
 Iteration  4        0.006377642583       -0.969243555008
 Iteration  5        0.001976071732       -0.969180135674
 Iteration  6        0.000536073171       -0.969186464429
 Iteration  7        0.000188844168       -0.969184200160
 Iteration  8        0.000066808087       -0.969183805683
 
 CCSD iteration has converged in  8 steps.
     1658.44 MB memory was utilized by CCSD
 
 T1 diagnostic:      1.299E-02            D1 diagnostic:      4.284E-02
 
 T1 contribution [au]:                         0.000000000000
 CCSD correlation energy [au]:                -0.073076897830
 
 CPU time [min]: 43786.214                   Wall time [min]:  2541.264
 
 Calculation of (T) correction...
 
 Laplace threshold, nquadmin:  1.00E-02   3
 Number of quadrature points:    3
 
     1476.09 MB memory is utilized for (T)

 0%       25%       50%       75%       100%
 |---------|---------|---------|---------| 
 
 (T) correction [au]:                   -0.003220777814
 CCSD(T) correlation energy [au]:       -0.076297675643
 
 CPU time [min]: 43799.958                   Wall time [min]:  2542.024
 
 MO:   250
 Number of atoms in domain:      56
 Number of atomic orbitals:    3001
 Number of atoms for local DF:   38
 Number of fitting functions:  5502  (67.84%)
 Warning: drop high-lying PAOs                    13
 Number of occupied orbitals:    53
 Number of virtual  orbitals:  1934
 Number of Cholesky vectors:      8
 MP2 energy in ED [au]:          -0.073688901290
 Number of occupied LNOs:        29  (54.72%)
 Number of virtual  LNOs:       114   (5.89%)
 tol*100>norm                   574  8.368135499283221E-003
 tol*100>norm                   758  8.467459149559150E-003
 tol*100>norm                   804  8.352457039874427E-003
dropped smallnorm   897   898   6.98393057E-06
dropped smallnorm   906   908   2.47391456E-05
dropped smallnorm   906   909   1.84513823E-05
dropped smallnorm   906   910   1.83147595E-05
 tol*100>norm                  1060  8.138027090937546E-003
dropped smallnorm  1162  1167   5.72891490E-06
dropped smallnorm  1171  1177   2.03054519E-05
dropped smallnorm  1171  1178   1.80270585E-05
dropped smallnorm  1171  1179   1.78978410E-05
dropped smallnorm  1335  1344   7.08165769E-06
dropped smallnorm  1344  1354   2.58001256E-05
dropped smallnorm  1344  1355   1.88905433E-05
dropped smallnorm  1344  1356   2.04327372E-05
 tol*100>norm                  1447  7.991964026128624E-003
 tol*100>norm                  1493  7.763897237819513E-003
 tol*100>norm                  1539  7.996744850438598E-003
 tol*100>norm                  1631  7.729224426940929E-003
 tol*100>norm                  1815  7.409143291818490E-003
 tol*100>norm                  1999  7.426905297532911E-003
 Number of Cholesky vectors:      6
 MP2 energy in LIS [au]:         -0.072848475338
 Correction for frozen LNO [au]: -0.000840425952     (1.141%)
 Number of NAFs:                400   (7.27%)
 CPU time [min]: 43945.520                   Wall time [min]:  2550.387
 

 Direct DF-CCSD(T) calculation
 
 Convergence criterion:  1.0E-05
 
 Number of occupied/virtual/auxiliary orbitals:    29   114   400
    596.78 MB is the minimal memory requirement for (T)
    468.84 MB is the minimal memory requirement for CCSD
 
 MP2 correlation energy [au]:       -0.906133970424
 
 LMP2 domain correlation energy contribution [au]:       -0.072847286749
 
 CPU time [min]: 43945.672                   Wall time [min]:  2550.408
 
 
 Starting CCSD iterations...
 
                     Residual norm       Correlation Energy
 Iteration  1        0.231787442200       -0.912257090845
 Iteration  2        0.057813617167       -0.932499891676
 Iteration  3        0.019832272606       -0.935544190300
 Iteration  4        0.005592289766       -0.935609972400
 Iteration  5        0.001631214059       -0.935588745053
 Iteration  6        0.000442247072       -0.935582444449
 Iteration  7        0.000154330529       -0.935579337129
 Iteration  8        0.000051132069       -0.935580021370
 
 CCSD iteration has converged in  8 steps.
     1089.05 MB memory was utilized by CCSD
 
 T1 diagnostic:      1.194E-02            D1 diagnostic:      3.755E-02
 
 T1 contribution [au]:                         0.000000000000
 CCSD correlation energy [au]:                -0.072001700832
 
 CPU time [min]: 43952.746                   Wall time [min]:  2550.885
 
 Calculation of (T) correction...
 
 Laplace threshold, nquadmin:  1.00E-02   3
 Number of quadrature points:    3
 
      934.22 MB memory is utilized for (T)

 0%       25%       50%       75%       100%
 |---------|---------|---------|---------| 
 
 (T) correction [au]:                   -0.003019875993
 CCSD(T) correlation energy [au]:       -0.075021576825
 
 CPU time [min]: 43958.449                   Wall time [min]:  2551.196
 
 MO:   251
 Number of atoms in domain:      56
 Number of atomic orbitals:    3001
 Number of atoms for local DF:   40
 Number of fitting functions:  5854  (72.18%)
 Warning: drop high-lying PAOs                    15
 Number of occupied orbitals:    32
 Number of virtual  orbitals:  2039
 Number of Cholesky vectors:      8
 MP2 energy in ED [au]:          -0.070461367242
 Number of occupied LNOs:        17  (53.12%)
 Number of virtual  LNOs:        78   (3.83%)
 tol*100>norm                   574  8.493618839897979E-003
 tol*100>norm                   968  8.251823721269343E-003
dropped smallnorm  1179  1180   5.74085595E-06
dropped smallnorm  1188  1190   2.07742085E-05
dropped smallnorm  1188  1191   1.83688702E-05
dropped smallnorm  1188  1192   1.82984458E-05
 tol*100>norm                  1565  7.985769227925722E-003
 tol*100>norm                  1749  7.733892594907496E-003
 tol*100>norm                  1841  7.524779512495993E-003
 tol*100>norm                  1887  7.409313360421531E-003
 tol*100>norm                  2071  7.534035634264154E-003
 Number of Cholesky vectors:      6
 MP2 energy in LIS [au]:         -0.070068875164
 Correction for frozen LNO [au]: -0.000392492078     (0.557%)
 Number of NAFs:                235   (4.01%)
 CPU time [min]: 44072.926                   Wall time [min]:  2557.666
 

 Direct DF-CCSD(T) calculation
 
 Convergence criterion:  1.0E-05
 
 Number of occupied/virtual/auxiliary orbitals:    17    78   235
    324.80 MB is the minimal memory requirement for (T)
    289.24 MB is the minimal memory requirement for CCSD
 
 MP2 correlation energy [au]:       -0.591655414436
 
 LMP2 domain correlation energy contribution [au]:       -0.070068200124
 
 CPU time [min]: 44072.983                   Wall time [min]:  2557.669
 
 
 Starting CCSD iterations...
 
                     Residual norm       Correlation Energy
 Iteration  1        0.193341351215       -0.593730459382
 Iteration  2        0.046121678040       -0.607092680194
 Iteration  3        0.015782534833       -0.609084885867
 Iteration  4        0.004344818778       -0.609117521219
 Iteration  5        0.001208833312       -0.609141092581
 Iteration  6        0.000302577798       -0.609131835958
 Iteration  7        0.000098069664       -0.609130028671
 
 CCSD iteration has converged in  7 steps.
      423.23 MB memory was utilized by CCSD
 
 T1 diagnostic:      1.133E-02            D1 diagnostic:      2.953E-02
 
 T1 contribution [au]:                         0.000000000000
 CCSD correlation energy [au]:                -0.069500051967
 
 CPU time [min]: 44073.808                   Wall time [min]:  2557.713
 
 Calculation of (T) correction...
 
 Laplace threshold, nquadmin:  1.00E-02   3
 Number of quadrature points:    3
 
      378.47 MB memory is utilized for (T)

 0%       25%       50%       75%       100%
 |---------|---------|---------|---------| 
 
 (T) correction [au]:                   -0.002668858650
 CCSD(T) correlation energy [au]:       -0.072168910617
 
 CPU time [min]: 44074.346                   Wall time [min]:  2557.743
 
 **********************************************************************
 Dimensions of the extended domains:    Minimum / Average / Maximum
 
 Number of atoms in domain:                  46      55.7        60
 Number of atomic orbitals:                2541    2985.8      3185
 Number of fitting functions:              2538    5879.1      8534
 Number of occupied localized MOs:           20      41.2        99
 Number of PAOs:                            787    2017.6      2853
 Number of occupied LNOs:                     9      21.6        59
 Number of virtual  LNOs:                    37      83.4       226
 Number of NAFs:                            129     295.5       891
 
 **********************************************************************
 Distant (and weak) pair contributions, corrections
 
 Sum of pair energies [au]:                    -0.023724487934    (0.133%)
 Sum of energy corrections [au]:               -0.189875553582    (1.066%)
 Pair energies + LNO corrections [au]:         -0.213600041516
 Sum of LMP2 contributions [au]:              -17.807013932451
 
 **********************************************************************
  Time of manipulations in the EDs:      max CPU/Wall [s]  all CPU/Wall [min]
 
 PD construction & multipole pair E   18792.04   948.83   313.20    15.81
 Construct MO basis of the ED           153.51     7.84   286.74    14.87
 (mu,nu|P) evaluation & trf 2 (ai|P)   8633.07   508.58 11858.86   635.24
 Evaluate MP2 energy of the ED         7142.65   357.21  6308.07   315.47
 Transformations to the LNO basis      1271.79    64.19  1035.42    51.99
 Build W_PQ (Jai or Jpi part)            64.25    15.83    48.22     5.95
 Evaluate MP2 energy of the LIS          28.87     1.44    11.57     0.58
 (mu,nu|P) evaluation & trf 2 J(abQ)  27001.29  1660.64 20084.26  1262.15
 Total of the above for all EDs       44295.45  2615.72 39633.13  2286.25
 
 **********************************************************************
 Maximum memory requirement [MB]:       
 
 PD construction & multipole pair E        689.7
 AO integral evaluation in the EDs        4442.0
 (mu,nu|P) evaluation & trf 2 (aI|P)     50218.6
 Evaluate MP2 energy in the EDs          43064.7
 Transformation to the LNO basis          6140.3
 (mu,nu|P) to Jab transformation          8521.1
 Evaluate MP2 energy in the LIS           6894.3
 Minimum requirement for LIS CCSD         2879.8
 Actually allocated  for LIS CCSD        12767.3
 Minimum requirement for LIS (T)          4086.4
 Actually allocated  for LIS (T)         10023.6
 
 ======================================================================
 ======================================================================
 
 
 
 ======================================================================
 ======================================================================
 
 Final local CC results:
 
 Minimum number of correlated electrons:        18       (  3.6%)
 Maximum number of correlated electrons:       118       ( 23.5%)
 Average number of correlated electrons:        43.2     (  8.6%)
 Minimum number of correlated orbitals:         46       (  1.5%)
 Maximum number of correlated orbitals:        285       (  9.1%)
 Average number of correlated orbitals:        105.0     (  3.4%)
 
 CPU time for integral calculations [min]:                 66.136
 Wall time for integral calculations [min]:                15.841
 
 CPU time for SCF calculation [min]:                     2112.485
 Wall time for SCF calculation [min]:                     107.371
 
 CPU time for orbital localization [min]:                   3.643
 Wall time for orbital localization [min]:                  3.380
 
 CPU time for integral transformations [min]:           40622.696
 Wall time for integral transformations [min]:           2341.975
 
 Reference energy [au]:                                -14692.828575125663
 
 LMP2 correlation energy [au]:                            -17.807013932451
 Total LMP2 energy [au]:                               -14710.635589058113
 
 Total MP2 correction for dropped NAFs [au]:               -0.001734112639
 Total MP2 correction [au]:                                -0.215334154155
 
 CPU time for CCSD calculations [min]:                   1971.407
 Total CPU time for CCSD [min]:                         44776.367
 Wall time for CCSD calculations [min]:                   135.148
 Total wall time for CCSD [min]:                         2603.715
 
 CCSD correlation energy [au]:                            -17.312833622005
 Total CCSD energy [au]:                               -14710.141408747668
 CCSD correlation energy + 0.5 MP2 corrections [au]:      -17.420500699083
 Total LNO-CCSD energy with MP2 corrections [au]:      -14710.249075824746
 
 CPU time for (T) corrections [min]:                     1480.271
 Total CPU time for CCSD(T) [min]:                      46256.638
 Wall time for (T) corrections [min]:                      80.623
 Total wall time for CCSD(T) [min]:                      2684.338
 
 Total (T) correlation energy contribution [au]:           -0.557807286138
 Total (T) correlation energy+0.5 MP2 correction [au]:     -0.665474363215
 CCSD(T) correlation energy [au]:                         -17.870640908143
 Total CCSD(T) energy [au]:                            -14710.699216033807
 CCSD(T) correlation energy + MP2 corrections [au]:       -18.085975062298
 Total LNO-CCSD(T) energy with MP2 corrections [au]:   -14710.914550187961
 
 ======================================================================
 ======================================================================
 
 ************************ 2023-01-04 12:07:25 *************************
                      Normal termination of mrcc.
 **********************************************************************
