 vasp.6.4.0 14Feb23 (build Jul 14 2023 13:46:40) complex                        
  
 executed on             LinuxIFC date 2023.07.30  09:51:46
 running  512 mpi-ranks, with    1 threads/rank, on   32 nodes
 distrk:  each k-point on  512 cores,    1 groups
 distr:  one band on NCORE=  16 cores,   32 groups


--------------------------------------------------------------------------------------------------------


 INCAR:
   SYSTEM = MgO-rocksalt
   ISMEAR = 0
   SIGMA = 0.05
   EDIFF = 1E-6
   ALGO = ALL
   ISTART = 0
   IBRION = -1
   NSW = 0
   ISYM = 2
   METAGGA = R2SCAN
   LUSE_VDW = .TRUE.
   BPARAM = 11.95
   CPARAM = 0.0093
   ENCUT = 520
   PREC = Accurate
   LASPH = .TRUE.
   LREAL = Auto
   ISPIN = 1
   NELM = 200
   NELMIN = 8
   NCORE = 16
   KPAR = 1
   LWAVE = .FALSE.
   LCHARG = .FALSE.

 POTCAR:    PAW_PBE Cu 22Jun2005                  
 -----------------------------------------------------------------------------
|                                                                             |
|               ----> ADVICE to this user running VASP <----                  |
|                                                                             |
|     You have switched on vdW-DFT.                                           |
|     This routine was written and supplied by Jiri Klimes. We recommend      |
|     that you carefully read and cite the following publications:            |
|       J. Klimes, D.R. Bowler, A. Michelides                                 |
|          J. Phys.: Cond Matt. 22 022201 (2010)                              |
|       J. Klimes, D.R. Bowler, A. Michelides                                 |
|          Phys. Rev. B. 83, 195131 (2011)                                    |
|     and references therein.                                                 |
|                                                                             |
 -----------------------------------------------------------------------------

 POTCAR:    PAW_PBE Cu 22Jun2005                  
   SHA256 =  0e71e558f37a4e8407882b4609ceaae59938afaad9ced71dfe8490308a0ab630 Cu/POTCAR             
   COPYR  = (c) Copyright 22Jun2005 Georg Kresse                                                    
   COPYR  = This file is part of the software VASP. Any use, copying, and all other rights are regul
   COPYR  = If you do not have a valid VASP license, you may not use, copy or distribute this file. 
   VRHFIN =Cu: d10 p1                                                                               
   LEXCH  = PE                                                                                      
   EATOM  =  1390.9808 eV,  102.2342 Ry                                                             
                                                                                                    
   TITEL  = PAW_PBE Cu 22Jun2005                                                                    
   LULTRA =        F    use ultrasoft PP ?                                                          
   IUNSCR =        1    unscreen: 0-lin 1-nonlin 2-no                                               
   RPACOR =    2.000    partial core radius                                                         
   POMASS =   63.546; ZVAL   =   11.000    mass and valenz                                          
   RCORE  =    2.300    outmost cutoff radius                                                       
   RWIGS  =    2.200; RWIGS  =    1.164    wigner-seitz radius (au A)                               
   ENMAX  =  295.446; ENMIN  =  221.585 eV                                                          
   ICORE  =        3    local potential                                                             
   LCOR   =        T    correct aug charges                                                         
   LPAW   =        T    paw PP                                                                      
   EAUG   =  586.980                                                                                
   DEXC   =    0.000                                                                                
   RMAX   =    2.344    core radius for proj-oper                                                   
   RAUG   =    1.300    factor for augmentation sphere                                              
   RDEP   =    2.302    radius for radial grids                                                     
   RDEPT  =    1.771    core radius for aug-charge                                                  
                                                                                                    
   Atomic configuration                                                                             
    9 entries                                                                                       
     n  l   j            E        occ.                                                              
     1  0  0.50     -8850.2468   2.0000                                                             
     2  0  0.50     -1062.3498   2.0000                                                             
     2  1  1.50      -916.8226   6.0000                                                             
     3  0  0.50      -114.6929   2.0000                                                             
     3  1  1.50       -72.1325   6.0000                                                             
     3  2  2.50        -5.0394  10.0000                                                             
     4  0  0.50        -4.6097   1.0000                                                             
     4  1  0.50        -4.0817   0.0000                                                             
     4  3  2.50        -1.3606   0.0000                                                             
   Description                                                                                      
     l       E           TYP  RCUT    TYP  RCUT                                                     
     2     -5.0393973     23  2.200                                                                 
     2     10.8846608     23  2.200                                                                 
     0     -4.6097109     23  2.200                                                                 
     0      8.2520465     23  2.200                                                                 
     1     -2.7211652     23  2.200                                                                 
     1     21.7055443     23  2.200                                                                 
     3      2.7211652     23  2.300                                                                 
  local pseudopotential read in
  partial core-charges read in
  partial kinetic energy density read in
  atomic valenz-charges read in
  non local Contribution for L=           2  read in
    real space projection operators read in
  non local Contribution for L=           2  read in
    real space projection operators read in
  non local Contribution for L=           0  read in
    real space projection operators read in
  non local Contribution for L=           0  read in
    real space projection operators read in
  non local Contribution for L=           1  read in
    real space projection operators read in
  non local Contribution for L=           1  read in
    real space projection operators read in
    PAW grid and wavefunctions read in
 
   number of l-projection  operators is LMAX  =           6
   number of lm-projection operators is LMMAX =          18
 
 -----------------------------------------------------------------------------
|                                                                             |
|               ----> ADVICE to this user running VASP <----                  |
|                                                                             |
|     You have a (more or less) 'small supercell' and for smaller cells       |
|     it is recommended to use the reciprocal-space projection scheme!        |
|     The real-space optimization is not efficient for small cells and it     |
|     is also less accurate ...                                               |
|     Therefore, set LREAL=.FALSE. in the INCAR file.                         |
|                                                                             |
 -----------------------------------------------------------------------------

 Optimization of the real space projectors (new method)

 maximal supplied QI-value         = 16.25
 optimisation between [QCUT,QGAM] = [ 11.54, 23.24] = [ 37.28,151.24] Ry 
 Optimized for a Real-space Cutoff    1.53 Angstroem

   l    n(q)    QCUT    max X(q) W(low)/X(q) W(high)/X(q)  e(spline) 
   2     10    11.539     4.610    0.96E-04    0.13E-03    0.19E-06
   2     10    11.539     8.522    0.16E-03    0.21E-03    0.28E-06
   0     11    11.539    51.609    0.45E-04    0.31E-04    0.11E-06
   0     11    11.539    27.747    0.39E-04    0.29E-04    0.10E-06
   1     10    11.539    20.408    0.70E-05    0.38E-04    0.18E-06
   1     10    11.539    13.425    0.66E-05    0.34E-04    0.17E-06
  PAW_PBE Cu 22Jun2005                  :
 energy of atom  1       EATOM=-1390.9808
 kinetic energy error for atom=    0.0037 (will be added to EATOM!!)
 
 
 POSCAR: Cu Mg  O
  positions in direct lattice
  No initial velocities read in

 METAGGA = R2SCAN                                      LMAXTAU =  6    LMIXTAU =  F

 exchange correlation table for  LEXCH =        8
   RHO(1)=    0.500       N(1)  =     2000
   RHO(2)=  100.500       N(2)  =     4000
 


--------------------------------------------------------------------------------------------------------


 ion  position               nearest neighbor table
   1  0.398  0.602  0.598-   2 2.32
   2  0.321  0.679  0.599-   1 2.32
   3  0.579  0.421  0.599-   4 2.32
   4  0.502  0.498  0.598-   3 2.32
 
  LATTYP: Found a simple tetragonal cell.
 ALAT       =    21.1388521970
 C/A-ratio  =     1.0461251639
  
  Lattice vectors:
  
 A1 = (  21.1388521970,   0.0000000000,   0.0000000000)
 A2 = (   0.0000000000,  21.1388521970,   0.0000000000)
 A3 = (   0.0000000000,   0.0000000000,  22.1138852197)


Analysis of symmetry for initial positions (statically):
=====================================================================
 Subroutine PRICEL returns:
 Original cell was already a primitive cell.
 

 Routine SETGRP: Setting up the symmetry group for a 
 simple tetragonal supercell.


 Subroutine GETGRP returns: Found  4 space group operations
 (whereof  1 operations were pure point group operations)
 out of a pool of 16 trial point group operations.


The static configuration has the point symmetry C_1 .
 The point group associated with its full space group is C_2v.


Analysis of symmetry for dynamics (positions and initial velocities):
=====================================================================
 Subroutine PRICEL returns:
 Original cell was already a primitive cell.
 

 Routine SETGRP: Setting up the symmetry group for a 
 simple tetragonal supercell.


 Subroutine GETGRP returns: Found  4 space group operations
 (whereof  1 operations were pure point group operations)
 out of a pool of 16 trial point group operations.


The dynamic configuration has the point symmetry C_1 .
 The point group associated with its full space group is C_2v.


Analysis of constrained symmetry for selective dynamics:
=====================================================================
 Subroutine PRICEL returns:
 Original cell was already a primitive cell.
 

 Routine SETGRP: Setting up the symmetry group for a 
 simple tetragonal supercell.


 Subroutine GETGRP returns: Found  4 space group operations
 (whereof  1 operations were pure point group operations)
 out of a pool of 16 trial point group operations.


The constrained configuration has the point symmetry C_1 .
 The point group associated with its full space group is C_2v.


 Subroutine INISYM returns: Found  4 space group operations
 (whereof  1 operations are pure point group operations),
 and found     1 'primitive' translations


----------------------------------------------------------------------------------------

                                     Primitive cell                                     

  volume of cell :    9881.6133

  direct lattice vectors                    reciprocal lattice vectors
    21.138852197  0.000000000  0.000000000     0.047306258  0.000000000  0.000000000
     0.000000000 21.138852197  0.000000000     0.000000000  0.047306258  0.000000000
     0.000000000  0.000000000 22.113885220     0.000000000  0.000000000  0.045220457

  length of vectors
    21.138852197 21.138852197 22.113885220     0.047306258  0.047306258  0.045220457

  position of ions in fractional coordinates (direct lattice)
     0.398329241  0.601718395  0.597737471
     0.320617240  0.679428851  0.599224153
     0.579428377  0.420617713  0.599224153
     0.501717922  0.498329241  0.597737471

  ion indices of the primitive-cell ions
   primitive index   ion index
                 1           1
                 2           2
                 3           3
                 4           4

----------------------------------------------------------------------------------------

 
 
 KPOINTS: KPOINTS created by Atomic Simulation Env

Automatic generation of k-mesh.
 Grid dimensions read from file:
 generate k-points for:    1    1    1

 Generating k-lattice:

  Cartesian coordinates                     Fractional coordinates (reciprocal lattice)
     0.047306258  0.000000000  0.000000000     1.000000000  0.000000000  0.000000000
     0.000000000  0.047306258  0.000000000     0.000000000  1.000000000  0.000000000
     0.000000000  0.000000000  0.045220457     0.000000000  0.000000000  1.000000000

  Length of vectors
     0.047306258  0.047306258  0.045220457

  Shift w.r.t. Gamma in fractional coordinates (k-lattice)
     0.000000000  0.000000000  0.000000000

 
 Subroutine IBZKPT returns following result:
 ===========================================
 
 Found      1 irreducible k-points:
 
 Following reciprocal coordinates:
            Coordinates               Weight
  0.000000  0.000000  0.000000      1.000000
 
 Following cartesian coordinates:
            Coordinates               Weight
  0.000000  0.000000  0.000000      1.000000
 


--------------------------------------------------------------------------------------------------------




 Dimension of arrays:
   k-points           NKPTS =      1   k-points in BZ     NKDIM =      1   number of bands    NBANDS=     32
   number of dos      NEDOS =    301   number of ions     NIONS =      4
   non local maximal  LDIM  =      6   non local SUM 2l+1 LMDIM =     18
   total plane-waves  NPLWV = ******
   max r-space proj   IRMAX =   6628   max aug-charges    IRDMAX=  12805
   dimension x,y,z NGX =   160 NGY =  160 NGZ =  168
   dimension x,y,z NGXF=   320 NGYF=  320 NGZF=  336
   support grid    NGXF=   320 NGYF=  320 NGZF=  336
   ions per type =               4
   NGX,Y,Z   is equivalent  to a cutoff of  12.58, 12.58, 12.63 a.u.
   NGXF,Y,Z  is equivalent  to a cutoff of  25.17, 25.17, 25.26 a.u.

 SYSTEM =  MgO-rocksalt                            
 POSCAR =  Cu Mg  O                                

 Startparameter for this run:
   NWRITE =      2    write-flag & timer
   PREC   = accura    normal or accurate (medium, high low for compatibility)
   ISTART =      0    job   : 0-new  1-cont  2-samecut
   ICHARG =      2    charge: 1-file 2-atom 10-const
   ISPIN  =      1    spin polarized calculation?
   LNONCOLLINEAR =      F non collinear calculations
   LSORBIT =      F    spin-orbit coupling
   INIWAV =      1    electr: 0-lowe 1-rand  2-diag
   LASPH  =      T    aspherical Exc in radial PAW
 Electronic Relaxation 1
   ENCUT  =  520.0 eV  38.22 Ry    6.18 a.u.  39.30 39.30 41.12*2*pi/ulx,y,z
   ENINI  =  520.0     initial cutoff
   ENAUG  =  587.0 eV  augmentation charge cutoff
   NELM   =    200;   NELMIN=  8; NELMDL= -5     # of ELM steps 
   EDIFF  = 0.1E-05   stopping-criterion for ELM
   LREAL  =      T    real-space projection
   NLSPLINE    = F    spline interpolate recip. space projectors
   LCOMPAT=      F    compatible to vasp.4.4
   GGA_COMPAT  = T    GGA compatible to vasp.4.4-vasp.4.6
   LMAXPAW     = -100 max onsite density
   LMAXMIX     =    2 max onsite mixed and CHGCAR
   VOSKOWN=      0    Vosko Wilk Nusair interpolation
   ROPT   =   -0.00025
 Ionic relaxation
   EDIFFG = 0.1E-04   stopping-criterion for IOM
   NSW    =      0    number of steps for IOM
   NBLOCK =      1;   KBLOCK =      1    inner block; outer block 
   IBRION =     -1    ionic relax: 0-MD 1-quasi-New 2-CG
   NFREE  =      0    steps in history (QN), initial steepest desc. (CG)
   ISIF   =      2    stress and relaxation
   IWAVPR =     10    prediction:  0-non 1-charg 2-wave 3-comb
   ISYM   =      2    0-nonsym 1-usesym 2-fastsym
   LCORR  =      T    Harris-Foulkes like correction to forces

   POTIM  = 0.5000    time-step for ionic-motion
   TEIN   =    0.0    initial temperature
   TEBEG  =    0.0;   TEEND  =   0.0 temperature during run
   SMASS  =  -3.00    Nose mass-parameter (am)
   estimated Nose-frequenzy (Omega)   =  0.10E-29 period in steps = 0.13E+47 mass=  -0.102E-25a.u.
   SCALEE = 1.0000    scale energy and forces
   NPACO  =    256;   APACO  = 10.0  distance and # of slots for P.C.
   PSTRESS=    0.0 pullay stress

  Mass of Ions in am
   POMASS =  63.55
  Ionic Valenz
   ZVAL   =  11.00
  Atomic Wigner-Seitz radii
   RWIGS  =  -1.00
  virtual crystal weights 
   VCA    =   1.00
   NELECT =      44.0000    total number of electrons
   NUPDOWN=      -1.0000    fix difference up-down

 DOS related values:
   EMIN   =  10.00;   EMAX   =-10.00  energy-range for DOS
   EFERMI =   0.00;   METHOD = LEGACY      
   ISMEAR =     0;   SIGMA  =   0.05  broadening in eV -4-tet -1-fermi 0-gaus

 Electronic relaxation 2 (details)
   IALGO  =     58    algorithm
   LDIAG  =      T    sub-space diagonalisation (order eigenvalues)
   LSUBROT=      F    optimize rotation matrix (better conditioning)
   TURBO    =      0    0=normal 1=particle mesh
   IRESTART =      0    0=no restart 2=restart with 2 vectors
   NREBOOT  =      0    no. of reboots
   NMIN     =      0    reboot dimension
   EREF     =   0.00    reference energy to select bands
   IMIX   =      4    mixing-type and parameters
     AMIX     =   0.40;   BMIX     =  1.00
     AMIX_MAG =   1.60;   BMIX_MAG =  1.00
     AMIN     =   0.10
     WC   =   100.;   INIMIX=   1;  MIXPRE=   1;  MAXMIX= -45

 Intra band minimization:
   WEIMIN = 0.0000     energy-eigenvalue tresh-hold
   EBREAK =  0.78E-08  absolut break condition
   DEPER  =   0.30     relativ break condition  

   TIME   =   0.40     timestep for ELM

  volume/ion in A,a.u.               =    2470.40     16671.10
  Fermi-wavevector in a.u.,A,eV,Ry     =   0.269329  0.508958  0.986941  0.072538
  Thomas-Fermi vector in A             =   1.106612
 
 Write flags
   LWAVE        =      F    write WAVECAR
   LDOWNSAMPLE  =      F    k-point downsampling of WAVECAR
   LCHARG       =      F    write CHGCAR
   LVTOT        =      F    write LOCPOT, total local potential
   LVHAR        =      F    write LOCPOT, Hartree potential only
   LELF         =      F    write electronic localiz. function (ELF)
   LORBIT       =      0    0 simple, 1 ext, 2 COOP (PROOUT), +10 PAW based schemes


 Dipole corrections
   LMONO  =      F    monopole corrections only (constant potential shift)
   LDIPOL =      F    correct potential (dipole corrections)
   IDIPOL =      0    1-x, 2-y, 3-z, 4-all directions 
   EPSILON=  1.0000000 bulk dielectric constant

 Exchange correlation treatment:
   GGA     =    --    GGA type
   LEXCH   =     8    internal setting for exchange type
   LIBXC   =     F    Libxc                    
   VOSKOWN =     0    Vosko Wilk Nusair interpolation
   LHFCALC =     F    Hartree Fock is set to
   LHFONE  =     F    Hartree Fock one center treatment
   AEXX    =    0.0000 exact exchange contribution

 vdW DFT:
   LUSE_VDW   =     T    switch on vdW DFT
   IVDW_NL    =     2    kernel type
   LSPIN_VDW  =     F    use spin-polarized vdW DFT
   Zab_VDW    =-.8491    correlation parameter
   PARAM1     =0.1234
   PARAM2     =1.0000
   PARAM3     =0.0000
   -- rVV10 --
   BPARAM     =11.9500
   CPARAM     = 0.0093

 Linear response parameters
   LEPSILON=     F    determine dielectric tensor
   LRPA    =     F    only Hartree local field effects (RPA)
   LNABLA  =     F    use nabla operator in PAW spheres
   LVEL    =     F    velocity operator in full k-point grid
   CSHIFT  =0.1000    complex shift for real part using Kramers Kronig
   OMEGAMAX=  -1.0    maximum frequency
   DEG_THRESHOLD= 0.2000000E-02 threshold for treating states as degnerate
   RTIME   =   -0.100 relaxation time in fs
  (WPLASMAI=    0.000 imaginary part of plasma frequency in eV, 0.658/RTIME)
   DFIELD  = 0.0000000 0.0000000 0.0000000 field for delta impulse in time
 
  Optional k-point grid parameters
   LKPOINTS_OPT  =     F    use optional k-point grid
   KPOINTS_OPT_MODE=     1    mode for optional k-point grid
 
 Orbital magnetization related:
   ORBITALMAG=     F  switch on orbital magnetization
   LCHIMAG   =     F  perturbation theory with respect to B field
   DQ        =  0.001000  dq finite difference perturbation B field
   LLRAUG    =     F  two centre corrections for induced B field
   LBONE     =     F  B-component reconstruction in AE one-centre
   LVGVCALC  =     T  calculate vGv susceptibility
   LVGVAPPL  =     F  apply vGv susceptibility instead of pGv for G=0

 Random number generation:
   RANDOM_GENERATOR = DEFAULT
   PCG_SEED         = not used


--------------------------------------------------------------------------------------------------------


 Static calculation
 charge density and potential will be updated during run
 non-spin polarized calculation
 Conjugate gradient for all bands (Freysoldt, et al. PRB 79, 241103 (2009))
 preconditioned conjugated gradient                                        
 perform sub-space diagonalisation
    before iterative eigenvector-optimisation
 modified Broyden-mixing scheme, WC =      100.0
 initial mixing is a Kerker type mixing with AMIX =  0.4000 and BMIX =      1.0000
 Hartree-type preconditioning will be used
 using additional bands           10
 real space projection scheme for non local part
 use partial core corrections
 no Harris-corrections to forces 
 use gradient corrections 
 use of overlap-Matrix (Vanderbilt PP)
 Gauss-broadening in eV      SIGMA  =   0.05


--------------------------------------------------------------------------------------------------------


  energy-cutoff  :      520.00
  volume of cell :     9881.61
      direct lattice vectors                 reciprocal lattice vectors
    21.138852197  0.000000000  0.000000000     0.047306258  0.000000000  0.000000000
     0.000000000 21.138852197  0.000000000     0.000000000  0.047306258  0.000000000
     0.000000000  0.000000000 22.113885220     0.000000000  0.000000000  0.045220457

  length of vectors
    21.138852197 21.138852197 22.113885220     0.047306258  0.047306258  0.045220457


 
 k-points in units of 2pi/SCALE and weight: KPOINTS created by Atomic Simulation Env
   0.00000000  0.00000000  0.00000000       1.000
 
 k-points in reciprocal lattice and weights: KPOINTS created by Atomic Simulation Env
   0.00000000  0.00000000  0.00000000       1.000
 
 position of ions in fractional coordinates (direct lattice) 
   0.39832924  0.60171840  0.59773747
   0.32061724  0.67942885  0.59922415
   0.57942838  0.42061771  0.59922415
   0.50171792  0.49832924  0.59773747
 
 position of ions in cartesian coordinates  (Angst):
   8.42022296 12.71963622 13.21829782
   6.77748045 14.36234605 13.25117414
  12.24845083  8.89137567 13.25117414
  10.60574100 10.53410818 13.21829782
 


--------------------------------------------------------------------------------------------------------


 k-point   1 :   0.0000 0.0000 0.0000  plane waves:  265979

 maximum and minimum number of plane-waves per node :     16635    16606

 maximum number of plane-waves:    265979
 maximum index in each direction: 
   IXMAX=   39   IYMAX=   39   IZMAX=   41
   IXMIN=  -39   IYMIN=  -39   IZMIN=  -41


 real space projection operators:
  total allocation   :       3587.06 KBytes
  max/ min on nodes  :        227.81        221.77


 parallel 3D FFT for wavefunctions:
    minimum data exchange during FFTs selected (reduces bandwidth)
 parallel 3D FFT for charge:
    minimum data exchange during FFTs selected (reduces bandwidth)


 total amount of memory used by VASP MPI-rank0    68444. kBytes
=======================================================================

   base      :      30000. kBytes
   nonlr-proj:        724. kBytes
   fftplans  :      11482. kBytes
   grid      :      25425. kBytes
   one-center:         15. kBytes
   wavefun   :        798. kBytes
 
     INWAV:  cpu time      0.0004: real time      0.0005
 Broyden mixing: mesh for mixing (old mesh)
   NGX = 79   NGY = 79   NGZ = 83
  (NGX  =320   NGY  =320   NGZ  =336)
  gives a total of 518003 points

 initial charge density was supplied:
 charge density of overlapping atoms calculated
 number of electron      44.0000000 magnetization 
 keeping initial charge density in first step


--------------------------------------------------------------------------------------------------------


 Maximum index for non-local projection operator          414
 Maximum index for augmentation-charges            0 (set IRDMAX)


--------------------------------------------------------------------------------------------------------


 First call to EWALD:  gamma=   0.083
 Maximum number of real-space cells 3x 3x 3
 Maximum number of reciprocal cells 3x 3x 3

    FEWALD:  cpu time      0.0069: real time      0.0069


--------------------------------------- Ionic step        1  -------------------------------------------




--------------------------------------- Iteration      1(   1)  ---------------------------------------


    POTLOK:  cpu time     13.6982: real time     13.7042
    SETDIJ:  cpu time      4.1787: real time      4.1819
    TRIAL :  cpu time      0.3837: real time      0.3840
    CORREC:  cpu time      0.0026: real time      0.0026
    --------------------------------------------
      LOOP:  cpu time     18.2662: real time     18.2766

 eigenvalue-minimisations  :    64
 total energy-change (2. order) : 0.2387146E+03  (-0.6371000E+03)
 number of electron      44.0000000 magnetization 
 augmentation part       44.0000000 magnetization 

 Free energy of the ion-electron system (eV)
  ---------------------------------------------------
  alpha Z        PSCENC =         1.18414354
  Ewald energy   TEWEN  =      1143.30920876
  -Hartree energ DENC   =     -6231.77849323
  -exchange      EXHF   =         0.00000000
  -V(xc)+E(xc)   XCENC  =       216.97693100
  PAW double counting   =      4870.69530990    -5337.13802065
  entropy T*S    EENTRO =        -0.02663571
  eigenvalues    EBANDS =        11.58393089
  atomic energy  EATOM  =      5563.90821598
  ---------------------------------------------------
  free energy    TOTEN  =       238.71459047 eV

  energy without entropy =      238.74122618  energy(sigma->0) =      238.72790833


--------------------------------------------------------------------------------------------------------




--------------------------------------- Iteration      1(   2)  ---------------------------------------


    TRIAL :  cpu time      0.5871: real time      0.5878
    CORREC:  cpu time      0.0009: real time      0.0009
    --------------------------------------------
      LOOP:  cpu time      0.6002: real time      0.6011

 eigenvalue-minimisations  :   128
 total energy-change (2. order) :-0.2414938E+03  (-0.2413724E+03)
 number of electron      44.0000000 magnetization 
 augmentation part       44.0000000 magnetization 

 Free energy of the ion-electron system (eV)
  ---------------------------------------------------
  alpha Z        PSCENC =         1.18414354
  Ewald energy   TEWEN  =      1143.30920876
  -Hartree energ DENC   =     -6231.77849323
  -exchange      EXHF   =         0.00000000
  -V(xc)+E(xc)   XCENC  =       216.97693100
  PAW double counting   =      4870.69530990    -5337.13802065
  entropy T*S    EENTRO =        -0.00000000
  eigenvalues    EBANDS =      -229.93652079
  atomic energy  EATOM  =      5563.90821598
  ---------------------------------------------------
  free energy    TOTEN  =        -2.77922550 eV

  energy without entropy =       -2.77922550  energy(sigma->0) =       -2.77922550


--------------------------------------------------------------------------------------------------------




--------------------------------------- Iteration      1(   3)  ---------------------------------------


    TRIAL :  cpu time      0.4533: real time      0.4540
    CORREC:  cpu time      0.0009: real time      0.0009
    --------------------------------------------
      LOOP:  cpu time      0.4639: real time      0.4649

 eigenvalue-minimisations  :    96
 total energy-change (2. order) :-0.3595493E+02  (-0.3595493E+02)
 number of electron      44.0000000 magnetization 
 augmentation part       44.0000000 magnetization 

 Free energy of the ion-electron system (eV)
  ---------------------------------------------------
  alpha Z        PSCENC =         1.18414354
  Ewald energy   TEWEN  =      1143.30920876
  -Hartree energ DENC   =     -6231.77849323
  -exchange      EXHF   =         0.00000000
  -V(xc)+E(xc)   XCENC  =       216.97693100
  PAW double counting   =      4870.69530990    -5337.13802065
  entropy T*S    EENTRO =        -0.00000000
  eigenvalues    EBANDS =      -265.89144946
  atomic energy  EATOM  =      5563.90821598
  ---------------------------------------------------
  free energy    TOTEN  =       -38.73415417 eV

  energy without entropy =      -38.73415417  energy(sigma->0) =      -38.73415417


--------------------------------------------------------------------------------------------------------




--------------------------------------- Iteration      1(   4)  ---------------------------------------


    TRIAL :  cpu time      0.5770: real time      0.5769
    CORREC:  cpu time      0.0010: real time      0.0010
    --------------------------------------------
      LOOP:  cpu time      0.5803: real time      0.5880

 eigenvalue-minimisations  :   128
 total energy-change (2. order) :-0.8200003E+00  (-0.8200003E+00)
 number of electron      44.0000000 magnetization 
 augmentation part       44.0000000 magnetization 

 Free energy of the ion-electron system (eV)
  ---------------------------------------------------
  alpha Z        PSCENC =         1.18414354
  Ewald energy   TEWEN  =      1143.30920876
  -Hartree energ DENC   =     -6231.77849323
  -exchange      EXHF   =         0.00000000
  -V(xc)+E(xc)   XCENC  =       216.97693100
  PAW double counting   =      4870.69530990    -5337.13802065
  entropy T*S    EENTRO =        -0.00000000
  eigenvalues    EBANDS =      -266.71144973
  atomic energy  EATOM  =      5563.90821598
  ---------------------------------------------------
  free energy    TOTEN  =       -39.55415444 eV

  energy without entropy =      -39.55415444  energy(sigma->0) =      -39.55415444


--------------------------------------------------------------------------------------------------------




--------------------------------------- Iteration      1(   5)  ---------------------------------------


    TRIAL :  cpu time      0.4522: real time      0.4528
    CORREC:  cpu time      0.0017: real time      0.0017
    CHARGE:  cpu time     19.3544: real time     19.3669
    --------------------------------------------
      LOOP:  cpu time     19.8106: real time     19.8317

 eigenvalue-minimisations  :    96
 total energy-change (2. order) :-0.2173638E-03  (-0.2173638E-03)
 number of electron      43.9999943 magnetization 
 augmentation part       27.9993476 magnetization 

 Free energy of the ion-electron system (eV)
  ---------------------------------------------------
  alpha Z        PSCENC =         1.18414354
  Ewald energy   TEWEN  =      1143.30920876
  -Hartree energ DENC   =     -6231.77849323
  -exchange      EXHF   =         0.00000000
  -V(xc)+E(xc)   XCENC  =       216.97693100
  PAW double counting   =      4870.69530990    -5337.13802065
  entropy T*S    EENTRO =        -0.00000000
  eigenvalues    EBANDS =      -266.71166709
  atomic energy  EATOM  =      5563.90821598
  ---------------------------------------------------
  free energy    TOTEN  =       -39.55437180 eV

  energy without entropy =      -39.55437180  energy(sigma->0) =      -39.55437180


--------------------------------------------------------------------------------------------------------




--------------------------------------- Iteration      1(   6)  ---------------------------------------


    POTLOK:  cpu time     12.9776: real time     12.9826
    SETDIJ:  cpu time      3.6653: real time      3.6675
    TRIAL :  cpu time      0.4233: real time      0.4238
    CORREC:  cpu time     36.3030: real time     36.3228
    CHARGE:  cpu time     19.2637: real time     19.2755
    --------------------------------------------
      LOOP:  cpu time     72.6371: real time     72.6841

 eigenvalue-minimisations  :     0
 total energy-change (2. order) : 0.1106498E+02  (-0.1618968E+01)
 number of electron      43.9999942 magnetization 
 augmentation part       28.7137197 magnetization 

 Free energy of the ion-electron system (eV)
  ---------------------------------------------------
  alpha Z        PSCENC =         1.18414354
  Ewald energy   TEWEN  =      1143.30920876
  -Hartree energ DENC   =     -6184.69630565
  -exchange      EXHF   =         0.00000000
  -V(xc)+E(xc)   XCENC  =       215.26488749
  PAW double counting   =      5039.53466606    -5488.72177948
  entropy T*S    EENTRO =        -0.00000000
  eigenvalues    EBANDS =      -318.27242768
  atomic energy  EATOM  =      5563.90821598
  ---------------------------------------------------
  free energy    TOTEN  =       -28.48939098 eV

  energy without entropy =      -28.48939098  energy(sigma->0) =      -28.48939098


--------------------------------------------------------------------------------------------------------




--------------------------------------- Iteration      1(   7)  ---------------------------------------


    POTLOK:  cpu time     13.0649: real time     13.0703
    SETDIJ:  cpu time      3.8721: real time      3.8741
    TRIAL :  cpu time      0.3772: real time      0.3778
    CORREC:  cpu time     36.2114: real time     36.2310
    CHARGE:  cpu time     19.2869: real time     19.2987
    --------------------------------------------
      LOOP:  cpu time     72.8169: real time     72.8646

 eigenvalue-minimisations  :     0
 total energy-change (2. order) :-0.1516501E+01  (-0.3607533E+00)
 number of electron      43.9999942 magnetization 
 augmentation part       28.5995992 magnetization 

 Free energy of the ion-electron system (eV)
  ---------------------------------------------------
  alpha Z        PSCENC =         1.18414354
  Ewald energy   TEWEN  =      1143.30920876
  -Hartree energ DENC   =     -6275.71244391
  -exchange      EXHF   =         0.00000000
  -V(xc)+E(xc)   XCENC  =       219.44666978
  PAW double counting   =      5094.36405293    -5570.45029625
  entropy T*S    EENTRO =        -0.00000000
  eigenvalues    EBANDS =      -206.05544253
  atomic energy  EATOM  =      5563.90821598
  ---------------------------------------------------
  free energy    TOTEN  =       -30.00589171 eV

  energy without entropy =      -30.00589171  energy(sigma->0) =      -30.00589171


--------------------------------------------------------------------------------------------------------




--------------------------------------- Iteration      1(   8)  ---------------------------------------


    POTLOK:  cpu time     12.9037: real time     12.9086
    SETDIJ:  cpu time      3.8759: real time      3.8781
    TRIAL :  cpu time      0.3775: real time      0.3781
    CORREC:  cpu time     36.1959: real time     36.2157
    CHARGE:  cpu time     19.3469: real time     19.3584
    --------------------------------------------
      LOOP:  cpu time     72.7038: real time     72.7513

 eigenvalue-minimisations  :     0
 total energy-change (2. order) :-0.3593831E+00  (-0.5822757E-01)
 number of electron      43.9999942 magnetization 
 augmentation part       28.7237662 magnetization 

 Free energy of the ion-electron system (eV)
  ---------------------------------------------------
  alpha Z        PSCENC =         1.18414354
  Ewald energy   TEWEN  =      1143.30920876
  -Hartree energ DENC   =     -6241.47298787
  -exchange      EXHF   =         0.00000000
  -V(xc)+E(xc)   XCENC  =       218.23859926
  PAW double counting   =      5056.20164649    -5525.97323223
  entropy T*S    EENTRO =        -0.00000000
  eigenvalues    EBANDS =      -245.76086875
  atomic energy  EATOM  =      5563.90821598
  ---------------------------------------------------
  free energy    TOTEN  =       -30.36527483 eV

  energy without entropy =      -30.36527483  energy(sigma->0) =      -30.36527483


--------------------------------------------------------------------------------------------------------




--------------------------------------- Iteration      1(   9)  ---------------------------------------


    POTLOK:  cpu time     12.9088: real time     12.9137
    SETDIJ:  cpu time      3.8846: real time      3.8872
    TRIAL :  cpu time      0.3836: real time      0.3843
    CORREC:  cpu time     36.3925: real time     36.4150
    CHARGE:  cpu time     19.3639: real time     19.3781
    --------------------------------------------
      LOOP:  cpu time     72.9415: real time     72.9946

 eigenvalue-minimisations  :     0
 total energy-change (2. order) :-0.5769304E-01  (-0.4003371E-01)
 number of electron      43.9999942 magnetization 
 augmentation part       28.6818557 magnetization 

 Free energy of the ion-electron system (eV)
  ---------------------------------------------------
  alpha Z        PSCENC =         1.18414354
  Ewald energy   TEWEN  =      1143.30920876
  -Hartree energ DENC   =     -6256.06819408
  -exchange      EXHF   =         0.00000000
  -V(xc)+E(xc)   XCENC  =       218.95036183
  PAW double counting   =      5064.10617320    -5538.30430059
  entropy T*S    EENTRO =        -0.00000000
  eigenvalues    EBANDS =      -227.50857650
  atomic energy  EATOM  =      5563.90821598
  ---------------------------------------------------
  free energy    TOTEN  =       -30.42296787 eV

  energy without entropy =      -30.42296787  energy(sigma->0) =      -30.42296787


--------------------------------------------------------------------------------------------------------




--------------------------------------- Iteration      1(  10)  ---------------------------------------


    POTLOK:  cpu time     13.0514: real time     13.0571
    SETDIJ:  cpu time      3.8439: real time      3.8464
    TRIAL :  cpu time      0.3795: real time      0.3802
    CORREC:  cpu time     36.2181: real time     36.2410
    CHARGE:  cpu time     19.3162: real time     19.3308
    --------------------------------------------
      LOOP:  cpu time     72.8159: real time     72.8703

 eigenvalue-minimisations  :     0
 total energy-change (2. order) :-0.4009484E-01  (-0.1168108E-01)
 number of electron      43.9999942 magnetization 
 augmentation part       28.7240232 magnetization 

 Free energy of the ion-electron system (eV)
  ---------------------------------------------------
  alpha Z        PSCENC =         1.18414354
  Ewald energy   TEWEN  =      1143.30920876
  -Hartree energ DENC   =     -6250.57523709
  -exchange      EXHF   =         0.00000000
  -V(xc)+E(xc)   XCENC  =       218.71689369
  PAW double counting   =      5060.51282210    -5532.56547873
  entropy T*S    EENTRO =        -0.00000000
  eigenvalues    EBANDS =      -234.95363095
  atomic energy  EATOM  =      5563.90821598
  ---------------------------------------------------
  free energy    TOTEN  =       -30.46306271 eV

  energy without entropy =      -30.46306271  energy(sigma->0) =      -30.46306271


--------------------------------------------------------------------------------------------------------




--------------------------------------- Iteration      1(  11)  ---------------------------------------


    POTLOK:  cpu time     12.9322: real time     12.9379
    SETDIJ:  cpu time      3.8743: real time      3.8776
    TRIAL :  cpu time      0.3799: real time      0.3798
    CORREC:  cpu time     36.3869: real time     36.4094
    CHARGE:  cpu time     19.3096: real time     19.3245
    --------------------------------------------
      LOOP:  cpu time     72.8877: real time     72.9424

 eigenvalue-minimisations  :     0
 total energy-change (2. order) :-0.1172797E-01  (-0.8605875E-02)
 number of electron      43.9999942 magnetization 
 augmentation part       28.7024104 magnetization 

 Free energy of the ion-electron system (eV)
  ---------------------------------------------------
  alpha Z        PSCENC =         1.18414354
  Ewald energy   TEWEN  =      1143.30920876
  -Hartree energ DENC   =     -6256.18008203
  -exchange      EXHF   =         0.00000000
  -V(xc)+E(xc)   XCENC  =       218.98004596
  PAW double counting   =      5063.17168701    -5536.57221232
  entropy T*S    EENTRO =        -0.00000000
  eigenvalues    EBANDS =      -228.27579759
  atomic energy  EATOM  =      5563.90821598
  ---------------------------------------------------
  free energy    TOTEN  =       -30.47479068 eV

  energy without entropy =      -30.47479068  energy(sigma->0) =      -30.47479068


--------------------------------------------------------------------------------------------------------




--------------------------------------- Iteration      1(  12)  ---------------------------------------


    POTLOK:  cpu time     12.9895: real time     12.9955
    SETDIJ:  cpu time      3.8778: real time      3.8803
    TRIAL :  cpu time      0.3787: real time      0.3786
    CORREC:  cpu time     36.4139: real time     36.4377
    CHARGE:  cpu time     19.2823: real time     19.2959
    --------------------------------------------
      LOOP:  cpu time     72.9463: real time     73.0008

 eigenvalue-minimisations  :     0
 total energy-change (2. order) :-0.8618633E-02  (-0.1681287E-02)
 number of electron      43.9999942 magnetization 
 augmentation part       28.7087204 magnetization 

 Free energy of the ion-electron system (eV)
  ---------------------------------------------------
  alpha Z        PSCENC =         1.18414354
  Ewald energy   TEWEN  =      1143.30920876
  -Hartree energ DENC   =     -6252.82314220
  -exchange      EXHF   =         0.00000000
  -V(xc)+E(xc)   XCENC  =       218.83392904
  PAW double counting   =      5059.36464715    -5531.65355704
  entropy T*S    EENTRO =        -0.00000000
  eigenvalues    EBANDS =      -232.60685453
  atomic energy  EATOM  =      5563.90821598
  ---------------------------------------------------
  free energy    TOTEN  =       -30.48340931 eV

  energy without entropy =      -30.48340931  energy(sigma->0) =      -30.48340931


--------------------------------------------------------------------------------------------------------




--------------------------------------- Iteration      1(  13)  ---------------------------------------


    POTLOK:  cpu time     13.1859: real time     13.1916
    SETDIJ:  cpu time      3.8713: real time      3.8739
    TRIAL :  cpu time      0.3790: real time      0.3797
    CORREC:  cpu time     36.1643: real time     36.1872
    CHARGE:  cpu time     19.3175: real time     19.3320
    --------------------------------------------
      LOOP:  cpu time     72.9212: real time     72.9765

 eigenvalue-minimisations  :     0
 total energy-change (2. order) :-0.1684980E-02  (-0.1174678E-02)
 number of electron      43.9999942 magnetization 
 augmentation part       28.7080413 magnetization 

 Free energy of the ion-electron system (eV)
  ---------------------------------------------------
  alpha Z        PSCENC =         1.18414354
  Ewald energy   TEWEN  =      1143.30920876
  -Hartree energ DENC   =     -6253.30856096
  -exchange      EXHF   =         0.00000000
  -V(xc)+E(xc)   XCENC  =       218.85510573
  PAW double counting   =      5059.07403358    -5531.58741404
  entropy T*S    EENTRO =        -0.00000000
  eigenvalues    EBANDS =      -231.91982688
  atomic energy  EATOM  =      5563.90821598
  ---------------------------------------------------
  free energy    TOTEN  =       -30.48509429 eV

  energy without entropy =      -30.48509429  energy(sigma->0) =      -30.48509429


--------------------------------------------------------------------------------------------------------




--------------------------------------- Iteration      1(  14)  ---------------------------------------


    POTLOK:  cpu time     12.9446: real time     12.9497
    SETDIJ:  cpu time      3.8814: real time      3.8840
    TRIAL :  cpu time      0.3778: real time      0.3786
    CORREC:  cpu time     36.5053: real time     36.5281
    CHARGE:  cpu time     19.3274: real time     19.3414
    --------------------------------------------
      LOOP:  cpu time     73.0500: real time     73.0955

 eigenvalue-minimisations  :     0
 total energy-change (2. order) :-0.1180109E-02  (-0.2067831E-03)
 number of electron      43.9999942 magnetization 
 augmentation part       28.7051455 magnetization 

 Free energy of the ion-electron system (eV)
  ---------------------------------------------------
  alpha Z        PSCENC =         1.18414354
  Ewald energy   TEWEN  =      1143.30920876
  -Hartree energ DENC   =     -6252.95502482
  -exchange      EXHF   =         0.00000000
  -V(xc)+E(xc)   XCENC  =       218.83420806
  PAW double counting   =      5058.41814256    -5530.90091456
  entropy T*S    EENTRO =        -0.00000000
  eigenvalues    EBANDS =      -232.28425392
  atomic energy  EATOM  =      5563.90821598
  ---------------------------------------------------
  free energy    TOTEN  =       -30.48627440 eV

  energy without entropy =      -30.48627440  energy(sigma->0) =      -30.48627440


--------------------------------------------------------------------------------------------------------




--------------------------------------- Iteration      1(  15)  ---------------------------------------


    POTLOK:  cpu time     12.8430: real time     12.8487
    SETDIJ:  cpu time      3.8766: real time      3.8799
    TRIAL :  cpu time      0.3815: real time      0.3815
    CORREC:  cpu time     36.1957: real time     36.2178
    CHARGE:  cpu time     19.3437: real time     19.3579
    --------------------------------------------
      LOOP:  cpu time     72.6475: real time     72.7012

 eigenvalue-minimisations  :     0
 total energy-change (2. order) :-0.2054437E-03  (-0.1474996E-03)
 number of electron      43.9999942 magnetization 
 augmentation part       28.7080273 magnetization 

 Free energy of the ion-electron system (eV)
  ---------------------------------------------------
  alpha Z        PSCENC =         1.18414354
  Ewald energy   TEWEN  =      1143.30920876
  -Hartree energ DENC   =     -6252.52774710
  -exchange      EXHF   =         0.00000000
  -V(xc)+E(xc)   XCENC  =       218.81514350
  PAW double counting   =      5058.40762740    -5530.77685734
  entropy T*S    EENTRO =        -0.00000000
  eigenvalues    EBANDS =      -232.80621458
  atomic energy  EATOM  =      5563.90821598
  ---------------------------------------------------
  free energy    TOTEN  =       -30.48647985 eV

  energy without entropy =      -30.48647985  energy(sigma->0) =      -30.48647985


--------------------------------------------------------------------------------------------------------




--------------------------------------- Iteration      1(  16)  ---------------------------------------


    POTLOK:  cpu time     12.9458: real time     12.9517
    SETDIJ:  cpu time      3.8764: real time      3.8795
    TRIAL :  cpu time      0.3792: real time      0.3791
    CORREC:  cpu time     36.3108: real time     36.3350
    CHARGE:  cpu time     19.3189: real time     19.3320
    --------------------------------------------
      LOOP:  cpu time     72.8338: real time     72.8916

 eigenvalue-minimisations  :     0
 total energy-change (2. order) :-0.1502584E-03  (-0.6589235E-04)
 number of electron      43.9999942 magnetization 
 augmentation part       28.7044818 magnetization 

 Free energy of the ion-electron system (eV)
  ---------------------------------------------------
  alpha Z        PSCENC =         1.18414354
  Ewald energy   TEWEN  =      1143.30920876
  -Hartree energ DENC   =     -6252.94681509
  -exchange      EXHF   =         0.00000000
  -V(xc)+E(xc)   XCENC  =       218.83298221
  PAW double counting   =      5059.09018712    -5531.56969686
  entropy T*S    EENTRO =        -0.00000000
  eigenvalues    EBANDS =      -232.29485576
  atomic energy  EATOM  =      5563.90821598
  ---------------------------------------------------
  free energy    TOTEN  =       -30.48663010 eV

  energy without entropy =      -30.48663010  energy(sigma->0) =      -30.48663010


--------------------------------------------------------------------------------------------------------




--------------------------------------- Iteration      1(  17)  ---------------------------------------


    POTLOK:  cpu time     13.0909: real time     13.0970
    SETDIJ:  cpu time      3.8718: real time      3.8743
    TRIAL :  cpu time      0.3834: real time      0.3834
    CORREC:  cpu time     36.1679: real time     36.1915
    CHARGE:  cpu time     19.5370: real time     19.5508
    --------------------------------------------
      LOOP:  cpu time     73.0558: real time     73.1104

 eigenvalue-minimisations  :     0
 total energy-change (2. order) :-0.2806805E-04  (-0.4152549E-04)
 number of electron      43.9999942 magnetization 
 augmentation part       28.7073963 magnetization 

 Free energy of the ion-electron system (eV)
  ---------------------------------------------------
  alpha Z        PSCENC =         1.18414354
  Ewald energy   TEWEN  =      1143.30920876
  -Hartree energ DENC   =     -6252.46944507
  -exchange      EXHF   =         0.00000000
  -V(xc)+E(xc)   XCENC  =       218.81118825
  PAW double counting   =      5059.14843365    -5531.47782308
  entropy T*S    EENTRO =        -0.00000000
  eigenvalues    EBANDS =      -232.90058019
  atomic energy  EATOM  =      5563.90821598
  ---------------------------------------------------
  free energy    TOTEN  =       -30.48665817 eV

  energy without entropy =      -30.48665817  energy(sigma->0) =      -30.48665817


--------------------------------------------------------------------------------------------------------




--------------------------------------- Iteration      1(  18)  ---------------------------------------


    POTLOK:  cpu time     12.8691: real time     12.8752
    SETDIJ:  cpu time      3.8646: real time      3.8671
    TRIAL :  cpu time      0.3873: real time      0.3881
    CORREC:  cpu time     36.1945: real time     36.2169
    CHARGE:  cpu time     19.2923: real time     19.3062
    --------------------------------------------
      LOOP:  cpu time     72.6112: real time     72.6654

 eigenvalue-minimisations  :     0
 total energy-change (2. order) :-0.4022656E-04  (-0.7359631E-05)
 number of electron      43.9999942 magnetization 
 augmentation part       28.7075131 magnetization 

 Free energy of the ion-electron system (eV)
  ---------------------------------------------------
  alpha Z        PSCENC =         1.18414354
  Ewald energy   TEWEN  =      1143.30920876
  -Hartree energ DENC   =     -6252.88241479
  -exchange      EXHF   =         0.00000000
  -V(xc)+E(xc)   XCENC  =       218.82938454
  PAW double counting   =      5059.43311377    -5531.87747827
  entropy T*S    EENTRO =        -0.00000000
  eigenvalues    EBANDS =      -232.39087192
  atomic energy  EATOM  =      5563.90821598
  ---------------------------------------------------
  free energy    TOTEN  =       -30.48669840 eV

  energy without entropy =      -30.48669840  energy(sigma->0) =      -30.48669840


--------------------------------------------------------------------------------------------------------




--------------------------------------- Iteration      1(  19)  ---------------------------------------


    POTLOK:  cpu time     12.9318: real time     12.9375
    SETDIJ:  cpu time      3.8843: real time      3.8868
    TRIAL :  cpu time      0.3868: real time      0.3876
    CORREC:  cpu time     36.4875: real time     36.5076
    CHARGE:  cpu time     19.5730: real time     19.5839
    --------------------------------------------
      LOOP:  cpu time     73.2727: real time     73.3209

 eigenvalue-minimisations  :     0
 total energy-change (2. order) :-0.7687136E-05  (-0.7564903E-05)
 number of electron      43.9999942 magnetization 
 augmentation part       28.7050050 magnetization 

 Free energy of the ion-electron system (eV)
  ---------------------------------------------------
  alpha Z        PSCENC =         1.18414354
  Ewald energy   TEWEN  =      1143.30920876
  -Hartree energ DENC   =     -6252.90937829
  -exchange      EXHF   =         0.00000000
  -V(xc)+E(xc)   XCENC  =       218.83039646
  PAW double counting   =      5059.46614185    -5531.91726689
  entropy T*S    EENTRO =        -0.00000000
  eigenvalues    EBANDS =      -232.35816749
  atomic energy  EATOM  =      5563.90821598
  ---------------------------------------------------
  free energy    TOTEN  =       -30.48670609 eV

  energy without entropy =      -30.48670609  energy(sigma->0) =      -30.48670609


--------------------------------------------------------------------------------------------------------




--------------------------------------- Iteration      1(  20)  ---------------------------------------


    POTLOK:  cpu time     12.8868: real time     12.8896
    SETDIJ:  cpu time      3.8763: real time      3.8797
    TRIAL :  cpu time      0.3806: real time      0.3804
    CORREC:  cpu time     36.2337: real time     36.2518
    CHARGE:  cpu time     19.3197: real time     19.3338
    --------------------------------------------
      LOOP:  cpu time     72.7018: real time     72.7483

 eigenvalue-minimisations  :     0
 total energy-change (2. order) : 0.1331766E-04  (-0.1927241E-04)
 number of electron      43.9999942 magnetization 
 augmentation part       28.7073135 magnetization 

 Free energy of the ion-electron system (eV)
  ---------------------------------------------------
  alpha Z        PSCENC =         1.18414354
  Ewald energy   TEWEN  =      1143.30920876
  -Hartree energ DENC   =     -6252.52352783
  -exchange      EXHF   =         0.00000000
  -V(xc)+E(xc)   XCENC  =       218.81394691
  PAW double counting   =      5059.19056734    -5531.54255599
  entropy T*S    EENTRO =        -0.00000000
  eigenvalues    EBANDS =      -232.82669147
  atomic energy  EATOM  =      5563.90821598
  ---------------------------------------------------
  free energy    TOTEN  =       -30.48669277 eV

  energy without entropy =      -30.48669277  energy(sigma->0) =      -30.48669277


--------------------------------------------------------------------------------------------------------




--------------------------------------- Iteration      1(  21)  ---------------------------------------


    POTLOK:  cpu time     13.0710: real time     13.0772
    SETDIJ:  cpu time      3.8698: real time      3.8723
    TRIAL :  cpu time      0.3893: real time      0.3892
    CORREC:  cpu time     36.2239: real time     36.2473
    CHARGE:  cpu time     19.2837: real time     19.2974
    --------------------------------------------
      LOOP:  cpu time     72.8421: real time     72.8955

 eigenvalue-minimisations  :     0
 total energy-change (2. order) :-0.1799584E-04  (-0.2759626E-05)
 number of electron      43.9999942 magnetization 
 augmentation part       28.7076722 magnetization 

 Free energy of the ion-electron system (eV)
  ---------------------------------------------------
  alpha Z        PSCENC =         1.18414354
  Ewald energy   TEWEN  =      1143.30920876
  -Hartree energ DENC   =     -6252.84849908
  -exchange      EXHF   =         0.00000000
  -V(xc)+E(xc)   XCENC  =       218.82843502
  PAW double counting   =      5059.41889676    -5531.86117274
  entropy T*S    EENTRO =        -0.00000000
  eigenvalues    EBANDS =      -232.42593899
  atomic energy  EATOM  =      5563.90821598
  ---------------------------------------------------
  free energy    TOTEN  =       -30.48671076 eV

  energy without entropy =      -30.48671076  energy(sigma->0) =      -30.48671076


--------------------------------------------------------------------------------------------------------




--------------------------------------- Iteration      1(  22)  ---------------------------------------


    POTLOK:  cpu time     13.1958: real time     13.2024
    SETDIJ:  cpu time      3.8722: real time      3.8747
    TRIAL :  cpu time      0.3794: real time      0.3802
    CORREC:  cpu time     36.2997: real time     36.3226
    CHARGE:  cpu time     19.3440: real time     19.3582
    --------------------------------------------
      LOOP:  cpu time     73.0952: real time     73.1506

 eigenvalue-minimisations  :     0
 total energy-change (2. order) :-0.2390890E-05  (-0.5954831E-06)
 number of electron      43.9999942 magnetization 
 augmentation part       28.7072706 magnetization 

 Free energy of the ion-electron system (eV)
  ---------------------------------------------------
  alpha Z        PSCENC =         1.18414354
  Ewald energy   TEWEN  =      1143.30920876
  -Hartree energ DENC   =     -6252.91870130
  -exchange      EXHF   =         0.00000000
  -V(xc)+E(xc)   XCENC  =       218.83131924
  PAW double counting   =      5059.49950465    -5531.95600268
  entropy T*S    EENTRO =        -0.00000000
  eigenvalues    EBANDS =      -232.34440134
  atomic energy  EATOM  =      5563.90821598
  ---------------------------------------------------
  free energy    TOTEN  =       -30.48671315 eV

  energy without entropy =      -30.48671315  energy(sigma->0) =      -30.48671315


--------------------------------------------------------------------------------------------------------




--------------------------------------- Iteration      1(  23)  ---------------------------------------


    POTLOK:  cpu time     12.8939: real time     12.8995
    SETDIJ:  cpu time      3.8661: real time      3.8687
    TRIAL :  cpu time      0.3765: real time      0.3772
    CORREC:  cpu time     36.2487: real time     36.2706
    EDDIAG:  cpu time      0.1564: real time      0.1563
    CHARGE:  cpu time     19.2701: real time     19.2847
    --------------------------------------------
      LOOP:  cpu time     72.8234: real time     72.8688

 eigenvalue-minimisations  :     0
 total energy-change (2. order) :-0.8510151E-06  (-0.2337164E-06)
 number of electron      43.9999942 magnetization 
 augmentation part       28.7071609 magnetization 

 Free energy of the ion-electron system (eV)
  ---------------------------------------------------
  alpha Z        PSCENC =         1.18414354
  Ewald energy   TEWEN  =      1143.30920876
  -Hartree energ DENC   =     -6252.86750152
  -exchange      EXHF   =         0.00000000
  -V(xc)+E(xc)   XCENC  =       218.82896865
  PAW double counting   =      5059.47238113    -5531.91336237
  entropy T*S    EENTRO =        -0.00000000
  eigenvalues    EBANDS =      -232.40876816
  atomic energy  EATOM  =      5563.90821598
  ---------------------------------------------------
  free energy    TOTEN  =       -30.48671401 eV

  energy without entropy =      -30.48671401  energy(sigma->0) =      -30.48671401


--------------------------------------------------------------------------------------------------------


  average scaling for gradient   0.7204


 average (electrostatic) potential at core
  the test charge radii are     0.9430
  (the norm of the test charge is              1.0000)
       1 -79.0522       2 -79.1575       3 -79.1576       4 -79.0523
 
 
 
 E-fermi :  -4.5403     XC(G=0):  -0.1413     alpha+bet : -0.0642

 Fermi energy:        -4.5402553153

 k-point     1 :       0.0000    0.0000    0.0000
  band No.  band energies     occupation 
      1      -6.7229      2.00000
      2      -6.2708      2.00000
      3      -5.6993      2.00000
      4      -5.6981      2.00000
      5      -5.6350      2.00000
      6      -5.6337      2.00000
      7      -5.3166      2.00000
      8      -5.2357      2.00000
      9      -5.2350      2.00000
     10      -5.2267      2.00000
     11      -5.2259      2.00000
     12      -5.1469      2.00000
     13      -5.0227      2.00000
     14      -5.0222      2.00000
     15      -4.9944      2.00000
     16      -4.9939      2.00000
     17      -4.9332      2.00000
     18      -4.9318      2.00000
     19      -4.8925      2.00000
     20      -4.7949      2.00000
     21      -4.7935      2.00000
     22      -4.7877      2.00000
     23      -3.8222      0.00000
     24      -2.1413      0.00000
     25      -1.2166      0.00000
     26      -1.2164      0.00000
     27      -0.6582      0.00000
     28      -0.6567      0.00000
     29      -0.5828      0.00000
     30       0.1187      0.00000
     31       0.4493      0.00000
     32       0.6565      0.00000


--------------------------------------------------------------------------------------------------------


 soft charge-density along one line, spin component           1
         0         1         2         3         4         5         6         7         8         9
 total charge-density along one line
 
 pseudopotential strength for first ion, spin component:           1
-10.176   0.001  -0.031  -0.001   0.000   0.660  -0.000   0.028
  0.001 -10.149  -0.000   0.026   0.000  -0.000   0.636   0.000
 -0.031  -0.000 -10.140   0.000  -0.000   0.028   0.000   0.628
 -0.001   0.026   0.000 -10.149   0.000   0.000  -0.025  -0.000
  0.000   0.000  -0.000   0.000 -10.176  -0.000  -0.000   0.000
  0.660  -0.000   0.028   0.000  -0.000   6.764   0.000  -0.025
 -0.000   0.636   0.000  -0.025  -0.000   0.000   6.784  -0.000
  0.028   0.000   0.628  -0.000   0.000  -0.025  -0.000   6.793
  0.000  -0.025  -0.000   0.636  -0.000  -0.000   0.023   0.000
 -0.000  -0.000   0.000  -0.000   0.661   0.000   0.000  -0.000
 -0.021   0.000  -0.012  -0.000  -0.000   0.007  -0.000   0.004
 -0.039   0.001  -0.022  -0.001  -0.000   0.008  -0.000   0.005
  0.020  -0.000   0.012   0.000   0.020  -0.008   0.000  -0.004
  0.000  -0.020  -0.000   0.020  -0.000  -0.000   0.002  -0.000
 -0.020   0.000  -0.012  -0.000   0.020   0.008  -0.000   0.004
  0.023  -0.001   0.013   0.000   0.021  -0.007   0.000  -0.004
  0.000  -0.021  -0.000   0.021   0.000  -0.000  -0.000  -0.000
 -0.023   0.000  -0.013  -0.001   0.021   0.007  -0.000   0.004
 total augmentation occupancy for first ion, spin component:           1
  1.970   0.000  -0.010  -0.000   0.000  -0.001  -0.000   0.013   0.000  -0.000   0.088   0.009  -0.049  -0.001   0.049   0.026
  0.000   1.979  -0.000   0.008   0.000  -0.000  -0.018  -0.000  -0.006  -0.000  -0.002  -0.000   0.002   0.034  -0.001  -0.001
 -0.010  -0.000   1.981   0.000  -0.000   0.013  -0.000  -0.016   0.000   0.000   0.051   0.005  -0.028   0.001   0.028   0.015
 -0.000   0.008   0.000   1.979   0.000   0.000  -0.006   0.000  -0.018  -0.000   0.002   0.000  -0.001  -0.034   0.002   0.000
  0.000   0.000  -0.000   0.000   1.971  -0.000  -0.000   0.000  -0.000  -0.012  -0.000  -0.000  -0.034  -0.000  -0.034   0.028
 -0.001  -0.000   0.013   0.000  -0.000   0.006  -0.000   0.003   0.000  -0.000  -0.083   0.008  -0.011  -0.000   0.011   0.002
 -0.000  -0.018  -0.000  -0.006  -0.000  -0.000   0.002  -0.000  -0.001  -0.000   0.001  -0.000   0.000   0.003  -0.000  -0.000
  0.013  -0.000  -0.016   0.000   0.000   0.003  -0.000   0.002   0.000  -0.000  -0.048   0.005  -0.007  -0.000   0.007   0.001
  0.000  -0.006   0.000  -0.018  -0.000   0.000  -0.001   0.000   0.002  -0.000  -0.001   0.000  -0.000  -0.003   0.000   0.000
 -0.000  -0.000   0.000  -0.000  -0.012  -0.000  -0.000  -0.000  -0.000   0.003   0.000  -0.000  -0.003   0.000  -0.003   0.000
  0.088  -0.002   0.051   0.002  -0.000  -0.083   0.001  -0.048  -0.001   0.000   1.719  -0.158   0.171   0.004  -0.171  -0.025
  0.009  -0.000   0.005   0.000  -0.000   0.008  -0.000   0.005   0.000  -0.000  -0.158   0.015  -0.017  -0.000   0.017   0.003
 -0.049   0.002  -0.028  -0.001  -0.034  -0.011   0.000  -0.007  -0.000  -0.003   0.171  -0.017   0.046   0.001  -0.033  -0.007
 -0.001   0.034   0.001  -0.034  -0.000  -0.000   0.003  -0.000  -0.003   0.000   0.004  -0.000   0.001   0.013  -0.001  -0.000
  0.049  -0.001   0.028   0.002  -0.034   0.011  -0.000   0.007   0.000  -0.003  -0.171   0.017  -0.033  -0.001   0.046   0.005
  0.026  -0.001   0.015   0.000   0.028   0.002  -0.000   0.001   0.000   0.000  -0.025   0.003  -0.007  -0.000   0.005   0.002
 -0.000  -0.028  -0.001   0.028   0.000   0.000  -0.000   0.000   0.000  -0.000  -0.001   0.000  -0.000  -0.002   0.000   0.000
 -0.026   0.000  -0.015  -0.001   0.028  -0.002   0.000  -0.001  -0.000   0.000   0.025  -0.003   0.005   0.000  -0.007  -0.001


------------------------ aborting loop because EDIFF is reached ----------------------------------------


    FORLOC:  cpu time      0.0071: real time      0.0071
    FORNL :  cpu time      0.0513: real time      0.0513
    STRESS:  cpu time     18.8589: real time     18.8724
    FORCOR:  cpu time     12.8311: real time     12.8370
    OFIELD:  cpu time      0.0004: real time      0.0004

  FORCE on cell =-STRESS in cart. coord.  units (eV):
  Direction    XX          YY          ZZ          XY          YZ          ZX
  --------------------------------------------------------------------------------------
  Alpha Z     1.18414     1.18414     1.18414
  Ewald     915.52544   915.52437  -687.74104 -1388.75739    -0.00018    -0.00008
  Hartree  2540.99887  2540.99839  1170.85133 -1158.53006    -0.00010    -0.00005
  E(xc)    -283.71556  -283.71555  -283.86722    -0.14970     0.00000    -0.00000
  Local   -3816.12095 -3816.11947  -853.49503  2536.50029     0.00028     0.00014
  n-local  -108.34968  -108.34963  -105.28244     3.08636     0.00003     0.00003
  augment   386.24918   386.24922   390.94556     4.60035     0.00013     0.00010
  Kinetic   361.22155   361.22159   367.35866     6.13893     0.00000     0.00000
  Fock        0.00000     0.00000     0.00000     0.00000     0.00000     0.00000
  -------------------------------------------------------------------------------------
  Total      -3.00697    -3.00697    -0.04604     2.88878     0.00000     0.00000
  in kB      -0.48754    -0.48754    -0.00746     0.46838     0.00000     0.00000
  external pressure =       -0.33 kB  Pullay stress =        0.00 kB


 VOLUME and BASIS-vectors are now :
 -----------------------------------------------------------------------------
  energy-cutoff  :      520.00
  volume of cell :     9881.61
      direct lattice vectors                 reciprocal lattice vectors
    21.138852197  0.000000000  0.000000000     0.047306258  0.000000000  0.000000000
     0.000000000 21.138852197  0.000000000     0.000000000  0.047306258  0.000000000
     0.000000000  0.000000000 22.113885220     0.000000000  0.000000000  0.045220457

  length of vectors
    21.138852197 21.138852197 22.113885220     0.047306258  0.047306258  0.045220457


 FORCES acting on ions:
    Electron-Ion                     Ewald-Force                    Non-Local-Force
 -----------------------------------------------------------------------------------------------
   -.683E+02 0.683E+02 0.511E+01   0.605E+02 -.605E+02 -.489E+01   0.757E+01 -.757E+01 -.193E+00
   0.293E+03 -.293E+03 -.509E+01   -.283E+03 0.283E+03 0.489E+01   -.949E+01 0.949E+01 0.160E+00
   -.293E+03 0.293E+03 -.509E+01   0.283E+03 -.283E+03 0.489E+01   0.949E+01 -.949E+01 0.160E+00
   0.683E+02 -.683E+02 0.511E+01   -.605E+02 0.605E+02 -.489E+01   -.757E+01 0.757E+01 -.193E+00
 -----------------------------------------------------------------------------------------------
   -.122E-01 -.102E-01 0.411E-01   0.568E-13 -.284E-13 0.000E+00   0.000E+00 0.178E-14 -.648E-01
 
 
 POSITION                                       TOTAL-FORCE (eV/Angst)
 -----------------------------------------------------------------------------------
      8.42022     12.71964     13.21830        -0.247475      0.247475      0.026041
      6.77748     14.36235     13.25117         0.636423     -0.636423     -0.026041
     12.24845      8.89138     13.25117        -0.636423      0.636423     -0.026041
     10.60574     10.53411     13.21830         0.247475     -0.247475      0.026041
 -----------------------------------------------------------------------------------
    total drift:                               -0.012193     -0.010187     -0.023667


--------------------------------------------------------------------------------------------------------



  FREE ENERGIE OF THE ION-ELECTRON SYSTEM (eV)
  ---------------------------------------------------
  free  energy   TOTEN  =       -30.48671401 eV

  energy  without entropy=      -30.48671401  energy(sigma->0) =      -30.48671401
 


--------------------------------------------------------------------------------------------------------


    POTLOK:  cpu time     16.7541: real time     16.7625


--------------------------------------------------------------------------------------------------------


     LOOP+:  cpu time   1403.7309: real time   1404.7339
    4ORBIT:  cpu time      0.0001: real time      0.0000

 total amount of memory used by VASP MPI-rank0    68444. kBytes
=======================================================================

   base      :      30000. kBytes
   nonlr-proj:        724. kBytes
   fftplans  :      11482. kBytes
   grid      :      25425. kBytes
   one-center:         15. kBytes
   wavefun   :        798. kBytes
 
  
  
 General timing and accounting informations for this job:
 ========================================================
  
                  Total CPU time used (sec):     1418.024
                            User time (sec):     1407.677
                          System time (sec):       10.347
                         Elapsed time (sec):     1419.841
  
                   Maximum memory used (kb):     1591796.
                   Average memory used (kb):          N/A
  
                          Minor page faults:       132011
                          Major page faults:            0
                 Voluntary context switches:        12818
