 vasp.6.3.0 20Jan22 (build Apr  1 2022 16:44:48) complex                         
 executed on        HPECrayEX_GCC date 2022.12.06  08:32:10
 running   64 mpi-ranks, with    1 threads/rank
 distrk:  each k-point on   32 cores,    2 groups
 distr:  one band on NCORE=   4 cores,    8 groups


--------------------------------------------------------------------------------------------------------


 INCAR:
   SYSTEM = MgO-rocksalt
   ISMEAR = 0
   SIGMA = 0.05
   EDIFF = 1E-6
   ALGO = ALL
   ISTART = 0
   IBRION = -1
   NSW = 0
   ISYM = 2
   LHFCALC = .TRUE.
   GGA = PE
   IVDW = 13
   VDW_S8 = 1.2007
   VDW_A1 = 0.4009
   VDW_A2 = 5.0293
   ENCUT = 520
   PREC = Accurate
   LASPH = .TRUE.
   LREAL = Auto
   NELM = 200
   NELMIN = 8
   NCORE = 4
   KPAR = 2
   LWAVE = .FALSE.
   LCHARG = .FALSE.
   ISPIN = 2

 POTCAR:    PAW_PBE Cu 22Jun2005                  
 -----------------------------------------------------------------------------
|                                                                             |
|           W    W    AA    RRRRR   N    N  II  N    N   GGGG   !!!           |
|           W    W   A  A   R    R  NN   N  II  NN   N  G    G  !!!           |
|           W    W  A    A  R    R  N N  N  II  N N  N  G       !!!           |
|           W WW W  AAAAAA  RRRRR   N  N N  II  N  N N  G  GGG   !            |
|           WW  WW  A    A  R   R   N   NN  II  N   NN  G    G                |
|           W    W  A    A  R    R  N    N  II  N    N   GGGG   !!!           |
|                                                                             |
|     You use a magnetic or noncollinear calculation, but did not specify     |
|     the initial magnetic moment with the MAGMOM tag. Note that a            |
|     default of 1 will be used for all atoms. This ferromagnetic setup       |
|     may break the symmetry of the crystal, in particular it may rule        |
|     out finding an antiferromagnetic solution. Thence, we recommend         |
|     setting the initial magnetic moment manually or verifying carefully     |
|     that this magnetic setup is desired.                                    |
|                                                                             |
 -----------------------------------------------------------------------------

 -----------------------------------------------------------------------------
|                                                                             |
|           W    W    AA    RRRRR   N    N  II  N    N   GGGG   !!!           |
|           W    W   A  A   R    R  NN   N  II  NN   N  G    G  !!!           |
|           W    W  A    A  R    R  N N  N  II  N N  N  G       !!!           |
|           W WW W  AAAAAA  RRRRR   N  N N  II  N  N N  G  GGG   !            |
|           WW  WW  A    A  R   R   N   NN  II  N   NN  G    G                |
|           W    W  A    A  R    R  N    N  II  N    N   GGGG   !!!           |
|                                                                             |
|     You have selected ISYM=2 for a HF type calculation. This will           |
|     symmetrize the charge density but not the exchange potential. I         |
|     suggest to use ISYM=3 instead. This uses symmetry to obtain the         |
|     orbitals at all k-points in the Brillouin zone, but does not apply      |
|     symmetry to the Hartree potential directly. The resultant charge        |
|     might have lower symmetry than the crystal but, at least, Hartree       |
|     and exchange are fully compatible.                                      |
|                                                                             |
 -----------------------------------------------------------------------------

 POTCAR:    PAW_PBE Cu 22Jun2005                  
   SHA256 =  0e71e558f37a4e8407882b4609ceaae59938afaad9ced71dfe8490308a0ab630 Cu/POTCAR             
   COPYR  = (c) Copyright 22Jun2005 Georg Kresse                                                    
   COPYR  = This file is part of the software VASP. Any use, copying, and all other rights are regul
   COPYR  = If you do not have a valid VASP license, you may not use, copy or distribute this file. 
   VRHFIN =Cu: d10 p1                                                                               
   LEXCH  = PE                                                                                      
   EATOM  =  1390.9808 eV,  102.2342 Ry                                                             
                                                                                                    
   TITEL  = PAW_PBE Cu 22Jun2005                                                                    
   LULTRA =        F    use ultrasoft PP ?                                                          
   IUNSCR =        1    unscreen: 0-lin 1-nonlin 2-no                                               
   RPACOR =    2.000    partial core radius                                                         
   POMASS =   63.546; ZVAL   =   11.000    mass and valenz                                          
   RCORE  =    2.300    outmost cutoff radius                                                       
   RWIGS  =    2.200; RWIGS  =    1.164    wigner-seitz radius (au A)                               
   ENMAX  =  295.446; ENMIN  =  221.585 eV                                                          
   ICORE  =        3    local potential                                                             
   LCOR   =        T    correct aug charges                                                         
   LPAW   =        T    paw PP                                                                      
   EAUG   =  586.980                                                                                
   DEXC   =    0.000                                                                                
   RMAX   =    2.344    core radius for proj-oper                                                   
   RAUG   =    1.300    factor for augmentation sphere                                              
   RDEP   =    2.302    radius for radial grids                                                     
   RDEPT  =    1.771    core radius for aug-charge                                                  
                                                                                                    
   Atomic configuration                                                                             
    9 entries                                                                                       
     n  l   j            E        occ.                                                              
     1  0  0.50     -8850.2468   2.0000                                                             
     2  0  0.50     -1062.3498   2.0000                                                             
     2  1  1.50      -916.8226   6.0000                                                             
     3  0  0.50      -114.6929   2.0000                                                             
     3  1  1.50       -72.1325   6.0000                                                             
     3  2  2.50        -5.0394  10.0000                                                             
     4  0  0.50        -4.6097   1.0000                                                             
     4  1  0.50        -4.0817   0.0000                                                             
     4  3  2.50        -1.3606   0.0000                                                             
   Description                                                                                      
     l       E           TYP  RCUT    TYP  RCUT                                                     
     2     -5.0393973     23  2.200                                                                 
     2     10.8846608     23  2.200                                                                 
     0     -4.6097109     23  2.200                                                                 
     0      8.2520465     23  2.200                                                                 
     1     -2.7211652     23  2.200                                                                 
     1     21.7055443     23  2.200                                                                 
     3      2.7211652     23  2.300                                                                 
  local pseudopotential read in
  partial core-charges read in
  partial kinetic energy density read in
  atomic valenz-charges read in
  non local Contribution for L=           2  read in
    real space projection operators read in
  non local Contribution for L=           2  read in
    real space projection operators read in
  non local Contribution for L=           0  read in
    real space projection operators read in
  non local Contribution for L=           0  read in
    real space projection operators read in
  non local Contribution for L=           1  read in
    real space projection operators read in
  non local Contribution for L=           1  read in
    real space projection operators read in
    PAW grid and wavefunctions read in

   number of l-projection  operators is LMAX  =           6
   number of lm-projection operators is LMMAX =          18

 -----------------------------------------------------------------------------
|                                                                             |
|               ----> ADVICE to this user running VASP <----                  |
|                                                                             |
|     You have a (more or less) 'small supercell' and for smaller cells       |
|     it is recommended to use the reciprocal-space projection scheme!        |
|     The real-space optimization is not efficient for small cells and it     |
|     is also less accurate ...                                               |
|     Therefore, set LREAL=.FALSE. in the INCAR file.                         |
|                                                                             |
 -----------------------------------------------------------------------------

 Optimization of the real space projectors (new method)

 maximal supplied QI-value         = 16.25
 optimisation between [QCUT,QGAM] = [ 11.54, 23.24] = [ 37.28,151.24] Ry 
 Optimized for a Real-space Cutoff    1.53 Angstroem

   l    n(q)    QCUT    max X(q) W(low)/X(q) W(high)/X(q)  e(spline) 
   2     10    11.539     4.610    0.96E-04    0.13E-03    0.19E-06
   2     10    11.539     8.522    0.16E-03    0.21E-03    0.28E-06
   0     11    11.539    51.609    0.45E-04    0.31E-04    0.11E-06
   0     11    11.539    27.747    0.39E-04    0.29E-04    0.10E-06
   1     10    11.539    20.408    0.70E-05    0.38E-04    0.18E-06
   1     10    11.539    13.425    0.66E-05    0.34E-04    0.17E-06
  PAW_PBE Cu 22Jun2005                  :
 energy of atom  1       EATOM=-1390.9808
 kinetic energy error for atom=    0.0037 (will be added to EATOM!!)


 POSCAR: au4
  positions in direct lattice
  No initial velocities read in
 -----------------------------------------------------------------------------
|                                                                             |
|           W    W    AA    RRRRR   N    N  II  N    N   GGGG   !!!           |
|           W    W   A  A   R    R  NN   N  II  NN   N  G    G  !!!           |
|           W    W  A    A  R    R  N N  N  II  N N  N  G       !!!           |
|           W WW W  AAAAAA  RRRRR   N  N N  II  N  N N  G  GGG   !            |
|           WW  WW  A    A  R   R   N   NN  II  N   NN  G    G                |
|           W    W  A    A  R    R  N    N  II  N    N   GGGG   !!!           |
|                                                                             |
|     Specifying the vdW parameters                                           |
|     VDW_S8 = 1.201                                                          |
|     VDW_A1 = 0.401                                                          |
|     VDW_A2 = 5.029                                                          |
|     in the INCAR file will overwrite the defaults for pbe0. Please make     |
|     sure that is what you intended.                                         |
|                                                                             |
 -----------------------------------------------------------------------------

 exchange correlation table for  LEXCH =        8
   RHO(1)=    0.500       N(1)  =     2000
   RHO(2)=  100.500       N(2)  =     4000



--------------------------------------------------------------------------------------------------------


 ion  position               nearest neighbor table
   1  0.450  0.460  0.600-

  LATTYP: Found a simple cubic cell.
 ALAT       =    20.0000000000
  
  Lattice vectors:
  
 A1 = (  20.0000000000,   0.0000000000,   0.0000000000)
 A2 = (   0.0000000000,  20.0000000000,   0.0000000000)
 A3 = (   0.0000000000,   0.0000000000,  20.0000000000)


Analysis of symmetry for initial positions (statically):
=====================================================================
 Subroutine PRICEL returns:
 Original cell was already a primitive cell.
 

 Routine SETGRP: Setting up the symmetry group for a 
 simple cubic supercell.


 Subroutine GETGRP returns: Found 48 space group operations
 (whereof  1 operations were pure point group operations)
 out of a pool of 48 trial point group operations.


The static configuration has the point symmetry C_1 .
 The point group associated with its full space group is O_h .


Analysis of symmetry for dynamics (positions and initial velocities):
=====================================================================
 Subroutine PRICEL returns:
 Original cell was already a primitive cell.
 

 Routine SETGRP: Setting up the symmetry group for a 
 simple cubic supercell.


 Subroutine GETGRP returns: Found 48 space group operations
 (whereof  1 operations were pure point group operations)
 out of a pool of 48 trial point group operations.


The dynamic configuration has the point symmetry C_1 .
 The point group associated with its full space group is O_h .


Analysis of structural, dynamic, and magnetic symmetry:
=====================================================================
 Subroutine PRICEL returns:
 Original cell was already a primitive cell.
 

 Routine SETGRP: Setting up the symmetry group for a 
 simple cubic supercell.


 Subroutine GETGRP returns: Found 48 space group operations
 (whereof  1 operations were pure point group operations)
 out of a pool of 48 trial point group operations.


The overall configuration has the point symmetry C_1 .
 The point group associated with its full space group is O_h .


 Subroutine INISYM returns: Found 48 space group operations
 (whereof  1 operations are pure point group operations),
 and found     1 'primitive' translations


----------------------------------------------------------------------------------------

                                     Primitive cell                                     

  volume of cell :    8000.0000

  direct lattice vectors                    reciprocal lattice vectors
    20.000000000  0.000000000  0.000000000     0.050000000  0.000000000  0.000000000
     0.000000000 20.000000000  0.000000000     0.000000000  0.050000000  0.000000000
     0.000000000  0.000000000 20.000000000     0.000000000  0.000000000  0.050000000

  length of vectors
    20.000000000 20.000000000 20.000000000     0.050000000  0.050000000  0.050000000

  position of ions in fractional coordinates (direct lattice)
     0.450000000  0.460000000  0.600000000

  ion indices of the primitive-cell ions
   primitive index   ion index
                 1           1

----------------------------------------------------------------------------------------



 KPOINTS: KPOINTS created by Atomic Simulation Env

Automatic generation of k-mesh.
 Grid dimensions read from file:
 generate k-points for:    1    1    1

 Generating k-lattice:

  Cartesian coordinates                     Fractional coordinates (reciprocal lattice)
     0.050000000  0.000000000  0.000000000     1.000000000  0.000000000  0.000000000
     0.000000000  0.050000000  0.000000000     0.000000000  1.000000000  0.000000000
     0.000000000  0.000000000  0.050000000     0.000000000  0.000000000  1.000000000

  Length of vectors
     0.050000000  0.050000000  0.050000000

  Shift w.r.t. Gamma in fractional coordinates (k-lattice)
     0.000000000  0.000000000  0.000000000

 
 Subroutine IBZKPT returns following result:
 ===========================================
 
 Found      1 irreducible k-points:
 
 Following reciprocal coordinates:
            Coordinates               Weight
  0.000000  0.000000  0.000000      1.000000
 
 Following cartesian coordinates:
            Coordinates               Weight
  0.000000  0.000000  0.000000      1.000000
 
 
 Subroutine IBZKPT_HF returns following result:
 ==============================================
 
 Found      1 k-points in 1st BZ
 the following      1 k-points will be used (e.g. in the exchange kernel)
 Following reciprocal coordinates:   # in IRBZ
  0.000000  0.000000  0.000000    1.00000000   1 t-inv F


--------------------------------------------------------------------------------------------------------




 Dimension of arrays:
   k-points           NKPTS =      1   k-points in BZ     NKDIM =      1   number of bands    NBANDS=     16
   number of dos      NEDOS =    301   number of ions     NIONS =      1
   non local maximal  LDIM  =      6   non local SUM 2l+1 LMDIM =     18
   total plane-waves  NPLWV = ******
   max r-space proj   IRMAX =   6426   max aug-charges    IRDMAX=  12418
   dimension x,y,z NGX =   150 NGY =  150 NGZ =  150
   dimension x,y,z NGXF=   300 NGYF=  300 NGZF=  300
   support grid    NGXF=   300 NGYF=  300 NGZF=  300
   ions per type =               1
   NGX,Y,Z   is equivalent  to a cutoff of  12.47, 12.47, 12.47 a.u.
   NGXF,Y,Z  is equivalent  to a cutoff of  24.94, 24.94, 24.94 a.u.

 SYSTEM =  MgO-rocksalt                            
 POSCAR =  au4                                     

 Startparameter for this run:
   NWRITE =      2    write-flag & timer
   PREC   = accura    normal or accurate (medium, high low for compatibility)
   ISTART =      0    job   : 0-new  1-cont  2-samecut
   ICHARG =      2    charge: 1-file 2-atom 10-const
   ISPIN  =      2    spin polarized calculation?
   LNONCOLLINEAR =      F non collinear calculations
   LSORBIT =      F    spin-orbit coupling
   INIWAV =      1    electr: 0-lowe 1-rand  2-diag
   LASPH  =      T    aspherical Exc in radial PAW
 Electronic Relaxation 1
   ENCUT  =  520.0 eV  38.22 Ry    6.18 a.u.  37.19 37.19 37.19*2*pi/ulx,y,z
   ENINI  =  520.0     initial cutoff
   ENAUG  =  587.0 eV  augmentation charge cutoff
   NELM   =    200;   NELMIN=  8; NELMDL= -5     # of ELM steps 
   EDIFF  = 0.1E-05   stopping-criterion for ELM
   LREAL  =      T    real-space projection
   NLSPLINE    = F    spline interpolate recip. space projectors
   LCOMPAT=      F    compatible to vasp.4.4
   GGA_COMPAT  = T    GGA compatible to vasp.4.4-vasp.4.6
   LMAXPAW     = -100 max onsite density
   LMAXMIX     =    2 max onsite mixed and CHGCAR
   VOSKOWN=      0    Vosko Wilk Nusair interpolation
   ROPT   =   -0.00025
 Ionic relaxation
   EDIFFG = 0.1E-04   stopping-criterion for IOM
   NSW    =      0    number of steps for IOM
   NBLOCK =      1;   KBLOCK =      1    inner block; outer block 
   IBRION =     -1    ionic relax: 0-MD 1-quasi-New 2-CG
   NFREE  =      0    steps in history (QN), initial steepest desc. (CG)
   ISIF   =      0    stress and relaxation
   IWAVPR =     10    prediction:  0-non 1-charg 2-wave 3-comb
   ISYM   =      2    0-nonsym 1-usesym 2-fastsym
   LCORR  =      T    Harris-Foulkes like correction to forces

   POTIM  = 0.5000    time-step for ionic-motion
   TEIN   =    0.0    initial temperature
   TEBEG  =    0.0;   TEEND  =   0.0 temperature during run
   SMASS  =  -3.00    Nose mass-parameter (am)
   estimated Nose-frequenzy (Omega)   =  0.10E-29 period in steps = 0.13E+47 mass=  -0.914E-26a.u.
   SCALEE = 1.0000    scale energy and forces
   NPACO  =    256;   APACO  = 10.0  distance and # of slots for P.C.
   PSTRESS=    0.0 pullay stress

  Mass of Ions in am
   POMASS =  63.55
  Ionic Valenz
   ZVAL   =  11.00
  Atomic Wigner-Seitz radii
   RWIGS  =  -1.00
  virtual crystal weights 
   VCA    =   1.00
   NELECT =      11.0000    total number of electrons
   NUPDOWN=      -1.0000    fix difference up-down

 DOS related values:
   EMIN   =  10.00;   EMAX   =-10.00  energy-range for DOS
   EFERMI =   0.00
   ISMEAR =     0;   SIGMA  =   0.05  broadening in eV -4-tet -1-fermi 0-gaus

 Electronic relaxation 2 (details)
   IALGO  =     58    algorithm
   LDIAG  =      T    sub-space diagonalisation (order eigenvalues)
   LSUBROT=      F    optimize rotation matrix (better conditioning)
   TURBO    =      0    0=normal 1=particle mesh
   IRESTART =      0    0=no restart 2=restart with 2 vectors
   NREBOOT  =      0    no. of reboots
   NMIN     =      0    reboot dimension
   EREF     =   0.00    reference energy to select bands
   IMIX   =      4    mixing-type and parameters
     AMIX     =   0.40;   BMIX     =  1.00
     AMIX_MAG =   1.60;   BMIX_MAG =  1.00
     AMIN     =   0.10
     WC   =   100.;   INIMIX=   1;  MIXPRE=   1;  MAXMIX= -45

 Intra band minimization:
   WEIMIN = 0.0000     energy-eigenvalue tresh-hold
   EBREAK =  0.16E-07  absolut break condition
   DEPER  =   0.30     relativ break condition  

   TIME   =   0.40     timestep for ELM

  volume/ion in A,a.u.               =    8000.00     53986.66
  Fermi-wavevector in a.u.,A,eV,Ry     =   0.182044  0.344013  0.450896  0.033140
  Thomas-Fermi vector in A             =   0.909791

 Write flags
   LWAVE        =      F    write WAVECAR
   LDOWNSAMPLE  =      F    k-point downsampling of WAVECAR
   LCHARG       =      F    write CHGCAR
   LVTOT        =      F    write LOCPOT, total local potential
   LVHAR        =      F    write LOCPOT, Hartree potential only
   LELF         =      F    write electronic localiz. function (ELF)
   LORBIT       =      0    0 simple, 1 ext, 2 COOP (PROOUT), +10 PAW based schemes


 Dipole corrections
   LMONO  =      F    monopole corrections only (constant potential shift)
   LDIPOL =      F    correct potential (dipole corrections)
   IDIPOL =      0    1-x, 2-y, 3-z, 4-all directions 
   EPSILON=  1.0000000 bulk dielectric constant

 Exchange correlation treatment:
   GGA     =    PE    GGA type
   LEXCH   =     8    internal setting for exchange type
   LIBXC   =     F    Libxc                    
   VOSKOWN =     0    Vosko Wilk Nusair interpolation
   EXXOEP  =     0    0=HF, 1=EXX-LHF (local Hartree Fock) 2=EXX OEP
   LHFCALC =     T    Hartree Fock is set to
   LSYMGRAD=     F    symmetrize gradient (conserves proper symmetry)
   PRECFOCK=normal    Normal, Fast or Accurate (Low or Medium for compatibility)
   LRHFCALC=     F    long range Hartree Fock
   LRSCOR  =     F    long range correlation only (use DFT for short range part)
   LTHOMAS =     F    Thomas Fermi screening in HF
   LMODELHF=     F    short range full HF, long range fraction AEXX
   LFOCKACE=     T    use Adeptively-Compressed-Exchange operator
   ENCUT4O =  -1.0   cutoff for four orbital integrals eV
   LMAXFOCK=     4    L truncation for augmentation on plane wave grid
   LMAXFOCKAE=  -1    L truncation for all-electron charge restoration on plane wave grid
   NMAXFOCKAE=   1    number of basis functions for all-electron charge restoration
   LFOCKAEDFT=     F  apply the AE augmentation even for DFT
   NKREDX  =     1    reduce k-point grid by
   NKREDY  =     1    reduce k-point grid by
   NKREDZ  =     1    reduce k-point grid by
   SHIFTRED=     F    shift reduced grid of Gamma
   HFKIDENT=     F    idential grid for each k-point
   ODDONLY =     F    use only odd q-grid points
   EVENONLY=     F    use only even q-grid points
   HFALPHA =   -1.0000 decay constant for conv. correction
   MCALPHA =    0.0000 extent of test-charge in conv. correction in multipole expansion
   AEXX    =    0.2500 exact exchange contribution
   HFSCREEN=    0.0000 screening length (either q_TF or 0.3 A-1)
   HFSCREENC=   0.0000 screening length for correlation (either q_TF or 0.3 A-1)
   HFRCUT  =    0.0000 spherical cutoff for potential kernel
   ALDAX   =    0.7500 LDA exchange part
   AGGAX   =    0.7500 GGA exchange part
   ALDAC   =    1.0000 LDA correlation
   AGGAC   =    1.0000 GGA correlation
   ENCUTFOCK=  -1.0 apply spherical cutoff to Coloumb kernel
   NBANDSGWLOW=     1    first orbital included in HF term
   NBLOCK_FOCK=    64    blocking factor in FOCK_ACC

 Linear response parameters
   LEPSILON=     F    determine dielectric tensor
   LRPA    =     F    only Hartree local field effects (RPA)
   LNABLA  =     F    use nabla operator in PAW spheres
   LVEL    =     F    velocity operator in full k-point grid
   CSHIFT  =0.1000    complex shift for real part using Kramers Kronig
   OMEGAMAX=  -1.0    maximum frequency
   DEG_THRESHOLD= 0.2000000E-02 threshold for treating states as degnerate
   RTIME   =   -0.100 relaxation time in fs
  (WPLASMAI=    0.000 imaginary part of plasma frequency in eV, 0.658/RTIME)
   DFIELD  = 0.0000000 0.0000000 0.0000000 field for delta impulse in time

  Optional k-point grid parameters
   LKPOINTS_OPT  =     F    use optional k-point grid
   KPOINTS_OPT_MODE=     1    mode for optional k-point grid

 Orbital magnetization related:
   ORBITALMAG=     F  switch on orbital magnetization
   LCHIMAG   =     F  perturbation theory with respect to B field
   DQ        =  0.001000  dq finite difference perturbation B field
   LLRAUG    =     F  two centre corrections for induced B field



--------------------------------------------------------------------------------------------------------


 Static calculation
 charge density and potential will be updated during run
 spin polarized calculation
 Conjugate gradient for all bands (Freysoldt, et al. PRB 79, 241103 (2009))
 preconditioned conjugated gradient                                        
 perform sub-space diagonalisation
    before iterative eigenvector-optimisation
 modified Broyden-mixing scheme, WC =      100.0
 initial mixing is a Kerker type mixing with AMIX =  0.4000 and BMIX =      1.0000
 Hartree-type preconditioning will be used
 using additional bands           10
 real space projection scheme for non local part
 use partial core corrections
 no Harris-corrections to forces 
 use gradient corrections 
 use of overlap-Matrix (Vanderbilt PP)
 Gauss-broadening in eV      SIGMA  =   0.05


--------------------------------------------------------------------------------------------------------


  energy-cutoff  :      520.00
  volume of cell :     8000.00
      direct lattice vectors                 reciprocal lattice vectors
    20.000000000  0.000000000  0.000000000     0.050000000  0.000000000  0.000000000
     0.000000000 20.000000000  0.000000000     0.000000000  0.050000000  0.000000000
     0.000000000  0.000000000 20.000000000     0.000000000  0.000000000  0.050000000

  length of vectors
    20.000000000 20.000000000 20.000000000     0.050000000  0.050000000  0.050000000



 k-points in units of 2pi/SCALE and weight: KPOINTS created by Atomic Simulation Env
   0.00000000  0.00000000  0.00000000       1.000

 k-points in reciprocal lattice and weights: KPOINTS created by Atomic Simulation Env
   0.00000000  0.00000000  0.00000000       1.000

 position of ions in fractional coordinates (direct lattice) 
   0.45000000  0.46000000  0.60000000

 position of ions in cartesian coordinates  (Angst):
   9.00000000  9.20000000 12.00000000



--------------------------------------------------------------------------------------------------------


 k-point   1 :   0.0000 0.0000 0.0000  plane waves:  215503

 maximum and minimum number of plane-waves per node :     53900    53857

 maximum number of plane-waves:    215503
 maximum index in each direction: 
   IXMAX=   37   IYMAX=   37   IZMAX=   37
   IXMIN=  -37   IYMIN=  -37   IZMIN=  -37


 real space projection operators:
  total allocation   :        868.22 KBytes
  max/ min on nodes  :        217.97        216.14


 parallel 3D FFT for wavefunctions:
    minimum data exchange during FFTs selected (reduces bandwidth)
 parallel 3D FFT for charge:
    minimum data exchange during FFTs selected (reduces bandwidth)


 FFT grid for exact exchange (Hartree Fock) 
  NGX =112; NGY =112; NGZ =112


 Radii for the augmentation spheres in the non-local exchange
 for species   1 augmentation radius   1.179 (default was   0.943)
       energy cutoff for augmentation   2080.0

 real space projection operators:
  total allocation   :        234.77 KBytes
  max/ min on nodes  :         60.55         57.03

 Maximum index for augmentation-charges in exchange          292
  SETUP_FOCK is finished

 total amount of memory used by VASP MPI-rank0   250431. kBytes
=======================================================================

   base      :      30000. kBytes
   nonlr-proj:        464. kBytes
   fftplans  :      75804. kBytes
   grid      :     133718. kBytes
   one-center:         31. kBytes
   HF        :         64. kBytes
   wavefun   :      10350. kBytes

     INWAV:  cpu time      0.0000: real time      0.0000
 Broyden mixing: mesh for mixing (old mesh)
   NGX = 75   NGY = 75   NGZ = 75
  (NGX  =300   NGY  =300   NGZ  =300)
  gives a total of 421875 points

 initial charge density was supplied:
 charge density of overlapping atoms calculated
 number of electron      11.0000000 magnetization       1.0000000
 keeping initial charge density in first step


--------------------------------------------------------------------------------------------------------


 Maximum index for non-local projection operator         1537
 Maximum index for augmentation-charges          481 (set IRDMAX)


--------------------------------------------------------------------------------------------------------


    FEWALD:  cpu time      0.0005: real time      0.0005


--------------------------------------- Iteration      1(   1)  ---------------------------------------


    POTLOK:  cpu time      1.3726: real time      1.3729
    SETDIJ:  cpu time      0.4150: real time      0.4151
    TRIAL :  cpu time      1.0962: real time      1.2873
    CORREC:  cpu time      0.0005: real time      0.0005
    --------------------------------------------
      LOOP:  cpu time      2.8965: real time      3.0879

 eigenvalue-minimisations  :    64
 total energy-change (2. order) :-0.3221380E+03  (-0.1337029E+03)
 number of electron      11.0000000 magnetization       1.0000000
 augmentation part       11.0000000 magnetization       1.0000000

 Free energy of the ion-electron system (eV)
  ---------------------------------------------------
  alpha Z        PSCENC =         0.09141600
  Ewald energy   TEWEN  =      -123.59085203
  -Hartree energ DENC   =     -1150.60996194
  -exchange      EXHF   =         0.00000000
  -V(xc)+E(xc)   XCENC  =        43.85460965
  PAW double counting   =      1228.09749605    -1705.36440958
  entropy T*S    EENTRO =        -0.02347460
  eigenvalues    EBANDS =        -2.75118169
  atomic energy  EATOM  =      1388.15832645
  ---------------------------------------------------
  free energy    TOTEN  =      -322.13803169 eV

  energy without entropy =     -322.11455708  energy(sigma->0) =     -322.12629438
  exchange ACFDT corr.  =         0.00000000  see jH, gK, PRB 81, 115126


--------------------------------------------------------------------------------------------------------




--------------------------------------- Iteration      1(   2)  ---------------------------------------


    TRIAL :  cpu time      1.4816: real time      1.4820
    CORREC:  cpu time      0.0002: real time      0.0002
    --------------------------------------------
      LOOP:  cpu time      1.4857: real time      1.4938

 eigenvalue-minimisations  :   104
 total energy-change (2. order) :-0.7113079E+02  (-0.6771941E+02)
 number of electron      11.0000000 magnetization       1.0000000
 augmentation part       11.0000000 magnetization       1.0000000

 Free energy of the ion-electron system (eV)
  ---------------------------------------------------
  alpha Z        PSCENC =         0.09141600
  Ewald energy   TEWEN  =      -123.59085203
  -Hartree energ DENC   =     -1150.60996194
  -exchange      EXHF   =         0.00000000
  -V(xc)+E(xc)   XCENC  =        43.85460965
  PAW double counting   =      1228.09749605    -1705.36440958
  entropy T*S    EENTRO =        -0.00002557
  eigenvalues    EBANDS =       -73.90542405
  atomic energy  EATOM  =      1388.15832645
  ---------------------------------------------------
  free energy    TOTEN  =      -393.26882502 eV

  energy without entropy =     -393.26879944  energy(sigma->0) =     -393.26881223
  exchange ACFDT corr.  =         0.00000000  see jH, gK, PRB 81, 115126


--------------------------------------------------------------------------------------------------------




--------------------------------------- Iteration      1(   3)  ---------------------------------------


    TRIAL :  cpu time      1.3861: real time      1.3865
    CORREC:  cpu time      0.0002: real time      0.0002
    --------------------------------------------
      LOOP:  cpu time      1.3900: real time      1.3977

 eigenvalue-minimisations  :    96
 total energy-change (2. order) :-0.1960656E+02  (-0.1959937E+02)
 number of electron      11.0000000 magnetization       1.0000000
 augmentation part       11.0000000 magnetization       1.0000000

 Free energy of the ion-electron system (eV)
  ---------------------------------------------------
  alpha Z        PSCENC =         0.09141600
  Ewald energy   TEWEN  =      -123.59085203
  -Hartree energ DENC   =     -1150.60996194
  -exchange      EXHF   =         0.00000000
  -V(xc)+E(xc)   XCENC  =        43.85460965
  PAW double counting   =      1228.09749605    -1705.36440958
  entropy T*S    EENTRO =        -0.00000488
  eigenvalues    EBANDS =       -93.51200519
  atomic energy  EATOM  =      1388.15832645
  ---------------------------------------------------
  free energy    TOTEN  =      -412.87538546 eV

  energy without entropy =     -412.87538058  energy(sigma->0) =     -412.87538302
  exchange ACFDT corr.  =         0.00000000  see jH, gK, PRB 81, 115126


--------------------------------------------------------------------------------------------------------




--------------------------------------- Iteration      1(   4)  ---------------------------------------


    TRIAL :  cpu time      1.2000: real time      1.2002
    CORREC:  cpu time      0.0002: real time      0.0002
    --------------------------------------------
      LOOP:  cpu time      1.2108: real time      1.2114

 eigenvalue-minimisations  :    80
 total energy-change (2. order) :-0.5857428E+00  (-0.5857189E+00)
 number of electron      11.0000000 magnetization       1.0000000
 augmentation part       11.0000000 magnetization       1.0000000

 Free energy of the ion-electron system (eV)
  ---------------------------------------------------
  alpha Z        PSCENC =         0.09141600
  Ewald energy   TEWEN  =      -123.59085203
  -Hartree energ DENC   =     -1150.60996194
  -exchange      EXHF   =         0.00000000
  -V(xc)+E(xc)   XCENC  =        43.85460965
  PAW double counting   =      1228.09749605    -1705.36440958
  entropy T*S    EENTRO =        -0.00000472
  eigenvalues    EBANDS =       -94.09774818
  atomic energy  EATOM  =      1388.15832645
  ---------------------------------------------------
  free energy    TOTEN  =      -413.46112829 eV

  energy without entropy =     -413.46112357  energy(sigma->0) =     -413.46112593
  exchange ACFDT corr.  =         0.00000000  see jH, gK, PRB 81, 115126


--------------------------------------------------------------------------------------------------------




--------------------------------------- Iteration      1(   5)  ---------------------------------------


    POTLOK:  cpu time      1.3412: real time      1.3417
    SETDIJ:  cpu time      0.4167: real time      0.4167
    TRIAL :  cpu time      3.1008: real time      3.1022
    CORREC:  cpu time      0.0001: real time      0.0001
    CHARGE:  cpu time      1.0856: real time      1.0859
    --------------------------------------------
      LOOP:  cpu time      5.9486: real time      5.9576

 eigenvalue-minimisations  :    64
 total energy-change (2. order) : 0.4129511E+03  (-0.6653152E+00)
 number of electron      11.0000024 magnetization       1.0000000
 augmentation part        7.4429537 magnetization      -0.0421635

 Free energy of the ion-electron system (eV)
  ---------------------------------------------------
  alpha Z        PSCENC =         0.09141600
  Ewald energy   TEWEN  =      -123.59085203
  -Hartree energ DENC   =     -1150.60996194
  -exchange      EXHF   =        35.74938402
  -V(xc)+E(xc)   XCENC  =        33.41652598
  PAW double counting   =      1238.52796594    -1335.63968687
  entropy T*S    EENTRO =        -0.00000000
  eigenvalues    EBANDS =       -86.61313436
  atomic energy  EATOM  =      1388.15832645
  ---------------------------------------------------
  free energy    TOTEN  =        -0.51001681 eV

  energy without entropy =       -0.51001681  energy(sigma->0) =       -0.51001681
  exchange ACFDT corr.  =        -0.00003305  see jH, gK, PRB 81, 115126


--------------------------------------------------------------------------------------------------------




--------------------------------------- Iteration      1(   6)  ---------------------------------------


    POTLOK:  cpu time      1.3572: real time      1.3575
    SETDIJ:  cpu time      0.4314: real time      0.4314
    TRIAL :  cpu time      2.6824: real time      2.6838
    CORREC:  cpu time      5.0087: real time      5.0105
    CHARGE:  cpu time      1.0007: real time      1.0010
    --------------------------------------------
      LOOP:  cpu time     10.4858: real time     10.4964

 eigenvalue-minimisations  :     0
 total energy-change (2. order) : 0.3239755E+00  (-0.5219726E+00)
 number of electron      11.0000023 magnetization       1.0000000
 augmentation part        7.2550712 magnetization      -0.0567615

 Free energy of the ion-electron system (eV)
  ---------------------------------------------------
  alpha Z        PSCENC =         0.09141600
  Ewald energy   TEWEN  =      -123.59085203
  -Hartree energ DENC   =     -1189.58065547
  -exchange      EXHF   =        34.56134317
  -V(xc)+E(xc)   XCENC  =        34.62175151
  PAW double counting   =      1289.82085762    -1395.64220778
  entropy T*S    EENTRO =        -0.00000000
  eigenvalues    EBANDS =       -38.62602077
  atomic energy  EATOM  =      1388.15832645
  ---------------------------------------------------
  free energy    TOTEN  =        -0.18604131 eV

  energy without entropy =       -0.18604131  energy(sigma->0) =       -0.18604131
  exchange ACFDT corr.  =        -0.00000000  see jH, gK, PRB 81, 115126


--------------------------------------------------------------------------------------------------------




--------------------------------------- Iteration      1(   7)  ---------------------------------------


    POTLOK:  cpu time      1.3599: real time      1.3601
    SETDIJ:  cpu time      0.4283: real time      0.4283
    TRIAL :  cpu time      2.6767: real time      2.6774
    CORREC:  cpu time      5.0289: real time      5.0304
    CHARGE:  cpu time      1.0054: real time      1.0057
    --------------------------------------------
      LOOP:  cpu time     10.5120: real time     10.5149

 eigenvalue-minimisations  :     0
 total energy-change (2. order) :-0.5530228E+00  (-0.2276606E-01)
 number of electron      11.0000023 magnetization       1.0000000
 augmentation part        7.2246338 magnetization      -0.0981997

 Free energy of the ion-electron system (eV)
  ---------------------------------------------------
  alpha Z        PSCENC =         0.09141600
  Ewald energy   TEWEN  =      -123.59085203
  -Hartree energ DENC   =     -1163.63342990
  -exchange      EXHF   =        33.90967578
  -V(xc)+E(xc)   XCENC  =        33.78835014
  PAW double counting   =      1271.55641981    -1369.95193966
  entropy T*S    EENTRO =        -0.00000000
  eigenvalues    EBANDS =       -71.06703074
  atomic energy  EATOM  =      1388.15832645
  ---------------------------------------------------
  free energy    TOTEN  =        -0.73906415 eV

  energy without entropy =       -0.73906415  energy(sigma->0) =       -0.73906415
  exchange ACFDT corr.  =        -0.00000000  see jH, gK, PRB 81, 115126


--------------------------------------------------------------------------------------------------------




--------------------------------------- Iteration      1(   8)  ---------------------------------------


    POTLOK:  cpu time      1.3661: real time      1.3665
    SETDIJ:  cpu time      0.4269: real time      0.4269
    TRIAL :  cpu time      2.6844: real time      2.6852
    CORREC:  cpu time      4.9794: real time      4.9808
    CHARGE:  cpu time      1.0033: real time      1.0035
    --------------------------------------------
      LOOP:  cpu time     10.4642: real time     10.4757

 eigenvalue-minimisations  :     0
 total energy-change (2. order) :-0.2297483E-01  (-0.1936905E-01)
 number of electron      11.0000023 magnetization       1.0000000
 augmentation part        7.2446817 magnetization      -0.1473376

 Free energy of the ion-electron system (eV)
  ---------------------------------------------------
  alpha Z        PSCENC =         0.09141600
  Ewald energy   TEWEN  =      -123.59085203
  -Hartree energ DENC   =     -1158.00212145
  -exchange      EXHF   =        33.77088883
  -V(xc)+E(xc)   XCENC  =        33.62640712
  PAW double counting   =      1267.09149630    -1364.36830111
  entropy T*S    EENTRO =        -0.00000000
  eigenvalues    EBANDS =       -77.53929910
  atomic energy  EATOM  =      1388.15832645
  ---------------------------------------------------
  free energy    TOTEN  =        -0.76203899 eV

  energy without entropy =       -0.76203899  energy(sigma->0) =       -0.76203899
  exchange ACFDT corr.  =        -0.00000000  see jH, gK, PRB 81, 115126


--------------------------------------------------------------------------------------------------------




--------------------------------------- Iteration      1(   9)  ---------------------------------------


    POTLOK:  cpu time      1.3559: real time      1.3561
    SETDIJ:  cpu time      0.4303: real time      0.4304
    TRIAL :  cpu time      2.6882: real time      2.6889
    CORREC:  cpu time      4.9944: real time      4.9961
    CHARGE:  cpu time      1.0019: real time      1.0022
    --------------------------------------------
      LOOP:  cpu time     10.4836: real time     10.4872

 eigenvalue-minimisations  :     0
 total energy-change (2. order) :-0.1931411E-01  (-0.1331029E-02)
 number of electron      11.0000023 magnetization       1.0000000
 augmentation part        7.2536342 magnetization      -0.1448642

 Free energy of the ion-electron system (eV)
  ---------------------------------------------------
  alpha Z        PSCENC =         0.09141600
  Ewald energy   TEWEN  =      -123.59085203
  -Hartree energ DENC   =     -1158.41854593
  -exchange      EXHF   =        33.78515874
  -V(xc)+E(xc)   XCENC  =        33.66877095
  PAW double counting   =      1267.10875948    -1365.22684134
  entropy T*S    EENTRO =        -0.00000000
  eigenvalues    EBANDS =       -76.35754542
  atomic energy  EATOM  =      1388.15832645
  ---------------------------------------------------
  free energy    TOTEN  =        -0.78135309 eV

  energy without entropy =       -0.78135309  energy(sigma->0) =       -0.78135309
  exchange ACFDT corr.  =        -0.00000000  see jH, gK, PRB 81, 115126


--------------------------------------------------------------------------------------------------------




--------------------------------------- Iteration      1(  10)  ---------------------------------------


    POTLOK:  cpu time      1.3557: real time      1.3560
    SETDIJ:  cpu time      0.4281: real time      0.4281
    TRIAL :  cpu time      2.6738: real time      2.6745
    CORREC:  cpu time      5.0087: real time      5.0099
    CHARGE:  cpu time      1.0027: real time      1.0029
    --------------------------------------------
      LOOP:  cpu time     10.4731: real time     10.4845

 eigenvalue-minimisations  :     0
 total energy-change (2. order) :-0.1329346E-02  (-0.1666958E-02)
 number of electron      11.0000023 magnetization       1.0000000
 augmentation part        7.2509806 magnetization      -0.1363096

 Free energy of the ion-electron system (eV)
  ---------------------------------------------------
  alpha Z        PSCENC =         0.09141600
  Ewald energy   TEWEN  =      -123.59085203
  -Hartree energ DENC   =     -1159.56688518
  -exchange      EXHF   =        33.81346797
  -V(xc)+E(xc)   XCENC  =        33.70624531
  PAW double counting   =      1268.53571303    -1367.00448143
  entropy T*S    EENTRO =        -0.00000000
  eigenvalues    EBANDS =       -74.92563256
  atomic energy  EATOM  =      1388.15832645
  ---------------------------------------------------
  free energy    TOTEN  =        -0.78268244 eV

  energy without entropy =       -0.78268244  energy(sigma->0) =       -0.78268244
  exchange ACFDT corr.  =        -0.00000000  see jH, gK, PRB 81, 115126


--------------------------------------------------------------------------------------------------------




--------------------------------------- Iteration      1(  11)  ---------------------------------------


    POTLOK:  cpu time      1.3523: real time      1.3526
    SETDIJ:  cpu time      0.4343: real time      0.4343
    TRIAL :  cpu time      2.6536: real time      2.6544
    CORREC:  cpu time      4.9864: real time      4.9875
    CHARGE:  cpu time      1.0018: real time      1.0021
    --------------------------------------------
      LOOP:  cpu time     10.4338: real time     10.4435

 eigenvalue-minimisations  :     0
 total energy-change (2. order) :-0.1666934E-02  (-0.1160568E-03)
 number of electron      11.0000023 magnetization       1.0000000
 augmentation part        7.2481504 magnetization      -0.1370662

 Free energy of the ion-electron system (eV)
  ---------------------------------------------------
  alpha Z        PSCENC =         0.09141600
  Ewald energy   TEWEN  =      -123.59085203
  -Hartree energ DENC   =     -1159.33282158
  -exchange      EXHF   =        33.80613800
  -V(xc)+E(xc)   XCENC  =        33.69682144
  PAW double counting   =      1270.11342972    -1368.48818911
  entropy T*S    EENTRO =        -0.00000000
  eigenvalues    EBANDS =       -75.23861827
  atomic energy  EATOM  =      1388.15832645
  ---------------------------------------------------
  free energy    TOTEN  =        -0.78434937 eV

  energy without entropy =       -0.78434937  energy(sigma->0) =       -0.78434937
  exchange ACFDT corr.  =        -0.00000000  see jH, gK, PRB 81, 115126


--------------------------------------------------------------------------------------------------------




--------------------------------------- Iteration      1(  12)  ---------------------------------------


    POTLOK:  cpu time      1.3548: real time      1.3549
    SETDIJ:  cpu time      0.4250: real time      0.4251
    TRIAL :  cpu time      2.6591: real time      2.6600
    CORREC:  cpu time      4.9716: real time      4.9728
    CHARGE:  cpu time      1.0014: real time      1.0016
    --------------------------------------------
      LOOP:  cpu time     10.4241: real time     10.4270

 eigenvalue-minimisations  :     0
 total energy-change (2. order) :-0.1163183E-03  (-0.1182118E-03)
 number of electron      11.0000023 magnetization       1.0000000
 augmentation part        7.2479029 magnetization      -0.1406686

 Free energy of the ion-electron system (eV)
  ---------------------------------------------------
  alpha Z        PSCENC =         0.09141600
  Ewald energy   TEWEN  =      -123.59085203
  -Hartree energ DENC   =     -1158.99417641
  -exchange      EXHF   =        33.79779487
  -V(xc)+E(xc)   XCENC  =        33.68565144
  PAW double counting   =      1270.12435642    -1368.38857500
  entropy T*S    EENTRO =        -0.00000000
  eigenvalues    EBANDS =       -75.66840743
  atomic energy  EATOM  =      1388.15832645
  ---------------------------------------------------
  free energy    TOTEN  =        -0.78446569 eV

  energy without entropy =       -0.78446569  energy(sigma->0) =       -0.78446569
  exchange ACFDT corr.  =        -0.00000000  see jH, gK, PRB 81, 115126


--------------------------------------------------------------------------------------------------------




--------------------------------------- Iteration      1(  13)  ---------------------------------------


    POTLOK:  cpu time      1.3462: real time      1.3465
    SETDIJ:  cpu time      0.4341: real time      0.4341
    TRIAL :  cpu time      2.6571: real time      2.6579
    CORREC:  cpu time      4.9735: real time      4.9745
    CHARGE:  cpu time      1.0003: real time      1.0005
    --------------------------------------------
      LOOP:  cpu time     10.4157: real time     10.4269

 eigenvalue-minimisations  :     0
 total energy-change (2. order) :-0.1181577E-03  (-0.1723087E-04)
 number of electron      11.0000023 magnetization       1.0000000
 augmentation part        7.2489794 magnetization      -0.1409018

 Free energy of the ion-electron system (eV)
  ---------------------------------------------------
  alpha Z        PSCENC =         0.09141600
  Ewald energy   TEWEN  =      -123.59085203
  -Hartree energ DENC   =     -1159.08453217
  -exchange      EXHF   =        33.80100169
  -V(xc)+E(xc)   XCENC  =        33.68796319
  PAW double counting   =      1270.79554191    -1369.03845209
  entropy T*S    EENTRO =        -0.00000000
  eigenvalues    EBANDS =       -75.60499681
  atomic energy  EATOM  =      1388.15832645
  ---------------------------------------------------
  free energy    TOTEN  =        -0.78458385 eV

  energy without entropy =       -0.78458385  energy(sigma->0) =       -0.78458385
  exchange ACFDT corr.  =        -0.00000000  see jH, gK, PRB 81, 115126


--------------------------------------------------------------------------------------------------------




--------------------------------------- Iteration      1(  14)  ---------------------------------------


    POTLOK:  cpu time      1.3466: real time      1.3468
    SETDIJ:  cpu time      0.4275: real time      0.4277
    TRIAL :  cpu time      2.6523: real time      2.6528
    CORREC:  cpu time      4.9547: real time      4.9561
    CHARGE:  cpu time      1.0009: real time      1.0014
    --------------------------------------------
      LOOP:  cpu time     10.3874: real time     10.3976

 eigenvalue-minimisations  :     0
 total energy-change (2. order) :-0.1717515E-04  (-0.1822501E-04)
 number of electron      11.0000023 magnetization       1.0000000
 augmentation part        7.2494749 magnetization      -0.1400077

 Free energy of the ion-electron system (eV)
  ---------------------------------------------------
  alpha Z        PSCENC =         0.09141600
  Ewald energy   TEWEN  =      -123.59085203
  -Hartree energ DENC   =     -1159.23906464
  -exchange      EXHF   =        33.80499873
  -V(xc)+E(xc)   XCENC  =        33.69287867
  PAW double counting   =      1271.00784830    -1369.29001518
  entropy T*S    EENTRO =        -0.00000000
  eigenvalues    EBANDS =       -75.42013732
  atomic energy  EATOM  =      1388.15832645
  ---------------------------------------------------
  free energy    TOTEN  =        -0.78460102 eV

  energy without entropy =       -0.78460102  energy(sigma->0) =       -0.78460102
  exchange ACFDT corr.  =        -0.00000000  see jH, gK, PRB 81, 115126


--------------------------------------------------------------------------------------------------------




--------------------------------------- Iteration      1(  15)  ---------------------------------------


    POTLOK:  cpu time      1.3222: real time      1.3226
    SETDIJ:  cpu time      0.4306: real time      0.4307
    TRIAL :  cpu time      2.6723: real time      2.6731
    CORREC:  cpu time      4.9487: real time      4.9497
    CHARGE:  cpu time      1.0031: real time      1.0034
    --------------------------------------------
      LOOP:  cpu time     10.3822: real time     10.3922

 eigenvalue-minimisations  :     0
 total energy-change (2. order) :-0.1831418E-04  (-0.5987913E-05)
 number of electron      11.0000023 magnetization       1.0000000
 augmentation part        7.2489310 magnetization      -0.1398241

 Free energy of the ion-electron system (eV)
  ---------------------------------------------------
  alpha Z        PSCENC =         0.09141600
  Ewald energy   TEWEN  =      -123.59085203
  -Hartree energ DENC   =     -1159.25805597
  -exchange      EXHF   =        33.80539381
  -V(xc)+E(xc)   XCENC  =        33.69369139
  PAW double counting   =      1271.15078745    -1369.45108926
  entropy T*S    EENTRO =        -0.00000000
  eigenvalues    EBANDS =       -75.38423719
  atomic energy  EATOM  =      1388.15832645
  ---------------------------------------------------
  free energy    TOTEN  =        -0.78461934 eV

  energy without entropy =       -0.78461934  energy(sigma->0) =       -0.78461934
  exchange ACFDT corr.  =        -0.00000000  see jH, gK, PRB 81, 115126


--------------------------------------------------------------------------------------------------------




--------------------------------------- Iteration      1(  16)  ---------------------------------------


    POTLOK:  cpu time      1.3150: real time      1.3153
    SETDIJ:  cpu time      0.4328: real time      0.4328
    TRIAL :  cpu time      2.6748: real time      2.6760
    CORREC:  cpu time      4.9370: real time      4.9376
    CHARGE:  cpu time      1.0009: real time      1.0009
    --------------------------------------------
      LOOP:  cpu time     10.3652: real time     10.3753

 eigenvalue-minimisations  :     0
 total energy-change (2. order) :-0.6009725E-05  (-0.4883620E-05)
 number of electron      11.0000023 magnetization       1.0000000
 augmentation part        7.2486992 magnetization      -0.1401101

 Free energy of the ion-electron system (eV)
  ---------------------------------------------------
  alpha Z        PSCENC =         0.09141600
  Ewald energy   TEWEN  =      -123.59085203
  -Hartree energ DENC   =     -1159.16775617
  -exchange      EXHF   =        33.80311127
  -V(xc)+E(xc)   XCENC  =        33.69087019
  PAW double counting   =      1271.13426912    -1369.41333900
  entropy T*S    EENTRO =        -0.00000000
  eigenvalues    EBANDS =       -75.49067117
  atomic energy  EATOM  =      1388.15832645
  ---------------------------------------------------
  free energy    TOTEN  =        -0.78462535 eV

  energy without entropy =       -0.78462535  energy(sigma->0) =       -0.78462535
  exchange ACFDT corr.  =        -0.00000000  see jH, gK, PRB 81, 115126


--------------------------------------------------------------------------------------------------------




--------------------------------------- Iteration      1(  17)  ---------------------------------------


    POTLOK:  cpu time      1.3089: real time      1.3090
    SETDIJ:  cpu time      0.4298: real time      0.4299
    TRIAL :  cpu time      2.6778: real time      2.6789
    CORREC:  cpu time      4.9490: real time      4.9493
    CHARGE:  cpu time      1.0012: real time      1.0012
    --------------------------------------------
      LOOP:  cpu time     10.3710: real time     10.3811

 eigenvalue-minimisations  :     0
 total energy-change (2. order) :-0.4886236E-05  (-0.1893052E-05)
 number of electron      11.0000023 magnetization       1.0000000
 augmentation part        7.2490174 magnetization      -0.1401559

 Free energy of the ion-electron system (eV)
  ---------------------------------------------------
  alpha Z        PSCENC =         0.09141600
  Ewald energy   TEWEN  =      -123.59085203
  -Hartree energ DENC   =     -1159.13013766
  -exchange      EXHF   =        33.80227102
  -V(xc)+E(xc)   XCENC  =        33.68973862
  PAW double counting   =      1271.16669805    -1369.43486975
  entropy T*S    EENTRO =        -0.00000000
  eigenvalues    EBANDS =       -75.53722093
  atomic energy  EATOM  =      1388.15832645
  ---------------------------------------------------
  free energy    TOTEN  =        -0.78463023 eV

  energy without entropy =       -0.78463023  energy(sigma->0) =       -0.78463023
  exchange ACFDT corr.  =        -0.00000000  see jH, gK, PRB 81, 115126


--------------------------------------------------------------------------------------------------------




--------------------------------------- Iteration      1(  18)  ---------------------------------------


    POTLOK:  cpu time      1.3072: real time      1.3073
    SETDIJ:  cpu time      0.4281: real time      0.4281
    TRIAL :  cpu time      2.6698: real time      2.6700
    CORREC:  cpu time      4.9352: real time      4.9355
    CHARGE:  cpu time      1.0020: real time      1.0021
    --------------------------------------------
      LOOP:  cpu time     10.3471: real time     10.3556

 eigenvalue-minimisations  :     0
 total energy-change (2. order) :-0.1871039E-05  (-0.6041817E-06)
 number of electron      11.0000023 magnetization       1.0000000
 augmentation part        7.2491327 magnetization      -0.1400543

 Free energy of the ion-electron system (eV)
  ---------------------------------------------------
  alpha Z        PSCENC =         0.09141600
  Ewald energy   TEWEN  =      -123.59085203
  -Hartree energ DENC   =     -1159.17062867
  -exchange      EXHF   =        33.80333049
  -V(xc)+E(xc)   XCENC  =        33.69106683
  PAW double counting   =      1271.21418102    -1369.49355032
  entropy T*S    EENTRO =        -0.00000000
  eigenvalues    EBANDS =       -75.48792189
  atomic energy  EATOM  =      1388.15832645
  ---------------------------------------------------
  free energy    TOTEN  =        -0.78463210 eV

  energy without entropy =       -0.78463210  energy(sigma->0) =       -0.78463210
  exchange ACFDT corr.  =        -0.00000000  see jH, gK, PRB 81, 115126


--------------------------------------------------------------------------------------------------------




--------------------------------------- Iteration      1(  19)  ---------------------------------------


    POTLOK:  cpu time      1.3073: real time      1.3074
    SETDIJ:  cpu time      0.4349: real time      0.4349
    TRIAL :  cpu time      2.6827: real time      2.6828
    CORREC:  cpu time      4.9482: real time      4.9485
    EDDIAG:  cpu time      2.3106: real time      2.3107
    CHARGE:  cpu time      1.0009: real time      1.0010
    --------------------------------------------
      LOOP:  cpu time     12.6899: real time     12.6986

 eigenvalue-minimisations  :     0
 total energy-change (2. order) :-0.6133182E-06  (-0.3009147E-06)
 number of electron      11.0000023 magnetization       1.0000000
 augmentation part        7.2490241 magnetization      -0.1400014

 Free energy of the ion-electron system (eV)
  ---------------------------------------------------
  alpha Z        PSCENC =         0.09141600
  Ewald energy   TEWEN  =      -123.59085203
  -Hartree energ DENC   =     -1159.18416655
  -exchange      EXHF   =        33.80326926
  -V(xc)+E(xc)   XCENC  =        33.69150439
  PAW double counting   =      1271.20612839    -1369.48950313
  entropy T*S    EENTRO =        -0.00000000
  eigenvalues    EBANDS =       -75.47115995
  atomic energy  EATOM  =      1388.15832645
  ---------------------------------------------------
  free energy    TOTEN  =        -0.78463272 eV

  energy without entropy =       -0.78463272  energy(sigma->0) =       -0.78463272
  exchange ACFDT corr.  =        -0.00000000  see jH, gK, PRB 81, 115126


--------------------------------------------------------------------------------------------------------


  average scaling for gradient   0.9621


 average (electrostatic) potential at core
  the test charge radii are     0.9430
  (the norm of the test charge is              1.0000)
       1 -65.3004



 E-fermi :  -5.3036     XC(G=0):  -0.0775     alpha+bet : -0.0198

 Fermi energy:        -5.3036420362

 spin component 1

 k-point     1 :       0.0000    0.0000    0.0000
  band No.  band energies     occupation 
      1      -7.0431      1.00000
      2      -7.0431      1.00000
      3      -7.0431      1.00000
      4      -7.0430      1.00000
      5      -7.0430      1.00000
      6      -5.5529      1.00000
      7      -0.4045      0.00000
      8      -0.4045      0.00000
      9      -0.4045      0.00000
     10      -0.0266      0.00000
     11       0.3366      0.00000
     12       0.3718      0.00000
     13       0.3719      0.00000
     14       0.4272      0.00000
     15       0.4273      0.00000
     16       0.4273      0.00000
 Fermi energy:        -5.3036420362

 spin component 2

 k-point     1 :       0.0000    0.0000    0.0000
  band No.  band energies     occupation 
      1      -6.9485      1.00000
      2      -6.9485      1.00000
      3      -6.9485      1.00000
      4      -6.9485      1.00000
      5      -6.9485      1.00000
      6      -2.8108      0.00000
      7       0.0321      0.00000
      8       0.2570      0.00000
      9       0.2573      0.00000
     10       0.2575      0.00000
     11       0.3924      0.00000
     12       0.3924      0.00000
     13       0.4584      0.00000
     14       0.5313      0.00000
     15       0.5328      0.00000
     16       0.5329      0.00000


--------------------------------------------------------------------------------------------------------


 soft charge-density along one line, spin component           1
         0         1         2         3         4         5         6         7         8         9
 total charge-density along one line

 soft charge-density along one line, spin component           2
         0         1         2         3         4         5         6         7         8         9
 total charge-density along one line

 pseudopotential strength for first ion, spin component:           1
 -6.393   0.000   0.000   0.000  -0.000  -2.394  -0.000  -0.000
  0.000  -6.393  -0.000   0.000   0.000  -0.000  -2.394   0.000
  0.000  -0.000  -6.393   0.000  -0.000  -0.000   0.000  -2.394
  0.000   0.000   0.000  -6.393   0.000  -0.000  -0.000  -0.000
 -0.000   0.000  -0.000   0.000  -6.393   0.000  -0.000   0.000
 -2.394  -0.000  -0.000  -0.000   0.000   8.879   0.000   0.000
 -0.000  -2.394   0.000  -0.000  -0.000   0.000   8.879   0.000
 -0.000   0.000  -2.394  -0.000   0.000   0.000   0.000   8.879
 -0.000  -0.000  -0.000  -2.394  -0.000   0.000   0.000   0.000
  0.000  -0.000   0.000  -0.000  -2.394  -0.000   0.000  -0.000
 -0.000  -0.000   0.000  -0.000  -0.000   0.000  -0.000  -0.000
 -0.000  -0.000   0.000  -0.000  -0.000   0.000  -0.000   0.000
 -0.000   0.000   0.000  -0.000   0.000  -0.000  -0.000   0.000
 -0.000  -0.000   0.000  -0.000  -0.000   0.000   0.000   0.000
 -0.000  -0.000   0.000   0.000  -0.000   0.000   0.000  -0.000
 -0.000   0.000   0.000  -0.000   0.000  -0.000   0.000   0.000
 -0.000  -0.000   0.000  -0.000   0.000   0.000   0.000   0.000
 -0.000  -0.000   0.000   0.000  -0.000   0.000   0.000  -0.000
 pseudopotential strength for first ion, spin component:           2
 -6.432   0.000   0.000   0.000  -0.000  -2.365  -0.000  -0.000
  0.000  -6.432   0.000   0.000   0.000  -0.000  -2.365  -0.000
  0.000   0.000  -6.432   0.000  -0.000  -0.000  -0.000  -2.365
  0.000   0.000   0.000  -6.432   0.000  -0.000  -0.000  -0.000
 -0.000   0.000  -0.000   0.000  -6.432   0.000  -0.000   0.000
 -2.365  -0.000  -0.000  -0.000   0.000   8.825   0.000   0.000
 -0.000  -2.365  -0.000  -0.000  -0.000   0.000   8.825   0.000
 -0.000  -0.000  -2.365  -0.000   0.000   0.000   0.000   8.825
 -0.000  -0.000  -0.000  -2.365  -0.000   0.000   0.000   0.000
  0.000  -0.000   0.000  -0.000  -2.365  -0.000  -0.000  -0.000
 -0.000  -0.000  -0.000  -0.000  -0.000   0.000  -0.000  -0.000
 -0.000  -0.000  -0.000  -0.000  -0.000   0.000  -0.000   0.000
 -0.000   0.000   0.000   0.000   0.000  -0.000  -0.000   0.000
  0.000  -0.000   0.000  -0.000  -0.000   0.000   0.000   0.000
 -0.000   0.000   0.000   0.000  -0.000   0.000   0.000  -0.000
 -0.000   0.000   0.000  -0.000   0.000  -0.000   0.000   0.000
 -0.000  -0.000   0.000  -0.000   0.000   0.000   0.000   0.000
 -0.000  -0.000   0.000   0.000  -0.000   0.000   0.000  -0.000
 total augmentation occupancy for first ion, spin component:           1
  2.011   0.000   0.000   0.000  -0.000  -0.002   0.000   0.000   0.000   0.000  -0.000   0.000   0.000   0.000   0.000   0.000
  0.000   2.011  -0.000   0.000  -0.000   0.000  -0.002   0.000   0.000   0.000  -0.000   0.000   0.000   0.000   0.000   0.000
  0.000  -0.000   2.011   0.000   0.000   0.000   0.000  -0.002   0.000  -0.000   0.000   0.000   0.000   0.000   0.000   0.000
  0.000   0.000   0.000   2.011  -0.000   0.000   0.000   0.000  -0.002  -0.000  -0.000  -0.000   0.000   0.000   0.000   0.000
 -0.000  -0.000   0.000  -0.000   2.011  -0.000   0.000  -0.000  -0.000  -0.002   0.000   0.000   0.000   0.000   0.000   0.000
 -0.002   0.000   0.000   0.000  -0.000   0.000   0.000   0.000   0.000  -0.000  -0.000   0.000   0.000   0.000   0.000   0.000
  0.000  -0.002   0.000   0.000   0.000   0.000   0.000  -0.000   0.000   0.000  -0.000   0.000   0.000   0.000   0.000   0.000
  0.000   0.000  -0.002   0.000  -0.000   0.000  -0.000   0.000   0.000   0.000  -0.000   0.000   0.000   0.000   0.000   0.000
  0.000   0.000   0.000  -0.002  -0.000   0.000   0.000   0.000   0.000   0.000  -0.000  -0.000   0.000   0.000   0.000   0.000
  0.000   0.000  -0.000  -0.000  -0.002  -0.000   0.000   0.000   0.000   0.000   0.000   0.000   0.000   0.000   0.000   0.000
 -0.000  -0.000   0.000  -0.000   0.000  -0.000  -0.000   0.000  -0.000   0.000   1.377  -0.128   0.000   0.000   0.000   0.000
  0.000   0.000   0.000  -0.000   0.000   0.000   0.000   0.000  -0.000   0.000  -0.128   0.012   0.000   0.000   0.000   0.000
  0.000   0.000   0.000   0.000   0.000   0.000   0.000   0.000   0.000   0.000   0.000   0.000   0.000  -0.000  -0.000  -0.000
  0.000   0.000   0.000   0.000   0.000   0.000   0.000   0.000   0.000   0.000   0.000   0.000  -0.000   0.000   0.000  -0.000
  0.000   0.000   0.000   0.000   0.000   0.000   0.000   0.000   0.000   0.000   0.000   0.000  -0.000   0.000   0.000  -0.000
  0.000   0.000   0.000   0.000   0.000   0.000   0.000   0.000   0.000   0.000   0.000   0.000  -0.000  -0.000  -0.000   0.000
  0.000   0.000   0.000   0.000   0.000   0.000   0.000   0.000   0.000   0.000   0.000   0.000   0.000  -0.000   0.000  -0.000
  0.000   0.000   0.000   0.000   0.000   0.000   0.000   0.000   0.000   0.000   0.000   0.000   0.000   0.000  -0.000   0.000
 total augmentation occupancy for first ion, spin component:           2
  0.007   0.000   0.000   0.000   0.000   0.018   0.000  -0.000   0.000   0.000   0.000   0.000   0.000   0.000   0.000   0.000
  0.000   0.007  -0.000   0.000   0.000   0.000   0.018   0.000   0.000   0.000  -0.000  -0.000   0.000   0.000   0.000   0.000
  0.000  -0.000   0.007  -0.000   0.000   0.000  -0.000   0.018  -0.000   0.000   0.000   0.000   0.000   0.000   0.000   0.000
  0.000   0.000  -0.000   0.007  -0.000   0.000   0.000  -0.000   0.018   0.000   0.000   0.000   0.000   0.000   0.000   0.000
  0.000   0.000   0.000  -0.000   0.007   0.000   0.000   0.000   0.000   0.018   0.000   0.000   0.000   0.000   0.000   0.000
  0.018   0.000   0.000   0.000   0.000  -0.000   0.000   0.000   0.000  -0.000  -0.000  -0.000   0.000   0.000   0.000   0.000
  0.000   0.018  -0.000   0.000   0.000   0.000  -0.000  -0.000   0.000  -0.000  -0.000  -0.000   0.000   0.000   0.000   0.000
 -0.000   0.000   0.018  -0.000   0.000   0.000  -0.000  -0.000  -0.000  -0.000   0.000   0.000   0.000   0.000   0.000   0.000
  0.000   0.000  -0.000   0.018   0.000   0.000   0.000  -0.000  -0.000  -0.000  -0.000  -0.000   0.000   0.000   0.000   0.000
  0.000   0.000   0.000   0.000   0.018  -0.000  -0.000  -0.000  -0.000  -0.000   0.000   0.000   0.000   0.000   0.000   0.000
  0.000  -0.000   0.000   0.000   0.000  -0.000  -0.000   0.000   0.000   0.000   1.377  -0.128   0.000   0.000   0.000   0.000
  0.000  -0.000   0.000   0.000   0.000  -0.000  -0.000  -0.000  -0.000   0.000  -0.128   0.012   0.000   0.000   0.000   0.000
  0.000   0.000   0.000   0.000   0.000   0.000   0.000   0.000   0.000   0.000   0.000   0.000   0.000   0.000   0.000   0.000
  0.000   0.000   0.000   0.000   0.000   0.000   0.000   0.000   0.000   0.000   0.000   0.000   0.000   0.000   0.000   0.000
  0.000   0.000   0.000   0.000   0.000   0.000   0.000   0.000   0.000   0.000   0.000   0.000   0.000   0.000   0.000   0.000
  0.000   0.000   0.000   0.000   0.000   0.000   0.000   0.000   0.000   0.000   0.000   0.000   0.000   0.000   0.000  -0.000
  0.000   0.000   0.000   0.000   0.000   0.000   0.000   0.000   0.000   0.000   0.000   0.000   0.000   0.000  -0.000   0.000
  0.000   0.000   0.000   0.000   0.000   0.000   0.000   0.000   0.000   0.000   0.000   0.000   0.000   0.000   0.000  -0.000


------------------------ aborting loop because EDIFF is reached ----------------------------------------


    FORLOC:  cpu time      0.0098: real time      0.0098
    FORHF :  cpu time      0.9515: real time      0.9516
    FORNL :  cpu time      0.4129: real time      0.4135
    FORCOR:  cpu time      1.6252: real time      1.6253
    OFIELD:  cpu time      0.0078: real time      0.0078
    FORVDW:  cpu time      0.0053: real time      0.1779

 VOLUME and BASIS-vectors are now :
 -----------------------------------------------------------------------------
  energy-cutoff  :      520.00
  volume of cell :     8000.00
      direct lattice vectors                 reciprocal lattice vectors
    20.000000000  0.000000000  0.000000000     0.050000000  0.000000000  0.000000000
     0.000000000 20.000000000  0.000000000     0.000000000  0.050000000  0.000000000
     0.000000000  0.000000000 20.000000000     0.000000000  0.000000000  0.050000000

  length of vectors
    20.000000000 20.000000000 20.000000000     0.050000000  0.050000000  0.050000000


 FORCES acting on ions:
    Electron-Ion                     Ewald-Force                    Non-Local-Force
 -----------------------------------------------------------------------------------------------
   0.262E-12 0.470E-10 -.208E-10   0.106E-16 -.303E-16 -.392E-16   0.000E+00 0.000E+00 -.318E-21
 -----------------------------------------------------------------------------------------------
   0.315E-12 0.478E-10 -.220E-10   0.106E-16 -.303E-16 -.392E-16   0.000E+00 0.000E+00 -.318E-21


 POSITION                                       TOTAL-FORCE (eV/Angst)
 -----------------------------------------------------------------------------------
      9.00000      9.20000     12.00000         0.000000      0.000000     -0.000000
 -----------------------------------------------------------------------------------
    total drift:                                0.000000      0.000000     -0.000000


--------------------------------------------------------------------------------------------------------



  FREE ENERGIE OF THE ION-ELECTRON SYSTEM (eV)
  ---------------------------------------------------
  free  energy   TOTEN  =        -0.78464559 eV

  energy  without entropy=       -0.78464559  energy(sigma->0) =       -0.78464559



--------------------------------------------------------------------------------------------------------


    POTLOK:  cpu time      1.7370: real time      1.7371


--------------------------------------------------------------------------------------------------------


     LOOP+:  cpu time    165.9391: real time    166.4542
    4ORBIT:  cpu time      0.0000: real time      0.0000

 total amount of memory used by VASP MPI-rank0   457932. kBytes
=======================================================================

   base      :      30000. kBytes
   nonlr-proj:        527. kBytes
   fftplans  :      75804. kBytes
   grid      :     133718. kBytes
   one-center:         31. kBytes
   HF        :         64. kBytes
   wavefun   :      10350. kBytes
   fock_wrk  :     207438. kBytes

  
  
 General timing and accounting informations for this job:
 ========================================================
  
                  Total CPU time used (sec):      173.982
                            User time (sec):      168.338
                          System time (sec):        5.644
                         Elapsed time (sec):      175.707
  
                   Maximum memory used (kb):      595044.
                   Average memory used (kb):          N/A
  
                          Minor page faults:      1220268
                          Major page faults:           55
                 Voluntary context switches:         2447
