 vasp.6.4.0 14Feb23 (build Jul 14 2023 13:46:40) complex                        
  
 executed on             LinuxIFC date 2023.07.16  13:48:50
 running   64 mpi-ranks, with    1 threads/rank, on    2 nodes
 distrk:  each k-point on   64 cores,    1 groups
 distr:  one band on NCORE=   1 cores,   64 groups


--------------------------------------------------------------------------------------------------------


 INCAR:
   SYSTEM = MgO-rocksalt
   ISMEAR = 0
   SIGMA = 0.05
   EDIFF = 1E-6
   ALGO = ALL
   ISTART = 0
   IBRION = -1
   NSW = 0
   ISYM = 2
   GGA = PE
   IVDW = 11
   ENCUT = 520
   PREC = Accurate
   LASPH = .TRUE.
   LREAL = Auto
   ISPIN = 1
   NELM = 200
   NELMIN = 8
   NCORE = 1
   KPAR = 1
   LWAVE = .FALSE.
   LCHARG = .FALSE.

 POTCAR:    PAW_PBE Au 04Oct2007                  
 POTCAR:    PAW_PBE Au 04Oct2007                  
   SHA256 =  d0044ae04e2bdce24051b198fc5c053d722a5bc6fe3c3b100514a13fc5d2db88 Au/POTCAR             
   COPYR  = (c) Copyright 04Oct2007 Georg Kresse                                                    
   COPYR  = This file is part of the software VASP. Any use, copying, and all other rights are regul
   COPYR  = If you do not have a valid VASP license, you may not use, copy or distribute this file. 
   VRHFIN =Au: s1d10                                                                                
   LEXCH  = PE                                                                                      
   EATOM  =   926.0867 eV,   68.0654 Ry                                                             
                                                                                                    
   TITEL  = PAW_PBE Au 04Oct2007                                                                    
   LULTRA =        F    use ultrasoft PP ?                                                          
   IUNSCR =        1    unscreen: 0-lin 1-nonlin 2-no                                               
   RPACOR =    2.330    partial core radius                                                         
   POMASS =  196.966; ZVAL   =   11.000    mass and valenz                                          
   RCORE  =    2.500    outmost cutoff radius                                                       
   RWIGS  =    2.840; RWIGS  =    1.503    wigner-seitz radius (au A)                               
   ENMAX  =  229.943; ENMIN  =  172.457 eV                                                          
   ICORE  =        3    local potential                                                             
   LCOR   =        T    correct aug charges                                                         
   LPAW   =        T    paw PP                                                                      
   EAUG   =  356.670                                                                                
   DEXC   =    0.000                                                                                
   RMAX   =    2.562    core radius for proj-oper                                                   
   RAUG   =    1.300    factor for augmentation sphere                                              
   RDEP   =    2.598    radius for radial grids                                                     
   RDEPT  =    2.193    core radius for aug-charge                                                  
                                                                                                    
   Atomic configuration                                                                             
   16 entries                                                                                       
     n  l   j            E        occ.                                                              
     1  0  0.50    -80748.5001   2.0000                                                             
     2  0  0.50    -14244.7466   2.0000                                                             
     2  1  1.50    -12310.9591   6.0000                                                             
     3  0  0.50     -3362.1768   2.0000                                                             
     3  1  1.50     -2801.5463   6.0000                                                             
     3  2  2.50     -2203.8206  10.0000                                                             
     4  0  0.50      -729.8168   2.0000                                                             
     4  1  1.50      -546.0527   6.0000                                                             
     4  2  2.50      -325.7302  10.0000                                                             
     4  3  3.50       -81.1472  14.0000                                                             
     5  0  0.50      -108.3201   2.0000                                                             
     5  1  1.50       -59.7479   6.0000                                                             
     5  2  2.50        -6.8783  10.0000                                                             
     6  0  0.50        -5.7602   1.0000                                                             
     6  1  1.50        -6.8029   0.0000                                                             
     5  3  2.50        -1.3606   0.0000                                                             
   Description                                                                                      
     l       E           TYP  RCUT    TYP  RCUT                                                     
     2     -6.8782861     23  2.500                                                                 
     2     -8.2388687     23  2.500                                                                 
     0     -5.7601759     23  2.500                                                                 
     0     -0.8493231     23  2.500                                                                 
     1     -2.7211652     23  2.500                                                                 
     1     27.2116520     23  2.500                                                                 
     3     -1.3605826     23  2.500                                                                 
  local pseudopotential read in
  partial core-charges read in
  partial kinetic energy density read in
  atomic valenz-charges read in
  non local Contribution for L=           2  read in
    real space projection operators read in
  non local Contribution for L=           2  read in
    real space projection operators read in
  non local Contribution for L=           0  read in
    real space projection operators read in
  non local Contribution for L=           0  read in
    real space projection operators read in
  non local Contribution for L=           1  read in
    real space projection operators read in
  non local Contribution for L=           1  read in
    real space projection operators read in
    PAW grid and wavefunctions read in
 
   number of l-projection  operators is LMAX  =           6
   number of lm-projection operators is LMMAX =          18
 
 -----------------------------------------------------------------------------
|                                                                             |
|               ----> ADVICE to this user running VASP <----                  |
|                                                                             |
|     You have a (more or less) 'small supercell' and for smaller cells       |
|     it is recommended to use the reciprocal-space projection scheme!        |
|     The real-space optimization is not efficient for small cells and it     |
|     is also less accurate ...                                               |
|     Therefore, set LREAL=.FALSE. in the INCAR file.                         |
|                                                                             |
 -----------------------------------------------------------------------------

 Optimization of the real space projectors (new method)

 maximal supplied QI-value         = 15.12
 optimisation between [QCUT,QGAM] = [ 11.64, 23.28] = [ 37.95,151.78] Ry 
 Optimized for a Real-space Cutoff    1.49 Angstroem

   l    n(q)    QCUT    max X(q) W(low)/X(q) W(high)/X(q)  e(spline) 
   2      9    11.641    60.898    0.24E-03    0.10E-03    0.19E-06
   2      9    11.641    58.894    0.25E-03    0.10E-03    0.19E-06
   0     10    11.641   109.617    0.73E-04    0.33E-04    0.11E-06
   0     10    11.641    75.026    0.71E-04    0.32E-04    0.11E-06
   1     10    11.641    16.344    0.27E-04    0.97E-04    0.16E-06
   1     10    11.641    10.160    0.23E-04    0.77E-04    0.13E-06
  PAW_PBE Au 04Oct2007                  :
 energy of atom  1       EATOM= -926.0867
 kinetic energy error for atom=    0.0034 (will be added to EATOM!!)
 
 
 POSCAR: Au
  positions in direct lattice
  velocities in cartesian coordinates
 exchange correlation table for  LEXCH =        8
   RHO(1)=    0.500       N(1)  =     2000
   RHO(2)=  100.500       N(2)  =     4000
 


--------------------------------------------------------------------------------------------------------


 ion  position               nearest neighbor table
   1  0.520  0.407  0.503-   5 2.75   3 2.75   7 2.75   2 2.75
   2  0.414  0.477  0.451-   3 2.68   8 2.72   1 2.75   6 2.84   7 3.06
   3  0.439  0.485  0.583-   2 2.68   4 2.72   1 2.75   6 2.84   5 3.06
   4  0.504  0.595  0.629-   6 2.65   5 2.72   3 2.72
   5  0.586  0.517  0.553-   7 2.69   4 2.72   1 2.75   6 2.84   3 3.06
   6  0.478  0.594  0.500-   4 2.65   8 2.65   7 2.84   2 2.84   3 2.84   5 2.84
   7  0.560  0.509  0.421-   5 2.69   8 2.72   1 2.75   6 2.84   2 3.06
   8  0.455  0.579  0.370-   6 2.65   7 2.72   2 2.72
 
  LATTYP: Found a simple cubic cell.
 ALAT       =    20.0000000000
  
  Lattice vectors:
  
 A1 = (  20.0000000000,   0.0000000000,   0.0000000000)
 A2 = (   0.0000000000,  20.0000000000,   0.0000000000)
 A3 = (   0.0000000000,   0.0000000000,  20.0000000000)


Analysis of symmetry for initial positions (statically):
=====================================================================
 Subroutine PRICEL returns:
 Original cell was already a primitive cell.
 

 Routine SETGRP: Setting up the symmetry group for a 
 simple cubic supercell.


 Subroutine GETGRP returns: Found  1 space group operations
 (whereof  1 operations were pure point group operations)
 out of a pool of 48 trial point group operations.


The static configuration has the point symmetry C_1 .


Analysis of symmetry for dynamics (positions and initial velocities):
=====================================================================
 Subroutine PRICEL returns:
 Original cell was already a primitive cell.
 

 Routine SETGRP: Setting up the symmetry group for a 
 simple cubic supercell.


 Subroutine GETGRP returns: Found  1 space group operations
 (whereof  1 operations were pure point group operations)
 out of a pool of 48 trial point group operations.


The dynamic configuration has the point symmetry C_1 .


 Subroutine INISYM returns: Found  1 space group operations
 (whereof  1 operations are pure point group operations),
 and found     1 'primitive' translations


----------------------------------------------------------------------------------------

                                     Primitive cell                                     

  volume of cell :    8000.0000

  direct lattice vectors                    reciprocal lattice vectors
    20.000000000  0.000000000  0.000000000     0.050000000  0.000000000  0.000000000
     0.000000000 20.000000000  0.000000000     0.000000000  0.050000000  0.000000000
     0.000000000  0.000000000 20.000000000     0.000000000  0.000000000  0.050000000

  length of vectors
    20.000000000 20.000000000 20.000000000     0.050000000  0.050000000  0.050000000

  position of ions in fractional coordinates (direct lattice)
     0.519773028  0.407131037  0.503490243
     0.413738758  0.477044619  0.450938876
     0.438934999  0.485178296  0.582550389
     0.504412567  0.594826287  0.629496384
     0.585532661  0.517331468  0.552543605
     0.478077796  0.593585837  0.499866133
     0.560283540  0.509211146  0.420924117
     0.454820405  0.578838963  0.370464440

  ion indices of the primitive-cell ions
   primitive index   ion index
                 1           1
                 2           2
                 3           3
                 4           4
                 5           5
                 6           6
                 7           7
                 8           8

----------------------------------------------------------------------------------------

 
 
 KPOINTS: KPOINTS created by Atomic Simulation Env

Automatic generation of k-mesh.
 Grid dimensions read from file:
 generate k-points for:    1    1    1

 Generating k-lattice:

  Cartesian coordinates                     Fractional coordinates (reciprocal lattice)
     0.050000000  0.000000000  0.000000000     1.000000000  0.000000000  0.000000000
     0.000000000  0.050000000  0.000000000     0.000000000  1.000000000  0.000000000
     0.000000000  0.000000000  0.050000000     0.000000000  0.000000000  1.000000000

  Length of vectors
     0.050000000  0.050000000  0.050000000

  Shift w.r.t. Gamma in fractional coordinates (k-lattice)
     0.000000000  0.000000000  0.000000000

 
 Subroutine IBZKPT returns following result:
 ===========================================
 
 Found      1 irreducible k-points:
 
 Following reciprocal coordinates:
            Coordinates               Weight
  0.000000  0.000000  0.000000      1.000000
 
 Following cartesian coordinates:
            Coordinates               Weight
  0.000000  0.000000  0.000000      1.000000
 


--------------------------------------------------------------------------------------------------------




 Dimension of arrays:
   k-points           NKPTS =      1   k-points in BZ     NKDIM =      1   number of bands    NBANDS=     64
   number of dos      NEDOS =    301   number of ions     NIONS =      8
   non local maximal  LDIM  =      6   non local SUM 2l+1 LMDIM =     18
   total plane-waves  NPLWV = ******
   max r-space proj   IRMAX =   5885   max aug-charges    IRDMAX=  25995
   dimension x,y,z NGX =   150 NGY =  150 NGZ =  150
   dimension x,y,z NGXF=   300 NGYF=  300 NGZF=  300
   support grid    NGXF=   300 NGYF=  300 NGZF=  300
   ions per type =               8
   NGX,Y,Z   is equivalent  to a cutoff of  12.47, 12.47, 12.47 a.u.
   NGXF,Y,Z  is equivalent  to a cutoff of  24.94, 24.94, 24.94 a.u.

 SYSTEM =  MgO-rocksalt                            
 POSCAR =  Au                                      

 Startparameter for this run:
   NWRITE =      2    write-flag & timer
   PREC   = accura    normal or accurate (medium, high low for compatibility)
   ISTART =      0    job   : 0-new  1-cont  2-samecut
   ICHARG =      2    charge: 1-file 2-atom 10-const
   ISPIN  =      1    spin polarized calculation?
   LNONCOLLINEAR =      F non collinear calculations
   LSORBIT =      F    spin-orbit coupling
   INIWAV =      1    electr: 0-lowe 1-rand  2-diag
   LASPH  =      T    aspherical Exc in radial PAW
 Electronic Relaxation 1
   ENCUT  =  520.0 eV  38.22 Ry    6.18 a.u.  37.19 37.19 37.19*2*pi/ulx,y,z
   ENINI  =  520.0     initial cutoff
   ENAUG  =  356.7 eV  augmentation charge cutoff
   NELM   =    200;   NELMIN=  8; NELMDL= -5     # of ELM steps 
   EDIFF  = 0.1E-05   stopping-criterion for ELM
   LREAL  =      T    real-space projection
   NLSPLINE    = F    spline interpolate recip. space projectors
   LCOMPAT=      F    compatible to vasp.4.4
   GGA_COMPAT  = T    GGA compatible to vasp.4.4-vasp.4.6
   LMAXPAW     = -100 max onsite density
   LMAXMIX     =    2 max onsite mixed and CHGCAR
   VOSKOWN=      0    Vosko Wilk Nusair interpolation
   ROPT   =   -0.00025
 Ionic relaxation
   EDIFFG = 0.1E-04   stopping-criterion for IOM
   NSW    =      0    number of steps for IOM
   NBLOCK =      1;   KBLOCK =      1    inner block; outer block 
   IBRION =     -1    ionic relax: 0-MD 1-quasi-New 2-CG
   NFREE  =      0    steps in history (QN), initial steepest desc. (CG)
   ISIF   =      2    stress and relaxation
   IWAVPR =     10    prediction:  0-non 1-charg 2-wave 3-comb
   ISYM   =      2    0-nonsym 1-usesym 2-fastsym
   LCORR  =      T    Harris-Foulkes like correction to forces

   POTIM  = 0.5000    time-step for ionic-motion
   TEIN   =    0.0    initial temperature
   TEBEG  =    0.0;   TEEND  =   0.0 temperature during run
   SMASS  =  -3.00    Nose mass-parameter (am)
   estimated Nose-frequenzy (Omega)   =  0.10E-29 period in steps = 0.13E+47 mass=  -0.914E-26a.u.
   SCALEE = 1.0000    scale energy and forces
   NPACO  =    256;   APACO  = 10.0  distance and # of slots for P.C.
   PSTRESS=    0.0 pullay stress

  Mass of Ions in am
   POMASS = 196.97
  Ionic Valenz
   ZVAL   =  11.00
  Atomic Wigner-Seitz radii
   RWIGS  =  -1.00
  virtual crystal weights 
   VCA    =   1.00
   NELECT =      88.0000    total number of electrons
   NUPDOWN=      -1.0000    fix difference up-down

 DOS related values:
   EMIN   =  10.00;   EMAX   =-10.00  energy-range for DOS
   EFERMI =   0.00;   METHOD = LEGACY      
   ISMEAR =     0;   SIGMA  =   0.05  broadening in eV -4-tet -1-fermi 0-gaus

 Electronic relaxation 2 (details)
   IALGO  =     58    algorithm
   LDIAG  =      T    sub-space diagonalisation (order eigenvalues)
   LSUBROT=      F    optimize rotation matrix (better conditioning)
   TURBO    =      0    0=normal 1=particle mesh
   IRESTART =      0    0=no restart 2=restart with 2 vectors
   NREBOOT  =      0    no. of reboots
   NMIN     =      0    reboot dimension
   EREF     =   0.00    reference energy to select bands
   IMIX   =      4    mixing-type and parameters
     AMIX     =   0.40;   BMIX     =  1.00
     AMIX_MAG =   1.60;   BMIX_MAG =  1.00
     AMIN     =   0.10
     WC   =   100.;   INIMIX=   1;  MIXPRE=   1;  MAXMIX= -45

 Intra band minimization:
   WEIMIN = 0.0000     energy-eigenvalue tresh-hold
   EBREAK =  0.39E-08  absolut break condition
   DEPER  =   0.30     relativ break condition  

   TIME   =   0.40     timestep for ELM

  volume/ion in A,a.u.               =    1000.00      6748.33
  Fermi-wavevector in a.u.,A,eV,Ry     =   0.364087  0.688026  1.803584  0.132560
  Thomas-Fermi vector in A             =   1.286639
 
 Write flags
   LWAVE        =      F    write WAVECAR
   LDOWNSAMPLE  =      F    k-point downsampling of WAVECAR
   LCHARG       =      F    write CHGCAR
   LVTOT        =      F    write LOCPOT, total local potential
   LVHAR        =      F    write LOCPOT, Hartree potential only
   LELF         =      F    write electronic localiz. function (ELF)
   LORBIT       =      0    0 simple, 1 ext, 2 COOP (PROOUT), +10 PAW based schemes


 Dipole corrections
   LMONO  =      F    monopole corrections only (constant potential shift)
   LDIPOL =      F    correct potential (dipole corrections)
   IDIPOL =      0    1-x, 2-y, 3-z, 4-all directions 
   EPSILON=  1.0000000 bulk dielectric constant

 Exchange correlation treatment:
   GGA     =    PE    GGA type
   LEXCH   =     8    internal setting for exchange type
   LIBXC   =     F    Libxc                    
   VOSKOWN =     0    Vosko Wilk Nusair interpolation
   LHFCALC =     F    Hartree Fock is set to
   LHFONE  =     F    Hartree Fock one center treatment
   AEXX    =    0.0000 exact exchange contribution

 Linear response parameters
   LEPSILON=     F    determine dielectric tensor
   LRPA    =     F    only Hartree local field effects (RPA)
   LNABLA  =     F    use nabla operator in PAW spheres
   LVEL    =     F    velocity operator in full k-point grid
   CSHIFT  =0.1000    complex shift for real part using Kramers Kronig
   OMEGAMAX=  -1.0    maximum frequency
   DEG_THRESHOLD= 0.2000000E-02 threshold for treating states as degnerate
   RTIME   =   -0.100 relaxation time in fs
  (WPLASMAI=    0.000 imaginary part of plasma frequency in eV, 0.658/RTIME)
   DFIELD  = 0.0000000 0.0000000 0.0000000 field for delta impulse in time
 
  Optional k-point grid parameters
   LKPOINTS_OPT  =     F    use optional k-point grid
   KPOINTS_OPT_MODE=     1    mode for optional k-point grid
 
 Orbital magnetization related:
   ORBITALMAG=     F  switch on orbital magnetization
   LCHIMAG   =     F  perturbation theory with respect to B field
   DQ        =  0.001000  dq finite difference perturbation B field
   LLRAUG    =     F  two centre corrections for induced B field
   LBONE     =     F  B-component reconstruction in AE one-centre
   LVGVCALC  =     T  calculate vGv susceptibility
   LVGVAPPL  =     F  apply vGv susceptibility instead of pGv for G=0

 Random number generation:
   RANDOM_GENERATOR = DEFAULT
   PCG_SEED         = not used


--------------------------------------------------------------------------------------------------------


 Static calculation
 charge density and potential will be updated during run
 non-spin polarized calculation
 Conjugate gradient for all bands (Freysoldt, et al. PRB 79, 241103 (2009))
 preconditioned conjugated gradient                                        
 perform sub-space diagonalisation
    before iterative eigenvector-optimisation
 modified Broyden-mixing scheme, WC =      100.0
 initial mixing is a Kerker type mixing with AMIX =  0.4000 and BMIX =      1.0000
 Hartree-type preconditioning will be used
 using additional bands           20
 real space projection scheme for non local part
 use partial core corrections
 no Harris-corrections to forces 
 use gradient corrections 
 use of overlap-Matrix (Vanderbilt PP)
 Gauss-broadening in eV      SIGMA  =   0.05


--------------------------------------------------------------------------------------------------------


  energy-cutoff  :      520.00
  volume of cell :     8000.00
      direct lattice vectors                 reciprocal lattice vectors
    20.000000000  0.000000000  0.000000000     0.050000000  0.000000000  0.000000000
     0.000000000 20.000000000  0.000000000     0.000000000  0.050000000  0.000000000
     0.000000000  0.000000000 20.000000000     0.000000000  0.000000000  0.050000000

  length of vectors
    20.000000000 20.000000000 20.000000000     0.050000000  0.050000000  0.050000000


 
 k-points in units of 2pi/SCALE and weight: KPOINTS created by Atomic Simulation Env
   0.00000000  0.00000000  0.00000000       1.000
 
 k-points in reciprocal lattice and weights: KPOINTS created by Atomic Simulation Env
   0.00000000  0.00000000  0.00000000       1.000
 
 position of ions in fractional coordinates (direct lattice) 
   0.51977303  0.40713104  0.50349024
   0.41373876  0.47704462  0.45093888
   0.43893500  0.48517830  0.58255039
   0.50441257  0.59482629  0.62949638
   0.58553266  0.51733147  0.55254360
   0.47807780  0.59358584  0.49986613
   0.56028354  0.50921115  0.42092412
   0.45482040  0.57883896  0.37046444
 
 position of ions in cartesian coordinates  (Angst):
  10.39546056  8.14262075 10.06980486
   8.27477517  9.54089237  9.01877751
   8.77869998  9.70356593 11.65100779
  10.08825134 11.89652574 12.58992768
  11.71065321 10.34662936 11.05087209
   9.56155593 11.87171675  9.99732265
  11.20567080 10.18422292  8.41848234
   9.09640810 11.57677926  7.40928880
 


--------------------------------------------------------------------------------------------------------


 k-point   1 :   0.0000 0.0000 0.0000  plane waves:  215503

 maximum and minimum number of plane-waves per node :    215503   215503

 maximum number of plane-waves:    215503
 maximum index in each direction: 
   IXMAX=   37   IYMAX=   37   IZMAX=   37
   IXMIN=  -37   IYMIN=  -37   IZMIN=  -37


 serial   3D FFT for wavefunctions
 parallel 3D FFT for charge:
    minimum data exchange during FFTs selected (reduces bandwidth)


 total amount of memory used by VASP MPI-rank0   234222. kBytes
=======================================================================

   base      :      30000. kBytes
   nonlr-proj:       7968. kBytes
   fftplans  :      28721. kBytes
   grid      :     157056. kBytes
   one-center:        124. kBytes
   wavefun   :      10353. kBytes
 
     INWAV:  cpu time      0.0004: real time      0.0005
 Broyden mixing: mesh for mixing (old mesh)
   NGX = 75   NGY = 75   NGZ = 75
  (NGX  =300   NGY  =300   NGZ  =300)
  gives a total of 421875 points

 initial charge density was supplied:
 charge density of overlapping atoms calculated
 number of electron      88.0000000 magnetization 
 keeping initial charge density in first step


--------------------------------------------------------------------------------------------------------


 Maximum index for non-local projection operator         5673
 Maximum index for augmentation-charges          990 (set IRDMAX)


--------------------------------------------------------------------------------------------------------


 First call to EWALD:  gamma=   0.089
 Maximum number of real-space cells 3x 3x 3
 Maximum number of reciprocal cells 3x 3x 3

    FEWALD:  cpu time      0.0076: real time      0.0083


--------------------------------------- Ionic step        1  -------------------------------------------




--------------------------------------- Iteration      1(   1)  ---------------------------------------


    POTLOK:  cpu time      1.0278: real time      1.0374
    SETDIJ:  cpu time      0.7349: real time      0.7358
    TRIAL :  cpu time      1.7638: real time      1.8346
    CORREC:  cpu time      0.0011: real time      0.0011
    --------------------------------------------
      LOOP:  cpu time      3.5365: real time      3.6192

 eigenvalue-minimisations  :   128
 total energy-change (2. order) : 0.6852251E+03  (-0.1689641E+04)
 number of electron      88.0000000 magnetization 
 augmentation part       88.0000000 magnetization 

 Free energy of the ion-electron system (eV)
  ---------------------------------------------------
  alpha Z        PSCENC =         9.31836840
  Ewald energy   TEWEN  =      7464.19428679
  -Hartree energ DENC   =    -14561.40702432
  -exchange      EXHF   =         0.00000000
  -V(xc)+E(xc)   XCENC  =       117.01899627
  PAW double counting   =      6992.78002682    -6808.08107859
  entropy T*S    EENTRO =        -0.03319522
  eigenvalues    EBANDS =        62.76814121
  atomic energy  EATOM  =      7408.66657912
  ---------------------------------------------------
  free energy    TOTEN  =       685.22510049 eV

  energy without entropy =      685.25829571  energy(sigma->0) =      685.24169810


--------------------------------------------------------------------------------------------------------




--------------------------------------- Iteration      1(   2)  ---------------------------------------


    TRIAL :  cpu time      3.1078: real time      3.1127
    CORREC:  cpu time      0.0004: real time      0.0004
    --------------------------------------------
      LOOP:  cpu time      3.1106: real time      3.1300

 eigenvalue-minimisations  :   256
 total energy-change (2. order) :-0.5260255E+03  (-0.5259265E+03)
 number of electron      88.0000000 magnetization 
 augmentation part       88.0000000 magnetization 

 Free energy of the ion-electron system (eV)
  ---------------------------------------------------
  alpha Z        PSCENC =         9.31836840
  Ewald energy   TEWEN  =      7464.19428679
  -Hartree energ DENC   =    -14561.40702432
  -exchange      EXHF   =         0.00000000
  -V(xc)+E(xc)   XCENC  =       117.01899627
  PAW double counting   =      6992.78002682    -6808.08107859
  entropy T*S    EENTRO =        -0.00000000
  eigenvalues    EBANDS =      -463.29054276
  atomic energy  EATOM  =      7408.66657912
  ---------------------------------------------------
  free energy    TOTEN  =       159.19961174 eV

  energy without entropy =      159.19961174  energy(sigma->0) =      159.19961174


--------------------------------------------------------------------------------------------------------




--------------------------------------- Iteration      1(   3)  ---------------------------------------


    TRIAL :  cpu time      2.7175: real time      2.7189
    CORREC:  cpu time      0.0004: real time      0.0004
    --------------------------------------------
      LOOP:  cpu time      2.7193: real time      2.7349

 eigenvalue-minimisations  :   256
 total energy-change (2. order) :-0.1751415E+03  (-0.1751415E+03)
 number of electron      88.0000000 magnetization 
 augmentation part       88.0000000 magnetization 

 Free energy of the ion-electron system (eV)
  ---------------------------------------------------
  alpha Z        PSCENC =         9.31836840
  Ewald energy   TEWEN  =      7464.19428679
  -Hartree energ DENC   =    -14561.40702432
  -exchange      EXHF   =         0.00000000
  -V(xc)+E(xc)   XCENC  =       117.01899627
  PAW double counting   =      6992.78002682    -6808.08107859
  entropy T*S    EENTRO =        -0.00000000
  eigenvalues    EBANDS =      -638.43209143
  atomic energy  EATOM  =      7408.66657912
  ---------------------------------------------------
  free energy    TOTEN  =       -15.94193694 eV

  energy without entropy =      -15.94193694  energy(sigma->0) =      -15.94193694


--------------------------------------------------------------------------------------------------------




--------------------------------------- Iteration      1(   4)  ---------------------------------------


    TRIAL :  cpu time      1.4311: real time      1.4314
    CORREC:  cpu time      0.0004: real time      0.0004
    --------------------------------------------
      LOOP:  cpu time      1.4469: real time      1.4473

 eigenvalue-minimisations  :   128
 total energy-change (2. order) :-0.2180992E+01  (-0.2180992E+01)
 number of electron      88.0000000 magnetization 
 augmentation part       88.0000000 magnetization 

 Free energy of the ion-electron system (eV)
  ---------------------------------------------------
  alpha Z        PSCENC =         9.31836840
  Ewald energy   TEWEN  =      7464.19428679
  -Hartree energ DENC   =    -14561.40702432
  -exchange      EXHF   =         0.00000000
  -V(xc)+E(xc)   XCENC  =       117.01899627
  PAW double counting   =      6992.78002682    -6808.08107859
  entropy T*S    EENTRO =        -0.00000000
  eigenvalues    EBANDS =      -640.61308372
  atomic energy  EATOM  =      7408.66657912
  ---------------------------------------------------
  free energy    TOTEN  =       -18.12292923 eV

  energy without entropy =      -18.12292923  energy(sigma->0) =      -18.12292923


--------------------------------------------------------------------------------------------------------




--------------------------------------- Iteration      1(   5)  ---------------------------------------


    TRIAL :  cpu time      2.0188: real time      2.0200
    CORREC:  cpu time      0.0005: real time      0.0005
    CHARGE:  cpu time      0.4637: real time      0.4642
    --------------------------------------------
      LOOP:  cpu time      2.4845: real time      2.5004

 eigenvalue-minimisations  :   192
 total energy-change (2. order) :-0.2971438E-01  (-0.2971438E-01)
 number of electron      88.0000004 magnetization 
 augmentation part       31.6849615 magnetization 

 Free energy of the ion-electron system (eV)
  ---------------------------------------------------
  alpha Z        PSCENC =         9.31836840
  Ewald energy   TEWEN  =      7464.19428679
  -Hartree energ DENC   =    -14561.40702432
  -exchange      EXHF   =         0.00000000
  -V(xc)+E(xc)   XCENC  =       117.01899627
  PAW double counting   =      6992.78002682    -6808.08107859
  entropy T*S    EENTRO =        -0.00000000
  eigenvalues    EBANDS =      -640.64279810
  atomic energy  EATOM  =      7408.66657912
  ---------------------------------------------------
  free energy    TOTEN  =       -18.15264361 eV

  energy without entropy =      -18.15264361  energy(sigma->0) =      -18.15264361


--------------------------------------------------------------------------------------------------------




--------------------------------------- Iteration      1(   6)  ---------------------------------------


    POTLOK:  cpu time      0.9966: real time      1.0043
    SETDIJ:  cpu time      0.7198: real time      0.7205
    TRIAL :  cpu time      0.9458: real time      1.0021
    CORREC:  cpu time      2.3716: real time      2.3737
    CHARGE:  cpu time      0.4239: real time      0.4236
    --------------------------------------------
      LOOP:  cpu time      5.4601: real time      5.5407

 eigenvalue-minimisations  :     0
 total energy-change (2. order) : 0.3129037E+01  (-0.1722647E+01)
 number of electron      88.0000004 magnetization 
 augmentation part       32.3051392 magnetization 

 Free energy of the ion-electron system (eV)
  ---------------------------------------------------
  alpha Z        PSCENC =         9.31836840
  Ewald energy   TEWEN  =      7464.19428679
  -Hartree energ DENC   =    -14506.31634971
  -exchange      EXHF   =         0.00000000
  -V(xc)+E(xc)   XCENC  =       112.31664511
  PAW double counting   =      7846.76702118    -7677.16733915
  entropy T*S    EENTRO =        -0.00000000
  eigenvalues    EBANDS =      -672.80281786
  atomic energy  EATOM  =      7408.66657912
  ---------------------------------------------------
  free energy    TOTEN  =       -15.02360612 eV

  energy without entropy =      -15.02360612  energy(sigma->0) =      -15.02360612


--------------------------------------------------------------------------------------------------------




--------------------------------------- Iteration      1(   7)  ---------------------------------------


    POTLOK:  cpu time      0.9792: real time      0.9796
    SETDIJ:  cpu time      0.7261: real time      0.7268
    TRIAL :  cpu time      0.8381: real time      0.8385
    CORREC:  cpu time      2.3479: real time      2.3497
    CHARGE:  cpu time      0.4070: real time      0.4068
    --------------------------------------------
      LOOP:  cpu time      5.3009: real time      5.3193

 eigenvalue-minimisations  :     0
 total energy-change (2. order) :-0.1715679E+01  (-0.1456418E+00)
 number of electron      88.0000004 magnetization 
 augmentation part       32.4327963 magnetization 

 Free energy of the ion-electron system (eV)
  ---------------------------------------------------
  alpha Z        PSCENC =         9.31836840
  Ewald energy   TEWEN  =      7464.19428679
  -Hartree energ DENC   =    -14519.02564788
  -exchange      EXHF   =         0.00000000
  -V(xc)+E(xc)   XCENC  =       114.35567247
  PAW double counting   =      7874.83967071    -7703.86775134
  entropy T*S    EENTRO =        -0.00000000
  eigenvalues    EBANDS =      -665.22046317
  atomic energy  EATOM  =      7408.66657912
  ---------------------------------------------------
  free energy    TOTEN  =       -16.73928490 eV

  energy without entropy =      -16.73928490  energy(sigma->0) =      -16.73928490


--------------------------------------------------------------------------------------------------------




--------------------------------------- Iteration      1(   8)  ---------------------------------------


    POTLOK:  cpu time      0.9754: real time      0.9759
    SETDIJ:  cpu time      0.7178: real time      0.7184
    TRIAL :  cpu time      0.8300: real time      0.8307
    CORREC:  cpu time      2.3689: real time      2.3697
    CHARGE:  cpu time      0.4282: real time      0.4289
    --------------------------------------------
      LOOP:  cpu time      5.3227: real time      5.3399

 eigenvalue-minimisations  :     0
 total energy-change (2. order) :-0.1456442E+00  (-0.6069192E-01)
 number of electron      88.0000004 magnetization 
 augmentation part       32.4099573 magnetization 

 Free energy of the ion-electron system (eV)
  ---------------------------------------------------
  alpha Z        PSCENC =         9.31836840
  Ewald energy   TEWEN  =      7464.19428679
  -Hartree energ DENC   =    -14530.86075774
  -exchange      EXHF   =         0.00000000
  -V(xc)+E(xc)   XCENC  =       114.76420963
  PAW double counting   =      7877.31883511    -7706.10707373
  entropy T*S    EENTRO =        -0.00000000
  eigenvalues    EBANDS =      -654.17937672
  atomic energy  EATOM  =      7408.66657912
  ---------------------------------------------------
  free energy    TOTEN  =       -16.88492913 eV

  energy without entropy =      -16.88492913  energy(sigma->0) =      -16.88492913


--------------------------------------------------------------------------------------------------------




--------------------------------------- Iteration      1(   9)  ---------------------------------------


    POTLOK:  cpu time      0.9786: real time      0.9791
    SETDIJ:  cpu time      0.7216: real time      0.7223
    TRIAL :  cpu time      0.8400: real time      0.8406
    CORREC:  cpu time      2.3314: real time      2.3325
    CHARGE:  cpu time      0.4054: real time      0.4060
    --------------------------------------------
      LOOP:  cpu time      5.2795: real time      5.2970

 eigenvalue-minimisations  :     0
 total energy-change (2. order) :-0.6065099E-01  (-0.1543188E-01)
 number of electron      88.0000004 magnetization 
 augmentation part       32.4395789 magnetization 

 Free energy of the ion-electron system (eV)
  ---------------------------------------------------
  alpha Z        PSCENC =         9.31836840
  Ewald energy   TEWEN  =      7464.19428679
  -Hartree energ DENC   =    -14517.91741339
  -exchange      EXHF   =         0.00000000
  -V(xc)+E(xc)   XCENC  =       114.54773449
  PAW double counting   =      7848.44702446    -7677.15877440
  entropy T*S    EENTRO =        -0.00000000
  eigenvalues    EBANDS =      -667.04338560
  atomic energy  EATOM  =      7408.66657912
  ---------------------------------------------------
  free energy    TOTEN  =       -16.94558013 eV

  energy without entropy =      -16.94558013  energy(sigma->0) =      -16.94558013


--------------------------------------------------------------------------------------------------------




--------------------------------------- Iteration      1(  10)  ---------------------------------------


    POTLOK:  cpu time      0.9578: real time      0.9582
    SETDIJ:  cpu time      0.7190: real time      0.7196
    TRIAL :  cpu time      0.8294: real time      0.8300
    CORREC:  cpu time      2.2866: real time      2.2876
    CHARGE:  cpu time      0.4087: real time      0.4091
    --------------------------------------------
      LOOP:  cpu time      5.2038: real time      5.2206

 eigenvalue-minimisations  :     0
 total energy-change (2. order) :-0.1547138E-01  (-0.4191176E-02)
 number of electron      88.0000004 magnetization 
 augmentation part       32.4337705 magnetization 

 Free energy of the ion-electron system (eV)
  ---------------------------------------------------
  alpha Z        PSCENC =         9.31836840
  Ewald energy   TEWEN  =      7464.19428679
  -Hartree energ DENC   =    -14526.95871416
  -exchange      EXHF   =         0.00000000
  -V(xc)+E(xc)   XCENC  =       114.71442966
  PAW double counting   =      7850.14579208    -7678.64158594
  entropy T*S    EENTRO =        -0.00000000
  eigenvalues    EBANDS =      -658.40020746
  atomic energy  EATOM  =      7408.66657912
  ---------------------------------------------------
  free energy    TOTEN  =       -16.96105150 eV

  energy without entropy =      -16.96105150  energy(sigma->0) =      -16.96105150


--------------------------------------------------------------------------------------------------------




--------------------------------------- Iteration      1(  11)  ---------------------------------------


    POTLOK:  cpu time      0.9246: real time      0.9252
    SETDIJ:  cpu time      0.7192: real time      0.7191
    TRIAL :  cpu time      0.8307: real time      0.8313
    CORREC:  cpu time      2.2767: real time      2.2784
    CHARGE:  cpu time      0.4061: real time      0.4060
    --------------------------------------------
      LOOP:  cpu time      5.1594: real time      5.1767

 eigenvalue-minimisations  :     0
 total energy-change (2. order) :-0.4196608E-02  (-0.1463247E-02)
 number of electron      88.0000004 magnetization 
 augmentation part       32.4405144 magnetization 

 Free energy of the ion-electron system (eV)
  ---------------------------------------------------
  alpha Z        PSCENC =         9.31836840
  Ewald energy   TEWEN  =      7464.19428679
  -Hartree energ DENC   =    -14523.11989618
  -exchange      EXHF   =         0.00000000
  -V(xc)+E(xc)   XCENC  =       114.66866339
  PAW double counting   =      7842.02457066    -7670.40581615
  entropy T*S    EENTRO =        -0.00000000
  eigenvalues    EBANDS =      -662.31200414
  atomic energy  EATOM  =      7408.66657912
  ---------------------------------------------------
  free energy    TOTEN  =       -16.96524811 eV

  energy without entropy =      -16.96524811  energy(sigma->0) =      -16.96524811


--------------------------------------------------------------------------------------------------------




--------------------------------------- Iteration      1(  12)  ---------------------------------------


    POTLOK:  cpu time      0.9008: real time      0.9014
    SETDIJ:  cpu time      0.7185: real time      0.7192
    TRIAL :  cpu time      0.8318: real time      0.8324
    CORREC:  cpu time      2.2552: real time      2.2569
    CHARGE:  cpu time      0.4079: real time      0.4077
    --------------------------------------------
      LOOP:  cpu time      5.1302: real time      5.1337

 eigenvalue-minimisations  :     0
 total energy-change (2. order) :-0.1462980E-02  (-0.2699314E-03)
 number of electron      88.0000004 magnetization 
 augmentation part       32.4407438 magnetization 

 Free energy of the ion-electron system (eV)
  ---------------------------------------------------
  alpha Z        PSCENC =         9.31836840
  Ewald energy   TEWEN  =      7464.19428679
  -Hartree energ DENC   =    -14524.77487098
  -exchange      EXHF   =         0.00000000
  -V(xc)+E(xc)   XCENC  =       114.70255577
  PAW double counting   =      7840.29188770    -7668.60032714
  entropy T*S    EENTRO =        -0.00000000
  eigenvalues    EBANDS =      -660.76519075
  atomic energy  EATOM  =      7408.66657912
  ---------------------------------------------------
  free energy    TOTEN  =       -16.96671109 eV

  energy without entropy =      -16.96671109  energy(sigma->0) =      -16.96671109


--------------------------------------------------------------------------------------------------------




--------------------------------------- Iteration      1(  13)  ---------------------------------------


    POTLOK:  cpu time      0.8983: real time      0.8987
    SETDIJ:  cpu time      0.7184: real time      0.7191
    TRIAL :  cpu time      0.8303: real time      0.8306
    CORREC:  cpu time      2.2563: real time      2.2573
    CHARGE:  cpu time      0.4131: real time      0.4137
    --------------------------------------------
      LOOP:  cpu time      5.1185: real time      5.1370

 eigenvalue-minimisations  :     0
 total energy-change (2. order) :-0.2704019E-03  (-0.4235323E-04)
 number of electron      88.0000004 magnetization 
 augmentation part       32.4412412 magnetization 

 Free energy of the ion-electron system (eV)
  ---------------------------------------------------
  alpha Z        PSCENC =         9.31836840
  Ewald energy   TEWEN  =      7464.19428679
  -Hartree energ DENC   =    -14524.82391145
  -exchange      EXHF   =         0.00000000
  -V(xc)+E(xc)   XCENC  =       114.70152026
  PAW double counting   =      7839.24557023    -7667.54290089
  entropy T*S    EENTRO =        -0.00000000
  eigenvalues    EBANDS =      -660.72649395
  atomic energy  EATOM  =      7408.66657912
  ---------------------------------------------------
  free energy    TOTEN  =       -16.96698149 eV

  energy without entropy =      -16.96698149  energy(sigma->0) =      -16.96698149


--------------------------------------------------------------------------------------------------------




--------------------------------------- Iteration      1(  14)  ---------------------------------------


    POTLOK:  cpu time      0.8981: real time      0.8987
    SETDIJ:  cpu time      0.7221: real time      0.7220
    TRIAL :  cpu time      0.8328: real time      0.8333
    CORREC:  cpu time      2.2585: real time      2.2602
    CHARGE:  cpu time      0.4048: real time      0.4047
    --------------------------------------------
      LOOP:  cpu time      5.1185: real time      5.1351

 eigenvalue-minimisations  :     0
 total energy-change (2. order) :-0.4230723E-04  (-0.1216066E-04)
 number of electron      88.0000004 magnetization 
 augmentation part       32.4417831 magnetization 

 Free energy of the ion-electron system (eV)
  ---------------------------------------------------
  alpha Z        PSCENC =         9.31836840
  Ewald energy   TEWEN  =      7464.19428679
  -Hartree energ DENC   =    -14524.77057597
  -exchange      EXHF   =         0.00000000
  -V(xc)+E(xc)   XCENC  =       114.70195243
  PAW double counting   =      7839.08709629    -7667.38214752
  entropy T*S    EENTRO =        -0.00000000
  eigenvalues    EBANDS =      -660.78258334
  atomic energy  EATOM  =      7408.66657912
  ---------------------------------------------------
  free energy    TOTEN  =       -16.96702380 eV

  energy without entropy =      -16.96702380  energy(sigma->0) =      -16.96702380


--------------------------------------------------------------------------------------------------------




--------------------------------------- Iteration      1(  15)  ---------------------------------------


    POTLOK:  cpu time      0.8953: real time      0.8959
    SETDIJ:  cpu time      0.7217: real time      0.7224
    TRIAL :  cpu time      0.8274: real time      0.8280
    CORREC:  cpu time      2.2574: real time      2.2584
    CHARGE:  cpu time      0.4072: real time      0.4070
    --------------------------------------------
      LOOP:  cpu time      5.1248: real time      5.1278

 eigenvalue-minimisations  :     0
 total energy-change (2. order) :-0.1197207E-04  (-0.1924198E-05)
 number of electron      88.0000004 magnetization 
 augmentation part       32.4415420 magnetization 

 Free energy of the ion-electron system (eV)
  ---------------------------------------------------
  alpha Z        PSCENC =         9.31836840
  Ewald energy   TEWEN  =      7464.19428679
  -Hartree energ DENC   =    -14524.88433089
  -exchange      EXHF   =         0.00000000
  -V(xc)+E(xc)   XCENC  =       114.70416649
  PAW double counting   =      7839.19949214    -7667.49360769
  entropy T*S    EENTRO =        -0.00000000
  eigenvalues    EBANDS =      -660.67199014
  atomic energy  EATOM  =      7408.66657912
  ---------------------------------------------------
  free energy    TOTEN  =       -16.96703577 eV

  energy without entropy =      -16.96703577  energy(sigma->0) =      -16.96703577


--------------------------------------------------------------------------------------------------------




--------------------------------------- Iteration      1(  16)  ---------------------------------------


    POTLOK:  cpu time      0.8962: real time      0.8967
    SETDIJ:  cpu time      0.7221: real time      0.7227
    TRIAL :  cpu time      0.8325: real time      0.8330
    CORREC:  cpu time      2.2598: real time      2.2609
    CHARGE:  cpu time      0.4043: real time      0.4049
    --------------------------------------------
      LOOP:  cpu time      5.1170: real time      5.1348

 eigenvalue-minimisations  :     0
 total energy-change (2. order) :-0.1960607E-05  (-0.5491201E-06)
 number of electron      88.0000004 magnetization 
 augmentation part       32.4414859 magnetization 

 Free energy of the ion-electron system (eV)
  ---------------------------------------------------
  alpha Z        PSCENC =         9.31836840
  Ewald energy   TEWEN  =      7464.19428679
  -Hartree energ DENC   =    -14524.82408067
  -exchange      EXHF   =         0.00000000
  -V(xc)+E(xc)   XCENC  =       114.70293152
  PAW double counting   =      7839.12680946    -7667.42110204
  entropy T*S    EENTRO =        -0.00000000
  eigenvalues    EBANDS =      -660.73083032
  atomic energy  EATOM  =      7408.66657912
  ---------------------------------------------------
  free energy    TOTEN  =       -16.96703773 eV

  energy without entropy =      -16.96703773  energy(sigma->0) =      -16.96703773


--------------------------------------------------------------------------------------------------------




--------------------------------------- Iteration      1(  17)  ---------------------------------------


    POTLOK:  cpu time      0.8943: real time      0.8949
    SETDIJ:  cpu time      0.7213: real time      0.7219
    TRIAL :  cpu time      0.8312: real time      0.8309
    CORREC:  cpu time      2.2584: real time      2.2602
    EDDIAG:  cpu time      0.3576: real time      0.3575
    CHARGE:  cpu time      0.4141: real time      0.4147
    --------------------------------------------
      LOOP:  cpu time      5.4844: real time      5.5021

 eigenvalue-minimisations  :     0
 total energy-change (2. order) :-0.5586662E-06  (-0.2023009E-06)
 number of electron      88.0000004 magnetization 
 augmentation part       32.4415084 magnetization 

 Free energy of the ion-electron system (eV)
  ---------------------------------------------------
  alpha Z        PSCENC =         9.31836840
  Ewald energy   TEWEN  =      7464.19428679
  -Hartree energ DENC   =    -14524.82844017
  -exchange      EXHF   =         0.00000000
  -V(xc)+E(xc)   XCENC  =       114.70278819
  PAW double counting   =      7839.11069398    -7667.40501588
  entropy T*S    EENTRO =        -0.00000000
  eigenvalues    EBANDS =      -660.72629873
  atomic energy  EATOM  =      7408.66657912
  ---------------------------------------------------
  free energy    TOTEN  =       -16.96703829 eV

  energy without entropy =      -16.96703829  energy(sigma->0) =      -16.96703829


--------------------------------------------------------------------------------------------------------


  average scaling for gradient   1.1261


 average (electrostatic) potential at core
  the test charge radii are     1.2098
  (the norm of the test charge is              1.0000)
       1 -76.8138       2 -76.8985       3 -76.8989       4 -77.1752       5 -76.8985
       6 -77.2177       7 -76.8993       8 -77.1745
 
 
 
 E-fermi :  -4.9665     XC(G=0):  -0.4733     alpha+bet : -0.2375

 Fermi energy:        -4.9665045859

 k-point     1 :       0.0000    0.0000    0.0000
  band No.  band energies     occupation 
      1     -10.8444      2.00000
      2      -9.9541      2.00000
      3      -9.8792      2.00000
      4      -9.4036      2.00000
      5      -9.1567      2.00000
      6      -9.0905      2.00000
      7      -8.9038      2.00000
      8      -8.8659      2.00000
      9      -8.7572      2.00000
     10      -8.6433      2.00000
     11      -8.6089      2.00000
     12      -8.3412      2.00000
     13      -8.3331      2.00000
     14      -8.2523      2.00000
     15      -8.2444      2.00000
     16      -8.1572      2.00000
     17      -8.0804      2.00000
     18      -8.0161      2.00000
     19      -7.7524      2.00000
     20      -7.4626      2.00000
     21      -7.3860      2.00000
     22      -7.2886      2.00000
     23      -7.2071      2.00000
     24      -7.1225      2.00000
     25      -7.0419      2.00000
     26      -6.9797      2.00000
     27      -6.9470      2.00000
     28      -6.7799      2.00000
     29      -6.7703      2.00000
     30      -6.6013      2.00000
     31      -6.5603      2.00000
     32      -6.5400      2.00000
     33      -6.4631      2.00000
     34      -6.4273      2.00000
     35      -6.3394      2.00000
     36      -6.2600      2.00000
     37      -6.1320      2.00000
     38      -6.0936      2.00000
     39      -6.0920      2.00000
     40      -6.0361      2.00000
     41      -5.9663      2.00000
     42      -5.8488      2.00000
     43      -5.5168      2.00000
     44      -5.2153      2.00000
     45      -3.8215      0.00000
     46      -3.5585      0.00000
     47      -3.4787      0.00000
     48      -3.2888      0.00000
     49      -2.0025      0.00000
     50      -1.8480      0.00000
     51      -1.2603      0.00000
     52      -0.8590      0.00000
     53      -0.4350      0.00000
     54      -0.2627      0.00000
     55      -0.0675      0.00000
     56       0.0406      0.00000
     57       0.1928      0.00000
     58       0.2214      0.00000
     59       0.4272      0.00000
     60       0.4728      0.00000
     61       0.5237      0.00000
     62       0.5341      0.00000
     63       0.6233      0.00000
     64       0.6567      0.00000


--------------------------------------------------------------------------------------------------------


 soft charge-density along one line, spin component           1
         0         1         2         3         4         5         6         7         8         9
 total charge-density along one line
 
 pseudopotential strength for first ion, spin component:           1
 -9.253  -0.001   0.000  -0.001   0.003  -9.374  -0.001   0.000
 -0.001  -9.260   0.001  -0.001  -0.000  -0.001  -9.381   0.001
  0.000   0.001  -9.254   0.004   0.001   0.000   0.001  -9.375
 -0.001  -0.001   0.004  -9.262  -0.003  -0.001  -0.000   0.004
  0.003  -0.000   0.001  -0.003  -9.248   0.003  -0.000   0.000
 -9.374  -0.001   0.000  -0.001   0.003  -9.479  -0.001   0.000
 -0.001  -9.381   0.001  -0.000  -0.000  -0.001  -9.486   0.001
  0.000   0.001  -9.375   0.004   0.000   0.000   0.001  -9.480
 -0.001  -0.000   0.004  -9.383  -0.003  -0.001  -0.000   0.003
  0.003  -0.000   0.000  -0.003  -9.369   0.003  -0.000   0.000
  0.002  -0.000  -0.003  -0.002   0.004   0.002  -0.000  -0.003
  0.003  -0.001  -0.004  -0.003   0.006   0.003  -0.001  -0.004
  0.005   0.000   0.013  -0.000   0.024   0.005   0.000   0.013
 -0.000  -0.025   0.001   0.005   0.000  -0.000  -0.024   0.001
 -0.024  -0.000  -0.003   0.001   0.005  -0.023  -0.000  -0.003
  0.006   0.000   0.014  -0.000   0.026   0.006   0.000   0.014
 -0.000  -0.027   0.001   0.006   0.000  -0.000  -0.026   0.001
 -0.026  -0.000  -0.003   0.001   0.006  -0.025  -0.000  -0.003
 total augmentation occupancy for first ion, spin component:           1
  4.161  -0.108   0.052  -0.012  -0.425  -2.108   0.097  -0.048  -0.009   0.460   0.043  -0.060  -0.021   0.026  -0.379   0.005
 -0.108   3.789  -0.028  -0.191   0.036   0.097  -1.795   0.047   0.177  -0.040   0.031  -0.005   0.006  -0.275   0.028   0.000
  0.052  -0.028   2.964  -0.005   0.103  -0.048   0.047  -0.869   0.074  -0.099   0.307  -0.082   0.078   0.008  -0.018   0.009
 -0.012  -0.191  -0.005   2.971  -0.022  -0.009   0.177   0.074  -1.040  -0.020   0.086   0.001  -0.001   0.061   0.002  -0.001
 -0.425   0.036   0.103  -0.022   3.453   0.460  -0.040  -0.099  -0.020  -1.342   0.090  -0.129   0.167  -0.009   0.142   0.018
 -2.108   0.097  -0.048  -0.009   0.460   2.029  -0.090   0.046   0.024  -0.488  -0.055   0.058   0.018  -0.022   0.393  -0.001
  0.097  -1.795   0.047   0.177  -0.040  -0.090   1.755  -0.062  -0.168   0.043  -0.029   0.007  -0.006   0.311  -0.023   0.000
 -0.048   0.047  -0.869   0.074  -0.099   0.046  -0.062   0.749  -0.128   0.099  -0.294   0.102  -0.097  -0.009   0.022   0.004
 -0.009   0.177   0.074  -1.040  -0.020   0.024  -0.168  -0.128   1.045   0.052  -0.075   0.007  -0.003  -0.069  -0.002   0.001
  0.460  -0.040  -0.099  -0.020  -1.342  -0.488   0.043   0.099   0.052   1.215  -0.117   0.123  -0.180   0.007  -0.146   0.005
  0.043   0.031   0.307   0.086   0.090  -0.055  -0.029  -0.294  -0.075  -0.117   2.167  -0.434   0.283  -0.005  -0.063  -0.021
 -0.060  -0.005  -0.082   0.001  -0.129   0.058   0.007   0.102   0.007   0.123  -0.434   0.125  -0.087   0.002   0.020   0.005
 -0.021   0.006   0.078  -0.001   0.167   0.018  -0.006  -0.097  -0.003  -0.180   0.283  -0.087   0.073  -0.001   0.005  -0.004
  0.026  -0.275   0.008   0.061  -0.009  -0.022   0.311  -0.009  -0.069   0.007  -0.005   0.002  -0.001   0.066  -0.006   0.000
 -0.379   0.028  -0.018   0.002   0.142   0.393  -0.023   0.022  -0.002  -0.146  -0.063   0.020   0.005  -0.006   0.095   0.000
  0.005   0.000   0.009  -0.001   0.018  -0.001   0.000   0.004   0.001   0.005  -0.021   0.005  -0.004   0.000   0.000   0.001
 -0.000  -0.017   0.000   0.004   0.000   0.001  -0.009   0.000   0.002  -0.000   0.000  -0.000   0.000  -0.002   0.000  -0.000
 -0.015  -0.000  -0.002   0.001   0.002  -0.011   0.001  -0.001  -0.000   0.004   0.005  -0.001   0.000   0.000  -0.003  -0.000


------------------------ aborting loop because EDIFF is reached ----------------------------------------


    FORLOC:  cpu time      0.0745: real time      0.0745
    FORNL :  cpu time      0.5640: real time      0.5645
    STRESS:  cpu time      1.6183: real time      1.6194
    FORCOR:  cpu time      0.7864: real time      0.7871
    OFIELD:  cpu time      0.0012: real time      0.0012

 ---------------------------------------------------------------------------------------------

         DFTD3 V3.0 Rev 1        
 IVDW         = 11
 DF pbe       
 parameters
 VDW_S6       =    1.0000
 VDW_S8       =    0.7220
 VDW_SR       =    1.2170
 rs18     =    1.0000
 alpha6   =   14.0000
 alpha8   =   16.0000
 k1-k3    =   16.0000    1.3333   -4.0000
 VDW_RADIUS   =   50.2022 A
 VDW_CNRADIUS =   21.1671 A
 Edisp (eV)   -0.62083

 E6    (eV) :    -0.1081
 E8    (eV) :    -0.5127
 % E8        : 82.58
    FORVDW:  cpu time      0.0182: real time      0.0183

  FORCE on cell =-STRESS in cart. coord.  units (eV):
  Direction    XX          YY          ZZ          XY          YZ          ZX
  --------------------------------------------------------------------------------------
  Alpha Z     9.31837     9.31837     9.31837
  Ewald    1585.53740  2081.75924  3796.89381   -98.33452   119.10965   407.15981
  Hartree  4130.25788  4511.84525  5882.72786   -73.82906    92.28719   315.44292
  E(xc)    -395.62856  -395.22958  -394.09436    -0.08706     0.09083     0.31189
  Local   -7095.25077 -7962.79319-11021.59076   169.91857  -209.18013  -714.98429
  n-local   -19.91983   -23.05144   -34.36780     0.67430    -0.85830    -2.93126
  augment   543.04532   540.91303   536.21352     0.47028    -0.39989    -1.39166
  Kinetic  1243.47167  1238.18283  1226.13045     1.16564    -1.01239    -3.53305
  Fock        0.00000     0.00000     0.00000     0.00000     0.00000     0.00000
  vdW         0.48771     0.21211    -0.11093     0.06188    -0.03410    -0.12267
  -------------------------------------------------------------------------------------
  Total       1.31918     1.15663     1.12016     0.04002     0.00286    -0.04831
  in kB       0.26419     0.23164     0.22434     0.00802     0.00057    -0.00968
  external pressure =        0.24 kB  Pullay stress =        0.00 kB


 VOLUME and BASIS-vectors are now :
 -----------------------------------------------------------------------------
  energy-cutoff  :      520.00
  volume of cell :     8000.00
      direct lattice vectors                 reciprocal lattice vectors
    20.000000000  0.000000000  0.000000000     0.050000000  0.000000000  0.000000000
     0.000000000 20.000000000  0.000000000     0.000000000  0.050000000  0.000000000
     0.000000000  0.000000000 20.000000000     0.000000000  0.000000000  0.050000000

  length of vectors
    20.000000000 20.000000000 20.000000000     0.050000000  0.050000000  0.050000000


 FORCES acting on ions:
    Electron-Ion                     Ewald-Force                    Non-Local-Force
 -----------------------------------------------------------------------------------------------
   -.189E+03 0.842E+03 -.162E+02   0.188E+03 -.839E+03 0.161E+02   0.839E+00 -.378E+01 0.709E-01
   0.680E+03 0.347E+03 0.334E+03   -.679E+03 -.346E+03 -.332E+03   -.137E+01 -.618E+00 -.240E+01
   0.502E+03 0.289E+03 -.599E+03   -.502E+03 -.289E+03 0.596E+03   -.371E+00 -.296E+00 0.278E+01
   -.398E+02 -.463E+03 -.686E+03   0.393E+02 0.460E+03 0.681E+03   0.444E+00 0.281E+01 0.518E+01
   -.760E+03 0.117E+02 -.340E+03   0.759E+03 -.118E+02 0.338E+03   0.148E+01 0.113E+00 0.240E+01
   0.161E+03 -.719E+03 0.138E+02   -.161E+03 0.719E+03 -.138E+02   -.671E-01 0.298E+00 -.316E-02
   -.582E+03 0.695E+02 0.592E+03   0.582E+03 -.693E+02 -.589E+03   0.486E+00 -.210E+00 -.277E+01
   0.227E+03 -.377E+03 0.702E+03   -.226E+03 0.375E+03 -.697E+03   -.156E+01 0.217E+01 -.527E+01
 -----------------------------------------------------------------------------------------------
   0.115E+00 -.490E+00 0.105E-01   0.142E-12 0.000E+00 0.227E-12   -.115E+00 0.485E+00 -.802E-02
 
 
 POSITION                                       TOTAL-FORCE (eV/Angst)
 -----------------------------------------------------------------------------------
     10.39546      8.14262     10.06980         0.044843     -0.207625      0.001431
      8.27478      9.54089      9.01878        -0.234924     -0.116201     -0.055464
      8.77870      9.70357     11.65101        -0.194472     -0.103732      0.149989
     10.08825     11.89653     12.58993         0.002061      0.103509      0.125484
     11.71065     10.34663     11.05087         0.262280     -0.001917      0.055332
      9.56156     11.87172      9.99732        -0.057392      0.253196     -0.004385
     11.20567     10.18422      8.41848         0.222140     -0.015434     -0.147412
      9.09641     11.57678      7.40929        -0.044536      0.088204     -0.124975
 -----------------------------------------------------------------------------------
    total drift:                               -0.000802     -0.005146      0.002449


--------------------------------------------------------------------------------------------------------



  FREE ENERGIE OF THE ION-ELECTRON SYSTEM (eV)
  ---------------------------------------------------
  free  energy   TOTEN  =       -17.58786500 eV

  energy  without entropy=      -17.58786500  energy(sigma->0) =      -17.58786500
 


--------------------------------------------------------------------------------------------------------


    POTLOK:  cpu time      1.6256: real time      1.6268


--------------------------------------------------------------------------------------------------------


     LOOP+:  cpu time     81.5784: real time     81.9637
    4ORBIT:  cpu time      0.0000: real time      0.0000

 total amount of memory used by VASP MPI-rank0   234222. kBytes
=======================================================================

   base      :      30000. kBytes
   nonlr-proj:       7968. kBytes
   fftplans  :      28721. kBytes
   grid      :     157056. kBytes
   one-center:        124. kBytes
   wavefun   :      10353. kBytes
 
  
  
 General timing and accounting informations for this job:
 ========================================================
  
                  Total CPU time used (sec):       95.169
                            User time (sec):       92.590
                          System time (sec):        2.579
                         Elapsed time (sec):       96.611
  
                   Maximum memory used (kb):     1188740.
                   Average memory used (kb):          N/A
  
                          Minor page faults:       106159
                          Major page faults:            0
                 Voluntary context switches:         5507
