 **********************************************************************
                          MRCC program system
 **********************************************************************
 
                              Written by
     Mihaly Kallay, Peter R. Nagy, David Mester, Laszlo Gyevi-Nagy,
        Jozsef Csoka, P. Bernat Szabo, Zoltan Rolik, Gyula Samu,
     Jozsef Csontos, Bence Hegely, Adam Ganyecz, Istvan Ladjanszki,
       Lorant Szegedy, Bence Ladoczki, Klara Petrov, Mate Farkas,
                    Pal D. Mezei, and Reka A. Horvath
 
        Department of Physical Chemistry and Materials Science
            Budapest University of Technology and Economics
                  Budapest P.O.Box 91, H-1521 Hungary
 
                              www.mrcc.hu
 
                      Release date: March 18, 2022

 ************************ 2023-08-12 01:54:12 *************************
 Executing minp...

 Reading input from MINP...
 
 Input file:
 
calc=CCSD(T)
verbosity=3
mem=1500GB
unit=angs
scfiguess=sad
ccprog=mrcc
ECP=LANL2DZ-ECP-28
basis=LANL2DZ
core=16
unit=angs
geom=xyz
    4
Ag4_1
Ag     0.58414532     0.39221982     1.08798936
Ag    -0.58831192    -0.38775738    -1.08743232
Ag    -1.37696270    -1.47443527     1.27111862
Ag     1.37696270     1.47443527    -1.27111862
 
 
 Checking keyword combinations...
 
 Keywords:
 
 active=none
 agrid=ld0006-ld0590
 agrid_pssp=ld0006-ld0194
 agrid_pssp_sm=ld0006-ld0074
 basis=lanl2dz
 basis_sm=none
 basopt=off
 bfbasis=none
 bfgsmem=10
 bfgstol=1.0d-3
 bpcompo=0.985
 bpcompv=0.98
 bpdfo=0.985
 bpocc=0.985
 bppdo=0.985
 bppdv=0.98
 bpedo=0.985
 bpedv=0.98
 calc=ccsd(t)
 ccmaxit=50
 ccprog=mrcc
 ccsdalg=disk
 ccsdmkl=seq
 ccsdrest=off
 ccsdthreads=2
 cctol=6
 charge=0
 cialg=disk
 ciguess=off
 cmpgrp=auto
 comprest=off
 core=16
 corembed=off
 csapprox=off
 cvs=off
 dboc=off
 delocsomofact=
 dendec=cholesky
 dens=0
 dfalg=lineq
 dfbasis_cab=none
 dfbasis_cor=none
 dfbasis_scf=none
 dfbasis_scf_sm=none
 dfintran=ovirt
 dft=off
 dhexc=adc(2)
 diag=david
 docc=
 domrad=10.d0
 drpaalg=fit
 dual=off
 dual_df=off
 ecp=lanl2dz-ecp-28
 edisp=off
 edisp_embed=off
 embed=off
 etemp=300
 epert=none
 eps=
 espcharge=off
 excrad=0.d0
 excrad_fin=0.000000000D+00
 fitting=coulomb
 fmm=off
 fmmord=8
 freq=off
 gamma=1.d0
 gauss=spher
 geom=xyz
 gopt=off
 ghost=none
 gtol=7
 grdens=off
 gridbatch_cos=2000
 grtol=10
 guido_ct=off
 hamilton=dc
 iface=none
 intalg=auto
 itol=10
 laptol=1.d-2
 lccoporder=trffirst
 lcorthr=normal
 lccrest=off
 lmp2dens=on
 lnoepso=0.d0
 lnoepsv=1e-6
 boysalg=jacobi
 localcc=off
 localcorrsymm=off
 locintrf=disk
 mact=
 maxact=off
 maxdim=100
 maxex=0
 maxmicroit=100
 mcscfiguess=hf
 mem=1500gb
 mmprog=
 molden=on
 mpitasks=1
 mulmet=0
 mult=
 nacto=0
 nactv=0
 naf_amp=1.d-2
 naf_cor=off
 naf_scf=off
 nafalg=albe
 naftyp=
 nchol=auto
 ndeps=1e-3
 nstate=1
 nsing=0
 nto=off
 ntrip=0
 occ=
 occri=off
 oniom=off
 oniom_eechg=off
 oniom_pcm=off
 oniom_qcorr=off
 optalg=
 optmaxit=50
 optetol=1e-6
 optex=0
 optgtol=1e-4
 optstol=1e-3
 orblocc=off
 orbloce=off
 orbloco=off
 orblocv=off
 orblocguess=cholesky
 osveps=1e-3
 ovirt=off
 ovltol=1e-7
 ovosnorb=80.0
 pcm=off
 popul=off
 pressure=100000
 pssp=off
 ptfreq=0.0
 ptthreads=2
 qro=off
 qscf=off
 qmmm=off
 redcost_exc=off
 redcost_tddft=off
 refdet=none
 rest=0
 rgrid=log3
 rism=off
 rohfcore=semicanonical
 rohftype=semicanonical
 scfalg=auto
 scf_conv=difficult
 scfdamp=0.0d0
 scfdamp_mode=off
 scfdamp_end=50
 scfdamp_dampstep=0.d0
 scfdamp_dtol=0.0d0
 scfdamp_maxfact=0.0d0
 scfdamp_minfact=0.0d0
 scfdiis=on
 scfdiis_dtol=0.0d0
 scfdiis_end=50
 scfdiis_start=2
 scfdiis_step=1
 scfdiis_watch=off
 scfdiis_wrange=10
 scfdiis_wlimit=5
 scfdiis_delmax=2
 scfdtol=7
 scfext=10
 scfguessdens=
 scfiguess=sad
 scfloc=off
 scflshift=0.20
 scflshift_end=8
 scflshift_dtol=0.0
 scflshift_gaptol=0.20
 scfmaxit=50
 scftype=
 scftol=6
 scspe=1.d0
 scsph=1.d0
 scsps=1.2d0
 scsps_t=1.2d0
 scspt=0.33333333333333
 scspt_t=0.33333333333333
 scspv=1.d0
 spairtol=1e-4
 sqmprog=
 subminp=top
 symm=
 talg=occ
 temp=298.15
 test=off
 theodore=off
 tlmo=0.999
 tpao=0.94
 tprint=off
 uncontract=off
 unit=angs
 usedisk=2
 verbosity=3
 wpairtol=0.100000000E-05

 ************************ 2023-08-12 01:54:13 *************************
 Executing integ...

 Allocation of 1500.0 Gbytes of memory...
 
 
 Number of atoms:                  4
 Charge:                           0
 Number of electrons:             76
 Number of core electrons:        32
 Spin multiplicity:                1
 
                 Cartesian coordinates [bohr]      Atomic mass [AMU]  Z
   1  Ag    1.10387467    0.74118804    2.05600192   106.905092      47
   2  Ag   -1.11174841   -0.73275525   -2.05494926   106.905092      47
   3  Ag   -2.60208239   -2.78627885    2.40206606   106.905092      47
   4  Ag    2.60208239    2.78627885   -2.40206606   106.905092      47
 
 This molecule is an asymmetric top.
 
 Rotational constants [cm-1]: 
      0.046962352311      0.013866972509      0.010705798249
 
 Point group: C1  
 Computational point group: C1  
 
 Cartesian coordinates in standard orientation [bohr]
   1  Ag   -0.00040255    2.44850593    0.00289604
   2  Ag    0.00045575   -2.44857620    0.00289587
   3  Ag   -4.50603414   -0.00019806   -0.00289592
   4  Ag    4.50598093    0.00026834   -0.00289599
 
 Nuclear repulsion energy [au]:        395.349630296040
 
 
 Basis set information:
 
 Maximum angular momentum: f
 Maximum number of contracted Gaussians:    3
 Maximum number of primitive Gaussians:     6
 Spherical harmonic GTOs are used.
 
   1  Ag lanl2dz [ 5s 6p 4d | 3s 3p 2d ]
   2  Ag lanl2dz [ 5s 6p 4d | 3s 3p 2d ]
   3  Ag lanl2dz [ 5s 6p 4d | 3s 3p 2d ]
   4  Ag lanl2dz [ 5s 6p 4d | 3s 3p 2d ]
 
 Basis functions:
            1             2             3             4             5             6             7             8             9            10
    0    1Ag1s         1Ag2s         1Ag3s         1Ag1pz        1Ag1py        1Ag1px        1Ag2pz        1Ag2py        1Ag2px        1Ag3pz    
    1    1Ag3py        1Ag3px        1Ag1d-2       1Ag1d-1       1Ag1d0        1Ag1d+1       1Ag1d+2       1Ag2d-2       1Ag2d-1       1Ag2d0    
    2    1Ag2d+1       1Ag2d+2       2Ag1s         2Ag2s         2Ag3s         2Ag1pz        2Ag1py        2Ag1px        2Ag2pz        2Ag2py    
    3    2Ag2px        2Ag3pz        2Ag3py        2Ag3px        2Ag1d-2       2Ag1d-1       2Ag1d0        2Ag1d+1       2Ag1d+2       2Ag2d-2   
    4    2Ag2d-1       2Ag2d0        2Ag2d+1       2Ag2d+2       3Ag1s         3Ag2s         3Ag3s         3Ag1pz        3Ag1py        3Ag1px    
    5    3Ag2pz        3Ag2py        3Ag2px        3Ag3pz        3Ag3py        3Ag3px        3Ag1d-2       3Ag1d-1       3Ag1d0        3Ag1d+1   
    6    3Ag1d+2       3Ag2d-2       3Ag2d-1       3Ag2d0        3Ag2d+1       3Ag2d+2       4Ag1s         4Ag2s         4Ag3s         4Ag1pz    
    7    4Ag1py        4Ag1px        4Ag2pz        4Ag2py        4Ag2px        4Ag3pz        4Ag3py        4Ag3px        4Ag1d-2       4Ag1d-1   
    8    4Ag1d0        4Ag1d+1       4Ag1d+2       4Ag2d-2       4Ag2d-1       4Ag2d0        4Ag2d+1       4Ag2d+2   
 
 Maximum number of basis functions per shell:   10
 Total number of basis functions:     88
 
 
 Effective core potentials:
 
   1  Ag lanl2dz-ecp-28      
   2  Ag lanl2dz-ecp-28      
   3  Ag lanl2dz-ecp-28      
   4  Ag lanl2dz-ecp-28      
 
 Initializing the SAD routines for the initial guess...
 Checking the files required for the initial guess...
 Density files have not been found for the initial guess.
 Generating SCFDENSITIES.Ag.lanl2dz.0
 CPU time [min]:     0.117                   Wall time [min]:     0.199
 
 Character table for point group C1:
 
          E  
    A     1
 
 Number of basis functions per irrep:
    A      88
 
 
 Calculation of overlap integrals...
 CPU time [min]:     0.118                   Wall time [min]:     0.199
 
 Calculation of the square root of the overlap matrix...
 Minimum eigenvalue of the overlap matrix: 0.446965E-02
 CPU time [min]:     0.132                   Wall time [min]:     0.199
 
 Calculation of kinetic energy integrals...
 CPU time [min]:     0.132                   Wall time [min]:     0.199
 Calculation of nuclear attraction integrals...
 CPU time [min]:     0.132                   Wall time [min]:     0.200
 Calculation of core potential integrals...
 CPU time [min]:     0.247                   Wall time [min]:     0.212
 
 Calculation of prescreening integrals...
 CPU time [min]:     0.309                   Wall time [min]:     0.213
 
 Calculation of two-electron integrals...
   1% done.
  17% done.
  32% done.
  62% done.
 100% done.
 CPU time [min]:     2.036                   Wall time [min]:     0.262

 ************************ 2023-08-12 01:54:28 *************************
 Executing scf...

 @scfsetup: integrals taken from disk
            mrcc/integ binary format
 @scfsetup: calculating on full matrices
            not using symmetry adapted basis
 @scfsetup: diis switched on
 @scfsetup: number of steps to extrapolate from  10
 @scfsetup: tolerance in energy deviation    0.100000E-05
            tolerance in density deviation    0.100000E-06
 @scfsetup: maximum number of iterations:  50
 @scfsetup: restricted closed shell hf calc
 @scfsetup: starting scf from superposition of atomic densities
 @scfsetup: occupation set:
            from initial orbitals
 @scfsetup: Parameter-set for SCF acceleration: difficult
 @scfsetup: diis runs from iteration:   2
 @scfsetup: diis runs to iteration:  50
 @scfsetup: diis runs in every iteration
 @scfsetup: diiswatch is disabled                   
 @scfsetup: diis dtol criteria to switch on:      0.0000E+00
           (or the iteration number below is reached)
 @scfsetup: damping is turned off.
 @scfsetup: dynamic level shifting
            tolarance in HOMO-LUMO gap:  0.200
            tolarance in density deviation:     0.0000E+00
            iteration step criteria to turn level shifting off: 8
 Allocation of 1500.0 Gbytes of memory...
 ======================================================================
 ITERATION STEP   1
 CPU time [min]:     0.016                   Wall time [min]:     0.004
 

 SCF control                  : initial
 Damping factor/level shift   : 0.000/0.200
 DIIS [start/end/frequency]   :   2 / 50 /  1

 Gradient norm:      1.1088E+00
 RMS of [F,P]:                                         0.03778375235501
 RMS of difference density:                            0.04790944258775
 Gap [au]:  0.12400468
 ALPHA OCC:  38
 BETA  OCC:  38
 
 ***HARTREE-FOCK ENERGY IN STEP   1 IS       -577.5848703425856456 [AU]
 ======================================================================
 ITERATION STEP   2
 CPU time [min]:     0.095                   Wall time [min]:     0.006
 

 SCF control                  : diis
 Damping factor/level shift   : 0.000/0.200
 DIIS [start/end/frequency]   :   2 / 50 /  1

 Gradient norm:      5.7623E-01
 DIIS is running in this iteration step.
 RMS of [F,P]:                                         0.02330788719530
 RMS of difference density:                            0.02170519908760
 Gap [au]:  0.19108496
 ALPHA OCC:  38
 BETA  OCC:  38
 
 ***HARTREE-FOCK ENERGY IN STEP   2 IS       -579.1414647319111282 [AU]
 
 Step comparison  Energy Drift [au]  DIIS error drift  Gradient drift
        1            1.5566E+00         1.4476E-02       5.3258E-01
        2            5.7914E+02         1.0000E-07       5.3258E-01
 ======================================================================
 ITERATION STEP   3
 CPU time [min]:     0.170                   Wall time [min]:     0.008
 

 SCF control                  : diis
 Damping factor/level shift   : 0.000/0.200
 DIIS [start/end/frequency]   :   2 / 50 /  1

 Gradient norm:      1.9703E-01
 DIIS is running in this iteration step.
 RMS of [F,P]:                                         0.00730755195452
 RMS of difference density:                            0.00492406489509
 Gap [au]:  0.17755008
 ALPHA OCC:  38
 BETA  OCC:  38
 
 ***HARTREE-FOCK ENERGY IN STEP   3 IS       -579.5380337129727195 [AU]
 
 Step comparison  Energy Drift [au]  DIIS error drift  Gradient drift
        2            3.9657E-01         1.6000E-02       3.7919E-01
 ======================================================================
 ITERATION STEP   4
 CPU time [min]:     0.245                   Wall time [min]:     0.010
 

 SCF control                  : diis
 Damping factor/level shift   : 0.000/0.200
 DIIS [start/end/frequency]   :   2 / 50 /  1

 Gradient norm:      2.8810E-02
 DIIS is running in this iteration step.
 RMS of [F,P]:                                         0.00116320165097
 RMS of difference density:                            0.00143261690444
 Gap [au]:  0.17936081
 ALPHA OCC:  38
 BETA  OCC:  38
 
 ***HARTREE-FOCK ENERGY IN STEP   4 IS       -579.5851259002379265 [AU]
 
 Step comparison  Energy Drift [au]  DIIS error drift  Gradient drift
        3            4.7092E-02         6.1444E-03       1.6822E-01
 ======================================================================
 ITERATION STEP   5
 CPU time [min]:     0.320                   Wall time [min]:     0.012
 

 SCF control                  : diis
 Damping factor/level shift   : 0.000/0.200
 DIIS [start/end/frequency]   :   2 / 50 /  1

 Gradient norm:      1.4119E-02
 DIIS is running in this iteration step.
 RMS of [F,P]:                                         0.00027481790983
 RMS of difference density:                            0.00080765001797
 Gap [au]:  0.17995824
 ALPHA OCC:  38
 BETA  OCC:  38
 
 ***HARTREE-FOCK ENERGY IN STEP   5 IS       -579.5873278389494772 [AU]
 
 Step comparison  Energy Drift [au]  DIIS error drift  Gradient drift
        4            2.2019E-03         8.8838E-04       1.4691E-02
 ======================================================================
 ITERATION STEP   6
 CPU time [min]:     0.395                   Wall time [min]:     0.014
 

 SCF control                  : diis
 Damping factor/level shift   : 0.000/0.200
 DIIS [start/end/frequency]   :   2 / 50 /  1

 Gradient norm:      8.6354E-03
 DIIS is running in this iteration step.
 RMS of [F,P]:                                         0.00013009729687
 RMS of difference density:                            0.00037120526558
 Gap [au]:  0.18041446
 ALPHA OCC:  38
 BETA  OCC:  38
 
 ***HARTREE-FOCK ENERGY IN STEP   6 IS       -579.5877132722710030 [AU]
 
 Step comparison  Energy Drift [au]  DIIS error drift  Gradient drift
        5            3.8543E-04         1.4472E-04       5.4832E-03
 ======================================================================
 ITERATION STEP   7
 CPU time [min]:     0.470                   Wall time [min]:     0.016
 

 SCF control                  : diis
 Damping factor/level shift   : 0.000/0.200
 DIIS [start/end/frequency]   :   2 / 50 /  1

 Gradient norm:      5.2232E-03
 DIIS is running in this iteration step.
 RMS of [F,P]:                                         0.00006400495445
 RMS of difference density:                            0.00022777597064
 Gap [au]:  0.18055319
 ALPHA OCC:  38
 BETA  OCC:  38
 
 ***HARTREE-FOCK ENERGY IN STEP   7 IS       -579.5878129938846541 [AU]
 
 Step comparison  Energy Drift [au]  DIIS error drift  Gradient drift
        6            9.9722E-05         6.6092E-05       3.4122E-03
 ======================================================================
 ITERATION STEP   8
 CPU time [min]:     0.544                   Wall time [min]:     0.019
 

 SCF control                  : diis
 Damping factor/level shift   : 0.000/0.200
 DIIS [start/end/frequency]   :   2 / 50 /  1

 Gradient norm:      2.9250E-03
 DIIS is running in this iteration step.
 RMS of [F,P]:                                         0.00002810072720
 RMS of difference density:                            0.00008718387531
 Gap [au]:  0.18059053
 ALPHA OCC:  38
 BETA  OCC:  38
 
 ***HARTREE-FOCK ENERGY IN STEP   8 IS       -579.5878445991825174 [AU]
 
 Step comparison  Energy Drift [au]  DIIS error drift  Gradient drift
        7            3.1605E-05         3.5904E-05       2.2982E-03
 ======================================================================
 ITERATION STEP   9
 CPU time [min]:     0.620                   Wall time [min]:     0.021
 

 SCF control                  : diis
 Damping factor/level shift   : 0.000/0.000
 DIIS [start/end/frequency]   :   2 / 50 /  1

 Gradient norm:      1.6432E-03
 DIIS is running in this iteration step.
 RMS of [F,P]:                                         0.00001445012757
 RMS of difference density:                            0.00010098614489
 Gap [au]:  0.18063312
 ALPHA OCC:  38
 BETA  OCC:  38
 
 ***HARTREE-FOCK ENERGY IN STEP   9 IS       -579.5878510297934554 [AU]
 
 Step comparison  Energy Drift [au]  DIIS error drift  Gradient drift
        8            6.4306E-06         1.3651E-05       1.2818E-03
 ======================================================================
 ITERATION STEP  10
 CPU time [min]:     0.695                   Wall time [min]:     0.023
 

 SCF control                  : diis
 Damping factor/level shift   : 0.000/0.000
 DIIS [start/end/frequency]   :   2 / 50 /  1

 Gradient norm:      1.4031E-04
 DIIS is running in this iteration step.
 RMS of [F,P]:                                         0.00000183257935
 RMS of difference density:                            0.00001163853520
 Gap [au]:  0.18065156
 ALPHA OCC:  38
 BETA  OCC:  38
 
 ***HARTREE-FOCK ENERGY IN STEP  10 IS       -579.5878534819005381 [AU]
 
 Step comparison  Energy Drift [au]  DIIS error drift  Gradient drift
        9            2.4521E-06         1.2618E-05       1.5028E-03
 ======================================================================
 ITERATION STEP  11
 CPU time [min]:     0.770                   Wall time [min]:     0.025
 

 SCF control                  : diis
 Damping factor/level shift   : 0.000/0.000
 DIIS [start/end/frequency]   :   2 / 50 /  1

 Gradient norm:      1.9136E-05
 DIIS is running in this iteration step.
 RMS of [F,P]:                                         0.00000037893884
 RMS of difference density:                            0.00000223515344
 Gap [au]:  0.18065584
 ALPHA OCC:  38
 BETA  OCC:  38
 
 ***HARTREE-FOCK ENERGY IN STEP  11 IS       -579.5878535115250543 [AU]
 
 Step comparison  Energy Drift [au]  DIIS error drift  Gradient drift
       10            2.9625E-08         1.4536E-06       1.2117E-04
 ======================================================================
 ITERATION STEP  12
 CPU time [min]:     0.896                   Wall time [min]:     0.029
 

 SCF control                  : diis
 Damping factor/level shift   : 0.000/0.000
 DIIS [start/end/frequency]   :   2 / 50 /  1

 Gradient norm:      3.8859E-06
 DIIS is running in this iteration step.
 RMS of [F,P]:                                         0.00000008589622
 RMS of difference density:                            0.00000050934664
 Gap [au]:  0.18065681
 ALPHA OCC:  38
 BETA  OCC:  38
 
 ***HARTREE-FOCK ENERGY IN STEP  12 IS       -579.5878535124379596 [AU]
 
 Step comparison  Energy Drift [au]  DIIS error drift  Gradient drift
       11            9.1291E-10         2.9304E-07       1.5250E-05
 ======================================================================
 ITERATION STEP  13
 CPU time [min]:     0.975                   Wall time [min]:     0.031
 

 SCF control                  : diis
 Damping factor/level shift   : 0.000/0.000
 DIIS [start/end/frequency]   :   2 / 50 /  1

 Gradient norm:      1.1307E-06
 DIIS is running in this iteration step.
 RMS of [F,P]:                                         0.00000001999618
 RMS of difference density:                            0.00000009829288
 Gap [au]:  0.18065693
 ALPHA OCC:  38
 BETA  OCC:  38
 
 ***HARTREE-FOCK ENERGY IN STEP  13 IS       -579.5878535124879818 [AU]
 
 Step comparison  Energy Drift [au]  DIIS error drift  Gradient drift
       12            5.0022E-11         6.5900E-08       2.7552E-06
 ======================================================================
 
 SUCCESS...
 THE SCF ITERATION HAS CONVERGED!
 
                   A   
 FINAL ALPHA OCC:  38
 FINAL BETA  OCC:  38
 
 ***FINAL HARTREE-FOCK ENERGY:       -579.5878535124879818 [AU]
 
 Orbital energies [au]:
      Irrep         Alpha          Beta
    1   A         -4.212142      -4.212142
    2   A         -4.211407      -4.211407
    3   A         -4.177223      -4.177223
    4   A         -4.177214      -4.177214
    5   A         -2.718738      -2.718738
    6   A         -2.711685      -2.711685
    7   A         -2.710812      -2.710812
    8   A         -2.710768      -2.710768
    9   A         -2.710498      -2.710498
   10   A         -2.710131      -2.710131
   11   A         -2.677335      -2.677335
   12   A         -2.677061      -2.677061
   13   A         -2.675030      -2.675030
   14   A         -2.674894      -2.674894
   15   A         -2.673498      -2.673498
   16   A         -2.673483      -2.673483
   17   A         -0.568482      -0.568482
   18   A         -0.566854      -0.566854
   19   A         -0.550138      -0.550138
   20   A         -0.543017      -0.543017
   21   A         -0.538209      -0.538209
   22   A         -0.536910      -0.536910
   23   A         -0.524369      -0.524369
   24   A         -0.520546      -0.520546
   25   A         -0.506720      -0.506720
   26   A         -0.502135      -0.502135
   27   A         -0.489771      -0.489771
   28   A         -0.486664      -0.486664
   29   A         -0.486303      -0.486303
   30   A         -0.485275      -0.485275
   31   A         -0.480120      -0.480120
   32   A         -0.478914      -0.478914
   33   A         -0.477084      -0.477084
   34   A         -0.476807      -0.476807
   35   A         -0.470868      -0.470868
   36   A         -0.457200      -0.457200
   37   A         -0.298370      -0.298370
   38   A         -0.187058      -0.187058
 
   39   A         -0.006401      -0.006401
   40   A          0.023836       0.023836
   41   A          0.026663       0.026663
   42   A          0.048766       0.048766
   43   A          0.049970       0.049970
   44   A          0.056345       0.056345
   45   A          0.062770       0.062770
   46   A          0.072139       0.072139
   47   A          0.086321       0.086321
   48   A          0.093072       0.093072
   49   A          0.095373       0.095373
   50   A          0.103615       0.103615
   51   A          0.113308       0.113308
   52   A          0.120623       0.120623
   53   A          0.153817       0.153817
   54   A          0.170046       0.170046
   55   A          0.182533       0.182533
   56   A          0.187290       0.187290
   57   A          0.211415       0.211415
   58   A          0.239561       0.239561
   59   A          0.257678       0.257678
   60   A          0.271624       0.271624
   61   A          0.310093       0.310093
   62   A          0.330063       0.330063
   63   A          0.344837       0.344837
   64   A          0.372803       0.372803
   65   A          0.599540       0.599540
   66   A          0.689722       0.689722
   67   A          0.701995       0.701995
   68   A          0.702628       0.702628
   69   A          0.706316       0.706316
   70   A          0.741222       0.741222
   71   A          0.776889       0.776889
   72   A          0.814367       0.814367
   73   A          0.860535       0.860535
   74   A          0.863669       0.863669
   75   A          0.897990       0.897990
   76   A          0.936094       0.936094
   77   A          0.957703       0.957703
   78   A          0.964128       0.964128
   79   A          0.979834       0.979834
   80   A          1.003642       1.003642
   81   A          1.046865       1.046865
   82   A          1.056916       1.056916
   83   A          1.095658       1.095658
   84   A          1.197673       1.197673
   85   A          1.237404       1.237404
   86   A          1.817239       1.817239
   87   A          2.002626       2.002626
   88   A          2.113887       2.113887
 
 RETURNING FROM SCF ALGORITHM
 ======================================================================

 ************************ 2023-08-12 01:54:31 *************************
 Executing ovirt...

 ovirt, the routine of orbital optimization and integral transformation 
Sat Aug 12 01:54:31 BST 2023
 memory =                1536000  Mb          201326592000  8 byte word
 mrccboot = T
 scftype  = rhf  
 localcc  = off 
 core     = 16    
 ovirt    = off  
 ccprog   = mrcc
 dfnbasis =                      0
 dfbasis_cor =none                
 lmp2dens = on 
 dens =                      0
 verblev =                      3
 task     =                      4
 epsilon =   0.000000000000000E+000
 lmp2= on 
 localNO  =  F
 localMP2 =  F
 localMP2_TEST =  F
 LMP2_shortcut =  F
 FOCKTR   =  T
 Allocated memory:                 1536000  Mb
 onbasis=                    88
 RHF calculation! 
 integral transforamtion: AOs ------ MOs
 # of basis functions, # of int. blocks    88     1
100 % 
 second part
100 %
 integral transformation is completed! 
CPU and WC time          69.00           4.35     AOs -> MOs 
 occupied and 
     1 -0.5684819791
     2 -0.5668539122
     3 -0.5501383717
     4 -0.5430174537
     5 -0.5382088382
     6 -0.5369102488
     7 -0.5243686673
     8 -0.5205463675
     9 -0.5067201652
    10 -0.5021346264
    11 -0.4897710302
    12 -0.4866639168
    13 -0.4863028690
    14 -0.4852751880
    15 -0.4801201528
    16 -0.4789136938
    17 -0.4770837550
    18 -0.4768074739
    19 -0.4708682426
    20 -0.4571995264
    21 -0.2983704956
    22 -0.1870581409
               virtual energies 
    23 -0.0064012132
    24  0.0238364454
    25  0.0266633838
    26  0.0487662847
    27  0.0499697258
    28  0.0563445100
    29  0.0627700203
    30  0.0721392125
    31  0.0863214753
    32  0.0930715869
    33  0.0953732896
    34  0.1036146428
    35  0.1133080919
    36  0.1206225764
    37  0.1538174618
    38  0.1700462973
    39  0.1825334619
    40  0.1872897778
    41  0.2114153787
    42  0.2395613200
    43  0.2576776489
    44  0.2716236408
    45  0.3100927347
    46  0.3300634633
    47  0.3448369978
    48  0.3728032527
    49  0.5995397866
    50  0.6897222608
    51  0.7019949037
    52  0.7026277602
    53  0.7063156770
    54  0.7412221469
    55  0.7768892361
    56  0.8143668581
    57  0.8605348074
    58  0.8636692979
    59  0.8979899387
    60  0.9360940058
    61  0.9577027001
    62  0.9641279940
    63  0.9798340951
    64  1.0036420963
    65  1.0468652657
    66  1.0569156250
    67  1.0956580167
    68  1.1976726224
    69  1.2374042639
    70  1.8172385216
    71  2.0026261572
    72  2.1138868156
 inttol =   1.000000000000000E-010   10.0000000000000     
Integrals are written to fort.55
Sat Aug 12 01:54:41 BST 2023
  ovirt terminated normally 

 ************************ 2023-08-12 01:54:42 *************************
 Executing goldstone...

 Generation of CC equations in terms of H and T...
 Generation of antisymmetrized Goldstone diagrams...
 Number of diagrams in T^1 equations:    15
 Number of diagrams in T^2 equations:    33
 Number of diagrams in T^3 equations:     2
 Translation of diagrams to factorized equations...
 Optimizing intermediate calculation...
 Number of floating-point operations per iteration step:   2.9963E+12
 Probable CPU time per iteration step (hours):     29.96
 Required memory (Mbytes):   16338.8
 Number of intermediates:                                  48
 Number of intermediates to be stored:                     20
 Length of intermediate file (Mbytes):     483.2

 ************************ 2023-08-12 01:54:42 *************************
 Executing xmrcc...

 **********************************************************************
 CC(2)(3) calculation 
 
 
 Allocation of****** Mbytes of memory...
 Number of spinorbitals:                   144
 Number of alpha electrons:                       22
 Number of beta electrons:                        22
 Spin multiplicity:                     1
 z-component of spin:  0.0
 Spatial symmetry:                      1
 Convergence criterion:  1.0E-06
 Construction of occupation graphs...
 Number of                     0 -fold excitations:                      1
 Number of                     1 -fold excitations:                   2200
 Number of                     2 -fold excitations:                1775950
 Total number of configurations:                1778151
 Calculation of coupling coefficients...
 Length of intermediate file (Mbytes):     364.0
 
 ======================================================================
 
 Spin case  1   Alpha:  0   Beta:  3
 Number of excitations:               30184000
 Spin case  2   Alpha:  1   Beta:  2
 Number of excitations:              311272500
 Number of                     3 -fold excitations:              682913000
 
 Memory requirements /Mbyte/: 
               Minimal        Optimal
 Real*8:        803.0159       916.1870
 Integer:         0.5524
 Total:         803.5683       916.7394
 

 ************************ 2023-08-12 01:54:42 *************************
 Executing mrcc...

 **********************************************************************
 CCSD(T) calculation                                                    
 
 
 OpenMP parallel version is running.
 Number of CPU cores:  36
 Allocation of  916.2 Mbytes of memory...
 Number of spinorbitals: 144
 Number of alpha electrons: 22
 Number of beta  electrons: 22
 Spin multiplicity: 1
 z-component of spin:  0.0
 Spatial symmetry: 1
 Convergence criterion:  1.0E-06
 Construction of occupation graphs...
 Number of 0-fold excitations: 1
 Number of 1-fold excitations: 2200
 Number of 2-fold excitations: 1775950
 Total number of determinants: 1778151
 Calculation of coupling coefficients...
 Initial cluster amplitudes are generated.
 Length of intermediate file (Mbytes):     364.0
 Reading integral list from unit 55...
 Sorting integrals...
 Calculation of MP denominators...
 
 Starting CC iteration...
 ======================================================================
 Norm of residual vector:     0.85029533
 CPU time [min]:     9.107                   Wall time [min]:     0.409
 
 Iteration  1  CC energy:  -579.90343459  Energy decrease:   0.31558108
 ======================================================================
 Norm of residual vector:     0.16948203
 CPU time [min]:    18.381                   Wall time [min]:     0.731
 
 Iteration  2  CC energy:  -579.89127954  Energy decrease:   0.01215505
 ======================================================================
 Norm of residual vector:     0.05142517
 CPU time [min]:    27.825                   Wall time [min]:     1.059
 
 Iteration  3  CC energy:  -579.90725712  Energy decrease:   0.01597758
 ======================================================================
 Norm of residual vector:     0.01396349
 CPU time [min]:    37.259                   Wall time [min]:     1.385
 
 Iteration  4  CC energy:  -579.90954805  Energy decrease:   0.00229093
 ======================================================================
 Norm of residual vector:     0.00603148
 CPU time [min]:    46.878                   Wall time [min]:     1.717
 
 Iteration  5  CC energy:  -579.90963502  Energy decrease:   0.00008697
 ======================================================================
 Norm of residual vector:     0.00204669
 CPU time [min]:    56.479                   Wall time [min]:     2.048
 
 Iteration  6  CC energy:  -579.90961451  Energy decrease:   0.00002051
 ======================================================================
 Norm of residual vector:     0.00096195
 CPU time [min]:    66.233                   Wall time [min]:     2.384
 
 Iteration  7  CC energy:  -579.90961414  Energy decrease:   0.00000037
 ======================================================================
 Norm of residual vector:     0.00046188
 CPU time [min]:    75.968                   Wall time [min]:     2.719
 
 Iteration  8  CC energy:  -579.90961236  Energy decrease:   0.00000178
 ======================================================================
 Norm of residual vector:     0.00021587
 CPU time [min]:    85.885                   Wall time [min]:     3.059
 
 Iteration  9  CC energy:  -579.90961566  Energy decrease:   0.00000330
 ======================================================================
 Norm of residual vector:     0.00009189
 CPU time [min]:    95.781                   Wall time [min]:     3.398
 
 Iteration 10  CC energy:  -579.90961763  Energy decrease:   0.00000196
 ======================================================================
 Norm of residual vector:     0.00003657
 CPU time [min]:   105.855                   Wall time [min]:     3.743
 
 Iteration 11  CC energy:  -579.90961739  Energy decrease:   0.00000024
 ======================================================================
 Norm of residual vector:     0.00001575
 CPU time [min]:   115.907                   Wall time [min]:     4.086
 
 Iteration 12  CC energy:  -579.90961713  Energy decrease:   0.00000026
 ======================================================================
 Norm of residual vector:     0.00000679
 CPU time [min]:   126.121                   Wall time [min]:     4.436
 
 Iteration 13  CC energy:  -579.90961720  Energy decrease:   0.00000007
 ======================================================================
 Norm of residual vector:     0.00000299
 CPU time [min]:   136.337                   Wall time [min]:     4.784
 
 Iteration 14  CC energy:  -579.90961728  Energy decrease:   0.00000008
 ======================================================================
 Norm of residual vector:     0.00000123
 CPU time [min]:   146.700                   Wall time [min]:     5.138
 
 Iteration 15  CC energy:  -579.90961728  Energy decrease:   3.5287E-09
 ======================================================================
 Norm of residual vector:     0.00000051
 CPU time [min]:   157.097                   Wall time [min]:     5.492
 
 Iteration 16  CC energy:  -579.90961727  Energy decrease:   0.00000001
 ======================================================================
 
 Iteration has converged in 16 steps.
 
 Final results:
 Total CCSD energy [au]:            -579.909617270745
 Total MP2 energy [au]:             -579.903434593377
 
 Perturbative corrections are calculated...
 ======================================================================
 Spin case  1   Alpha:  0   Beta:  3
 Number of excitations:        30184000
 CPU time [min]:   157.601                   Wall time [min]:     5.514
 ======================================================================
 Spin case  2   Alpha:  1   Beta:  2
 Number of excitations:        311272500
 CPU time [min]:   160.244                   Wall time [min]:     5.587
 ======================================================================
 Number of 3-fold excitations: 682913000
 CPU time [min]:   160.244                   Wall time [min]:     5.587
 
 Total CCSD[T] energy [au]:         -579.935722012518
 Total CCSD(T) energy [au]:         -579.930928239533
 
 ************************ 2023-08-12 02:00:18 *************************
                      Normal termination of mrcc.
 **********************************************************************
