 **********************************************************************
                          MRCC program system
 **********************************************************************
 
                              Written by
     Mihaly Kallay, Peter R. Nagy, David Mester, Laszlo Gyevi-Nagy,
        Jozsef Csoka, P. Bernat Szabo, Zoltan Rolik, Gyula Samu,
     Jozsef Csontos, Bence Hegely, Adam Ganyecz, Istvan Ladjanszki,
       Lorant Szegedy, Bence Ladoczki, Klara Petrov, Mate Farkas,
                    Pal D. Mezei, and Reka A. Horvath
 
        Department of Physical Chemistry and Materials Science
            Budapest University of Technology and Economics
                  Budapest P.O.Box 91, H-1521 Hungary
 
                              www.mrcc.hu
 
                      Release date: March 18, 2022

 ************************ 2023-02-26 22:53:40 *************************
 Executing minp...

 Reading input from MINP...
 
 Input file:
 
calc=LNO-CCSD(T)
verbosity=3
mem=220GB
symm=off
unit=angs
scfiguess=mo
scfalg=locfit1
lcorthr=normal
bpedo=0.99999
usedisk=0
ccmaxit=400
ccsdalg=dfdirect
ccsdthreads=4
ccsdmkl=thr
ptthreads=4
ECP=MCDHF-ECP-28
basis=bse_ACVTZ
basis_sm=def2-SVP
dfbasis_scf=def2-QZVPP-RI-JK
dfbasis_cor=bse_ACVTZ_mp2fit
core=0
unit=angs
geom=xyz
4
Ag4_3
Ag    -3.91519123     0.00000000     0.00000000
Ag    -1.33903965     0.00000000     0.00000000
Ag     1.33903965     0.00000000     0.00000000
Ag     3.91519123     0.00000000     0.00000000

ghost=serialno


 
 
 Checking keyword combinations...
 
 Keywords:
 
 active=none
 agrid=ld0006-ld0590
 agrid_pssp=ld0006-ld0194
 agrid_pssp_sm=ld0006-ld0074
 basis=bse_acvtz
 basis_sm=def2-svp
 basopt=off
 bfbasis=none
 bfgsmem=10
 bfgstol=1.0d-3
 bpcompo=0.985
 bpcompv=0.98
 bpdfo=0.985
 bpocc=0.99999
 bppdo=0.999d0
 bppdv=0.98
 bpedo=0.99999
 bpedv=0.995d0
 calc=ccsd(t)
 ccmaxit=400
 ccprog=ccsd
 ccsdalg=dfdirect
 ccsdmkl=thr
 ccsdrest=off
 ccsdthreads=4
 cctol=5
 charge=0
 cialg=direct
 ciguess=off
 cmpgrp=auto
 comprest=off
 core=corr
 corembed=off
 csapprox=off
 cvs=off
 dboc=off
 delocsomofact=
 dendec=cholesky
 dens=0
 dfalg=lineq
 dfbasis_cab=none
 dfbasis_cor=bse_acvtz_mp2fit
 dfbasis_scf=def2-qzvpp-ri-jk
 dfbasis_scf_sm=def2-qzvpp-ri-jk
 dfintran=drpa
 dft=off
 dhexc=adc(2)
 diag=david
 docc=
 domrad=10.d0
 drpaalg=auto
 dual=off
 dual_df=off
 ecp=mcdhf-ecp-28
 edisp=off
 edisp_embed=off
 embed=off
 etemp=300
 epert=none
 eps=
 espcharge=off
 excrad=1.0
 excrad_fin=0.100000000D-02
 fitting=coulomb
 fmm=off
 fmmord=8
 freq=off
 gamma=1.d0
 gauss=spher
 geom=xyz
 gopt=off
 ghost=serialno
 gtol=7
 grdens=off
 gridbatch_cos=2000
 grtol=10
 guido_ct=off
 hamilton=dc
 iface=none
 intalg=auto
 itol=10
 laptol=1.d-2
 lccoporder=lccfirst
 lcorthr=normal
 lccrest=off
 lmp2dens=on
 lnoepso=1e-5
 lnoepsv=1e-6
 boysalg=jacobi
 localcc=2021
 localcorrsymm=off
 locintrf=direct
 mact=
 maxact=off
 maxdim=100
 maxex=0
 maxmicroit=100
 mcscfiguess=hf
 mem=220gb
 mmprog=
 molden=on
 mpitasks=1
 mulmet=3
 mult=
 nacto=0
 nactv=0
 naf_amp=1.d-2
 naf_cor=1e-2
 naf_scf=off
 nafalg=albe
 naftyp=jpq
 nchol=auto
 ndeps=1e-3
 nstate=1
 nsing=0
 nto=off
 ntrip=0
 occ=
 occri=off
 oniom=off
 oniom_eechg=off
 oniom_pcm=off
 oniom_qcorr=off
 optalg=
 optmaxit=50
 optetol=1e-6
 optex=0
 optgtol=1e-4
 optstol=1e-3
 orblocc=boys
 orbloce=off
 orbloco=boys
 orblocv=pao
 orblocguess=cholesky
 osveps=-1.d0
 ovirt=off
 ovltol=1e-7
 ovosnorb=80.0
 pcm=off
 popul=off
 pressure=100000
 pssp=off
 ptfreq=0.0
 ptthreads=4
 qro=off
 qscf=off
 qmmm=off
 redcost_exc=off
 redcost_tddft=0.985d0
 refdet=none
 rest=0
 rgrid=log3
 rism=off
 rohfcore=standard
 rohftype=semicanonical
 scfalg=locfit1
 scf_conv=difficult
 scfdamp=0.0d0
 scfdamp_mode=off
 scfdamp_end=50
 scfdamp_dampstep=0.d0
 scfdamp_dtol=0.0d0
 scfdamp_maxfact=0.0d0
 scfdamp_minfact=0.0d0
 scfdiis=on
 scfdiis_dtol=0.0d0
 scfdiis_end=50
 scfdiis_start=2
 scfdiis_step=1
 scfdiis_watch=off
 scfdiis_wrange=10
 scfdiis_wlimit=5
 scfdiis_delmax=2
 scfdtol=7
 scfext=10
 scfguessdens=
 scfiguess=mo
 scfloc=pm
 scflshift=0.20
 scflshift_end=8
 scflshift_dtol=0.0
 scflshift_gaptol=0.20
 scfmaxit=50
 scftype=
 scftol=6
 scspe=1.d0
 scsph=1.d0
 scsps=1.2d0
 scsps_t=1.2d0
 scspt=0.33333333333333
 scspt_t=0.33333333333333
 scspv=1.d0
 spairtol=-1.d0
 sqmprog=
 subminp=top
 symm=0
 talg=lapl
 temp=298.15
 test=off
 theodore=off
 tlmo=0.999
 tpao=0.94
 tprint=off
 uncontract=off
 unit=angs
 usedisk=0
 verbosity=3
 wpairtol=1.d-5

 ************************ 2023-02-26 22:53:41 *************************
 Executing integ...

 Allocation of 220.0 Gbytes of memory...
 
 
 Number of atoms:                  4
 Charge:                           0
 Number of electrons:             76
 Number of core electrons:        32
 Spin multiplicity:                1
 
                 Cartesian coordinates [bohr]      Atomic mass [AMU]  Z
   1  Ag   -7.39863915    0.00000000    0.00000000   106.905092      47
   2  Ag   -2.53041821    0.00000000    0.00000000   106.905092      47
   3  Ag    2.53041821    0.00000000    0.00000000   106.905092      47
   4  Ag    7.39863915    0.00000000    0.00000000   106.905092      47
 
 This molecule is linear.
 
 Point group: Dxh 
 Computational point group: C1  
 
 Cartesian coordinates in standard orientation [bohr]
   1  Ag    0.00000000    0.00000000   -7.39863915
   2  Ag    0.00000000    0.00000000   -2.53041821
   3  Ag    0.00000000    0.00000000    2.53041821
   4  Ag    0.00000000    0.00000000    7.39863915
 
 Nuclear repulsion energy [au]:        316.753124874413
 
 
 Basis set information:
 
 Maximum angular momentum: i
 Maximum number of contracted Gaussians:   13
 Maximum number of primitive Gaussians:    13
 Spherical harmonic GTOs are used.
 
 
 Conventional basis set:
 
   1  Ag bse_acvtz [ 13s 12p 11d 4f 3g | 8s 8p 7d 4f 3g ]
   2  Ag bse_acvtz [ 13s 12p 11d 4f 3g | 8s 8p 7d 4f 3g ]
   3  Ag bse_acvtz [ 13s 12p 11d 4f 3g | 8s 8p 7d 4f 3g ]
   4  Ag bse_acvtz [ 13s 12p 11d 4f 3g | 8s 8p 7d 4f 3g ]
 
 Basis functions:
            1             2             3             4             5             6             7             8             9            10
    0    1Ag1s         1Ag2s         1Ag3s         1Ag4s         1Ag5s         1Ag6s         1Ag7s         1Ag8s         1Ag1pz        1Ag1py    
    1    1Ag1px        1Ag2pz        1Ag2py        1Ag2px        1Ag3pz        1Ag3py        1Ag3px        1Ag4pz        1Ag4py        1Ag4px    
    2    1Ag5pz        1Ag5py        1Ag5px        1Ag6pz        1Ag6py        1Ag6px        1Ag7pz        1Ag7py        1Ag7px        1Ag8pz    
    3    1Ag8py        1Ag8px        1Ag1d-2       1Ag1d-1       1Ag1d0        1Ag1d+1       1Ag1d+2       1Ag2d-2       1Ag2d-1       1Ag2d0    
    4    1Ag2d+1       1Ag2d+2       1Ag3d-2       1Ag3d-1       1Ag3d0        1Ag3d+1       1Ag3d+2       1Ag4d-2       1Ag4d-1       1Ag4d0    
    5    1Ag4d+1       1Ag4d+2       1Ag5d-2       1Ag5d-1       1Ag5d0        1Ag5d+1       1Ag5d+2       1Ag6d-2       1Ag6d-1       1Ag6d0    
    6    1Ag6d+1       1Ag6d+2       1Ag7d-2       1Ag7d-1       1Ag7d0        1Ag7d+1       1Ag7d+2       1Ag1f-3       1Ag1f-2       1Ag1f-1   
    7    1Ag1f0        1Ag1f+1       1Ag1f+2       1Ag1f+3       1Ag2f-3       1Ag2f-2       1Ag2f-1       1Ag2f0        1Ag2f+1       1Ag2f+2   
    8    1Ag2f+3       1Ag3f-3       1Ag3f-2       1Ag3f-1       1Ag3f0        1Ag3f+1       1Ag3f+2       1Ag3f+3       1Ag4f-3       1Ag4f-2   
    9    1Ag4f-1       1Ag4f0        1Ag4f+1       1Ag4f+2       1Ag4f+3       1Ag1g-4       1Ag1g-3       1Ag1g-2       1Ag1g-1       1Ag1g0    
   10    1Ag1g+1       1Ag1g+2       1Ag1g+3       1Ag1g+4       1Ag2g-4       1Ag2g-3       1Ag2g-2       1Ag2g-1       1Ag2g0        1Ag2g+1   
   11    1Ag2g+2       1Ag2g+3       1Ag2g+4       1Ag3g-4       1Ag3g-3       1Ag3g-2       1Ag3g-1       1Ag3g0        1Ag3g+1       1Ag3g+2   
   12    1Ag3g+3       1Ag3g+4       2Ag1s         2Ag2s         2Ag3s         2Ag4s         2Ag5s         2Ag6s         2Ag7s         2Ag8s     
   13    2Ag1pz        2Ag1py        2Ag1px        2Ag2pz        2Ag2py        2Ag2px        2Ag3pz        2Ag3py        2Ag3px        2Ag4pz    
   14    2Ag4py        2Ag4px        2Ag5pz        2Ag5py        2Ag5px        2Ag6pz        2Ag6py        2Ag6px        2Ag7pz        2Ag7py    
   15    2Ag7px        2Ag8pz        2Ag8py        2Ag8px        2Ag1d-2       2Ag1d-1       2Ag1d0        2Ag1d+1       2Ag1d+2       2Ag2d-2   
   16    2Ag2d-1       2Ag2d0        2Ag2d+1       2Ag2d+2       2Ag3d-2       2Ag3d-1       2Ag3d0        2Ag3d+1       2Ag3d+2       2Ag4d-2   
   17    2Ag4d-1       2Ag4d0        2Ag4d+1       2Ag4d+2       2Ag5d-2       2Ag5d-1       2Ag5d0        2Ag5d+1       2Ag5d+2       2Ag6d-2   
   18    2Ag6d-1       2Ag6d0        2Ag6d+1       2Ag6d+2       2Ag7d-2       2Ag7d-1       2Ag7d0        2Ag7d+1       2Ag7d+2       2Ag1f-3   
   19    2Ag1f-2       2Ag1f-1       2Ag1f0        2Ag1f+1       2Ag1f+2       2Ag1f+3       2Ag2f-3       2Ag2f-2       2Ag2f-1       2Ag2f0    
   20    2Ag2f+1       2Ag2f+2       2Ag2f+3       2Ag3f-3       2Ag3f-2       2Ag3f-1       2Ag3f0        2Ag3f+1       2Ag3f+2       2Ag3f+3   
   21    2Ag4f-3       2Ag4f-2       2Ag4f-1       2Ag4f0        2Ag4f+1       2Ag4f+2       2Ag4f+3       2Ag1g-4       2Ag1g-3       2Ag1g-2   
   22    2Ag1g-1       2Ag1g0        2Ag1g+1       2Ag1g+2       2Ag1g+3       2Ag1g+4       2Ag2g-4       2Ag2g-3       2Ag2g-2       2Ag2g-1   
   23    2Ag2g0        2Ag2g+1       2Ag2g+2       2Ag2g+3       2Ag2g+4       2Ag3g-4       2Ag3g-3       2Ag3g-2       2Ag3g-1       2Ag3g0    
   24    2Ag3g+1       2Ag3g+2       2Ag3g+3       2Ag3g+4       3Ag1s         3Ag2s         3Ag3s         3Ag4s         3Ag5s         3Ag6s     
   25    3Ag7s         3Ag8s         3Ag1pz        3Ag1py        3Ag1px        3Ag2pz        3Ag2py        3Ag2px        3Ag3pz        3Ag3py    
   26    3Ag3px        3Ag4pz        3Ag4py        3Ag4px        3Ag5pz        3Ag5py        3Ag5px        3Ag6pz        3Ag6py        3Ag6px    
   27    3Ag7pz        3Ag7py        3Ag7px        3Ag8pz        3Ag8py        3Ag8px        3Ag1d-2       3Ag1d-1       3Ag1d0        3Ag1d+1   
   28    3Ag1d+2       3Ag2d-2       3Ag2d-1       3Ag2d0        3Ag2d+1       3Ag2d+2       3Ag3d-2       3Ag3d-1       3Ag3d0        3Ag3d+1   
   29    3Ag3d+2       3Ag4d-2       3Ag4d-1       3Ag4d0        3Ag4d+1       3Ag4d+2       3Ag5d-2       3Ag5d-1       3Ag5d0        3Ag5d+1   
   30    3Ag5d+2       3Ag6d-2       3Ag6d-1       3Ag6d0        3Ag6d+1       3Ag6d+2       3Ag7d-2       3Ag7d-1       3Ag7d0        3Ag7d+1   
   31    3Ag7d+2       3Ag1f-3       3Ag1f-2       3Ag1f-1       3Ag1f0        3Ag1f+1       3Ag1f+2       3Ag1f+3       3Ag2f-3       3Ag2f-2   
   32    3Ag2f-1       3Ag2f0        3Ag2f+1       3Ag2f+2       3Ag2f+3       3Ag3f-3       3Ag3f-2       3Ag3f-1       3Ag3f0        3Ag3f+1   
   33    3Ag3f+2       3Ag3f+3       3Ag4f-3       3Ag4f-2       3Ag4f-1       3Ag4f0        3Ag4f+1       3Ag4f+2       3Ag4f+3       3Ag1g-4   
   34    3Ag1g-3       3Ag1g-2       3Ag1g-1       3Ag1g0        3Ag1g+1       3Ag1g+2       3Ag1g+3       3Ag1g+4       3Ag2g-4       3Ag2g-3   
   35    3Ag2g-2       3Ag2g-1       3Ag2g0        3Ag2g+1       3Ag2g+2       3Ag2g+3       3Ag2g+4       3Ag3g-4       3Ag3g-3       3Ag3g-2   
   36    3Ag3g-1       3Ag3g0        3Ag3g+1       3Ag3g+2       3Ag3g+3       3Ag3g+4       4Ag1s         4Ag2s         4Ag3s         4Ag4s     
   37    4Ag5s         4Ag6s         4Ag7s         4Ag8s         4Ag1pz        4Ag1py        4Ag1px        4Ag2pz        4Ag2py        4Ag2px    
   38    4Ag3pz        4Ag3py        4Ag3px        4Ag4pz        4Ag4py        4Ag4px        4Ag5pz        4Ag5py        4Ag5px        4Ag6pz    
   39    4Ag6py        4Ag6px        4Ag7pz        4Ag7py        4Ag7px        4Ag8pz        4Ag8py        4Ag8px        4Ag1d-2       4Ag1d-1   
   40    4Ag1d0        4Ag1d+1       4Ag1d+2       4Ag2d-2       4Ag2d-1       4Ag2d0        4Ag2d+1       4Ag2d+2       4Ag3d-2       4Ag3d-1   
   41    4Ag3d0        4Ag3d+1       4Ag3d+2       4Ag4d-2       4Ag4d-1       4Ag4d0        4Ag4d+1       4Ag4d+2       4Ag5d-2       4Ag5d-1   
   42    4Ag5d0        4Ag5d+1       4Ag5d+2       4Ag6d-2       4Ag6d-1       4Ag6d0        4Ag6d+1       4Ag6d+2       4Ag7d-2       4Ag7d-1   
   43    4Ag7d0        4Ag7d+1       4Ag7d+2       4Ag1f-3       4Ag1f-2       4Ag1f-1       4Ag1f0        4Ag1f+1       4Ag1f+2       4Ag1f+3   
   44    4Ag2f-3       4Ag2f-2       4Ag2f-1       4Ag2f0        4Ag2f+1       4Ag2f+2       4Ag2f+3       4Ag3f-3       4Ag3f-2       4Ag3f-1   
   45    4Ag3f0        4Ag3f+1       4Ag3f+2       4Ag3f+3       4Ag4f-3       4Ag4f-2       4Ag4f-1       4Ag4f0        4Ag4f+1       4Ag4f+2   
   46    4Ag4f+3       4Ag1g-4       4Ag1g-3       4Ag1g-2       4Ag1g-1       4Ag1g0        4Ag1g+1       4Ag1g+2       4Ag1g+3       4Ag1g+4   
   47    4Ag2g-4       4Ag2g-3       4Ag2g-2       4Ag2g-1       4Ag2g0        4Ag2g+1       4Ag2g+2       4Ag2g+3       4Ag2g+4       4Ag3g-4   
   48    4Ag3g-3       4Ag3g-2       4Ag3g-1       4Ag3g0        4Ag3g+1       4Ag3g+2       4Ag3g+3       4Ag3g+4   
 
 Maximum number of basis functions per shell:   35
 Total number of basis functions:    488
 
 
 Fitting basis set for the SCF calculation:
 
   1  Ag def2-qzvpp-ri-jk [ 13s 12p 10d 9f 6g 3h 2i | 11s 10p 9d 8f 6g 3h 2i ]
   2  Ag def2-qzvpp-ri-jk [ 13s 12p 10d 9f 6g 3h 2i | 11s 10p 9d 8f 6g 3h 2i ]
   3  Ag def2-qzvpp-ri-jk [ 13s 12p 10d 9f 6g 3h 2i | 11s 10p 9d 8f 6g 3h 2i ]
   4  Ag def2-qzvpp-ri-jk [ 13s 12p 10d 9f 6g 3h 2i | 11s 10p 9d 8f 6g 3h 2i ]
 
 Basis functions:
            1             2             3             4             5             6             7             8             9            10
    0    1Ag1s         1Ag2s         1Ag3s         1Ag4s         1Ag5s         1Ag6s         1Ag7s         1Ag8s         1Ag9s         1Ag10s    
    1    1Ag11s        1Ag1pz        1Ag1py        1Ag1px        1Ag2pz        1Ag2py        1Ag2px        1Ag3pz        1Ag3py        1Ag3px    
    2    1Ag4pz        1Ag4py        1Ag4px        1Ag5pz        1Ag5py        1Ag5px        1Ag6pz        1Ag6py        1Ag6px        1Ag7pz    
    3    1Ag7py        1Ag7px        1Ag8pz        1Ag8py        1Ag8px        1Ag9pz        1Ag9py        1Ag9px        1Ag10pz       1Ag10py   
    4    1Ag10px       1Ag1d-2       1Ag1d-1       1Ag1d0        1Ag1d+1       1Ag1d+2       1Ag2d-2       1Ag2d-1       1Ag2d0        1Ag2d+1   
    5    1Ag2d+2       1Ag3d-2       1Ag3d-1       1Ag3d0        1Ag3d+1       1Ag3d+2       1Ag4d-2       1Ag4d-1       1Ag4d0        1Ag4d+1   
    6    1Ag4d+2       1Ag5d-2       1Ag5d-1       1Ag5d0        1Ag5d+1       1Ag5d+2       1Ag6d-2       1Ag6d-1       1Ag6d0        1Ag6d+1   
    7    1Ag6d+2       1Ag7d-2       1Ag7d-1       1Ag7d0        1Ag7d+1       1Ag7d+2       1Ag8d-2       1Ag8d-1       1Ag8d0        1Ag8d+1   
    8    1Ag8d+2       1Ag9d-2       1Ag9d-1       1Ag9d0        1Ag9d+1       1Ag9d+2       1Ag1f-3       1Ag1f-2       1Ag1f-1       1Ag1f0    
    9    1Ag1f+1       1Ag1f+2       1Ag1f+3       1Ag2f-3       1Ag2f-2       1Ag2f-1       1Ag2f0        1Ag2f+1       1Ag2f+2       1Ag2f+3   
   10    1Ag3f-3       1Ag3f-2       1Ag3f-1       1Ag3f0        1Ag3f+1       1Ag3f+2       1Ag3f+3       1Ag4f-3       1Ag4f-2       1Ag4f-1   
   11    1Ag4f0        1Ag4f+1       1Ag4f+2       1Ag4f+3       1Ag5f-3       1Ag5f-2       1Ag5f-1       1Ag5f0        1Ag5f+1       1Ag5f+2   
   12    1Ag5f+3       1Ag6f-3       1Ag6f-2       1Ag6f-1       1Ag6f0        1Ag6f+1       1Ag6f+2       1Ag6f+3       1Ag7f-3       1Ag7f-2   
   13    1Ag7f-1       1Ag7f0        1Ag7f+1       1Ag7f+2       1Ag7f+3       1Ag8f-3       1Ag8f-2       1Ag8f-1       1Ag8f0        1Ag8f+1   
   14    1Ag8f+2       1Ag8f+3       1Ag1g-4       1Ag1g-3       1Ag1g-2       1Ag1g-1       1Ag1g0        1Ag1g+1       1Ag1g+2       1Ag1g+3   
   15    1Ag1g+4       1Ag2g-4       1Ag2g-3       1Ag2g-2       1Ag2g-1       1Ag2g0        1Ag2g+1       1Ag2g+2       1Ag2g+3       1Ag2g+4   
   16    1Ag3g-4       1Ag3g-3       1Ag3g-2       1Ag3g-1       1Ag3g0        1Ag3g+1       1Ag3g+2       1Ag3g+3       1Ag3g+4       1Ag4g-4   
   17    1Ag4g-3       1Ag4g-2       1Ag4g-1       1Ag4g0        1Ag4g+1       1Ag4g+2       1Ag4g+3       1Ag4g+4       1Ag5g-4       1Ag5g-3   
   18    1Ag5g-2       1Ag5g-1       1Ag5g0        1Ag5g+1       1Ag5g+2       1Ag5g+3       1Ag5g+4       1Ag6g-4       1Ag6g-3       1Ag6g-2   
   19    1Ag6g-1       1Ag6g0        1Ag6g+1       1Ag6g+2       1Ag6g+3       1Ag6g+4       1Ag1h-5       1Ag1h-4       1Ag1h-3       1Ag1h-2   
   20    1Ag1h-1       1Ag1h0        1Ag1h+1       1Ag1h+2       1Ag1h+3       1Ag1h+4       1Ag1h+5       1Ag2h-5       1Ag2h-4       1Ag2h-3   
   21    1Ag2h-2       1Ag2h-1       1Ag2h0        1Ag2h+1       1Ag2h+2       1Ag2h+3       1Ag2h+4       1Ag2h+5       1Ag3h-5       1Ag3h-4   
   22    1Ag3h-3       1Ag3h-2       1Ag3h-1       1Ag3h0        1Ag3h+1       1Ag3h+2       1Ag3h+3       1Ag3h+4       1Ag3h+5       1Ag1i-6   
   23    1Ag1i-5       1Ag1i-4       1Ag1i-3       1Ag1i-2       1Ag1i-1       1Ag1i0        1Ag1i+1       1Ag1i+2       1Ag1i+3       1Ag1i+4   
   24    1Ag1i+5       1Ag1i+6       1Ag2i-6       1Ag2i-5       1Ag2i-4       1Ag2i-3       1Ag2i-2       1Ag2i-1       1Ag2i0        1Ag2i+1   
   25    1Ag2i+2       1Ag2i+3       1Ag2i+4       1Ag2i+5       1Ag2i+6       2Ag1s         2Ag2s         2Ag3s         2Ag4s         2Ag5s     
   26    2Ag6s         2Ag7s         2Ag8s         2Ag9s         2Ag10s        2Ag11s        2Ag1pz        2Ag1py        2Ag1px        2Ag2pz    
   27    2Ag2py        2Ag2px        2Ag3pz        2Ag3py        2Ag3px        2Ag4pz        2Ag4py        2Ag4px        2Ag5pz        2Ag5py    
   28    2Ag5px        2Ag6pz        2Ag6py        2Ag6px        2Ag7pz        2Ag7py        2Ag7px        2Ag8pz        2Ag8py        2Ag8px    
   29    2Ag9pz        2Ag9py        2Ag9px        2Ag10pz       2Ag10py       2Ag10px       2Ag1d-2       2Ag1d-1       2Ag1d0        2Ag1d+1   
   30    2Ag1d+2       2Ag2d-2       2Ag2d-1       2Ag2d0        2Ag2d+1       2Ag2d+2       2Ag3d-2       2Ag3d-1       2Ag3d0        2Ag3d+1   
   31    2Ag3d+2       2Ag4d-2       2Ag4d-1       2Ag4d0        2Ag4d+1       2Ag4d+2       2Ag5d-2       2Ag5d-1       2Ag5d0        2Ag5d+1   
   32    2Ag5d+2       2Ag6d-2       2Ag6d-1       2Ag6d0        2Ag6d+1       2Ag6d+2       2Ag7d-2       2Ag7d-1       2Ag7d0        2Ag7d+1   
   33    2Ag7d+2       2Ag8d-2       2Ag8d-1       2Ag8d0        2Ag8d+1       2Ag8d+2       2Ag9d-2       2Ag9d-1       2Ag9d0        2Ag9d+1   
   34    2Ag9d+2       2Ag1f-3       2Ag1f-2       2Ag1f-1       2Ag1f0        2Ag1f+1       2Ag1f+2       2Ag1f+3       2Ag2f-3       2Ag2f-2   
   35    2Ag2f-1       2Ag2f0        2Ag2f+1       2Ag2f+2       2Ag2f+3       2Ag3f-3       2Ag3f-2       2Ag3f-1       2Ag3f0        2Ag3f+1   
   36    2Ag3f+2       2Ag3f+3       2Ag4f-3       2Ag4f-2       2Ag4f-1       2Ag4f0        2Ag4f+1       2Ag4f+2       2Ag4f+3       2Ag5f-3   
   37    2Ag5f-2       2Ag5f-1       2Ag5f0        2Ag5f+1       2Ag5f+2       2Ag5f+3       2Ag6f-3       2Ag6f-2       2Ag6f-1       2Ag6f0    
   38    2Ag6f+1       2Ag6f+2       2Ag6f+3       2Ag7f-3       2Ag7f-2       2Ag7f-1       2Ag7f0        2Ag7f+1       2Ag7f+2       2Ag7f+3   
   39    2Ag8f-3       2Ag8f-2       2Ag8f-1       2Ag8f0        2Ag8f+1       2Ag8f+2       2Ag8f+3       2Ag1g-4       2Ag1g-3       2Ag1g-2   
   40    2Ag1g-1       2Ag1g0        2Ag1g+1       2Ag1g+2       2Ag1g+3       2Ag1g+4       2Ag2g-4       2Ag2g-3       2Ag2g-2       2Ag2g-1   
   41    2Ag2g0        2Ag2g+1       2Ag2g+2       2Ag2g+3       2Ag2g+4       2Ag3g-4       2Ag3g-3       2Ag3g-2       2Ag3g-1       2Ag3g0    
   42    2Ag3g+1       2Ag3g+2       2Ag3g+3       2Ag3g+4       2Ag4g-4       2Ag4g-3       2Ag4g-2       2Ag4g-1       2Ag4g0        2Ag4g+1   
   43    2Ag4g+2       2Ag4g+3       2Ag4g+4       2Ag5g-4       2Ag5g-3       2Ag5g-2       2Ag5g-1       2Ag5g0        2Ag5g+1       2Ag5g+2   
   44    2Ag5g+3       2Ag5g+4       2Ag6g-4       2Ag6g-3       2Ag6g-2       2Ag6g-1       2Ag6g0        2Ag6g+1       2Ag6g+2       2Ag6g+3   
   45    2Ag6g+4       2Ag1h-5       2Ag1h-4       2Ag1h-3       2Ag1h-2       2Ag1h-1       2Ag1h0        2Ag1h+1       2Ag1h+2       2Ag1h+3   
   46    2Ag1h+4       2Ag1h+5       2Ag2h-5       2Ag2h-4       2Ag2h-3       2Ag2h-2       2Ag2h-1       2Ag2h0        2Ag2h+1       2Ag2h+2   
   47    2Ag2h+3       2Ag2h+4       2Ag2h+5       2Ag3h-5       2Ag3h-4       2Ag3h-3       2Ag3h-2       2Ag3h-1       2Ag3h0        2Ag3h+1   
   48    2Ag3h+2       2Ag3h+3       2Ag3h+4       2Ag3h+5       2Ag1i-6       2Ag1i-5       2Ag1i-4       2Ag1i-3       2Ag1i-2       2Ag1i-1   
   49    2Ag1i0        2Ag1i+1       2Ag1i+2       2Ag1i+3       2Ag1i+4       2Ag1i+5       2Ag1i+6       2Ag2i-6       2Ag2i-5       2Ag2i-4   
   50    2Ag2i-3       2Ag2i-2       2Ag2i-1       2Ag2i0        2Ag2i+1       2Ag2i+2       2Ag2i+3       2Ag2i+4       2Ag2i+5       2Ag2i+6   
   51    3Ag1s         3Ag2s         3Ag3s         3Ag4s         3Ag5s         3Ag6s         3Ag7s         3Ag8s         3Ag9s         3Ag10s    
   52    3Ag11s        3Ag1pz        3Ag1py        3Ag1px        3Ag2pz        3Ag2py        3Ag2px        3Ag3pz        3Ag3py        3Ag3px    
   53    3Ag4pz        3Ag4py        3Ag4px        3Ag5pz        3Ag5py        3Ag5px        3Ag6pz        3Ag6py        3Ag6px        3Ag7pz    
   54    3Ag7py        3Ag7px        3Ag8pz        3Ag8py        3Ag8px        3Ag9pz        3Ag9py        3Ag9px        3Ag10pz       3Ag10py   
   55    3Ag10px       3Ag1d-2       3Ag1d-1       3Ag1d0        3Ag1d+1       3Ag1d+2       3Ag2d-2       3Ag2d-1       3Ag2d0        3Ag2d+1   
   56    3Ag2d+2       3Ag3d-2       3Ag3d-1       3Ag3d0        3Ag3d+1       3Ag3d+2       3Ag4d-2       3Ag4d-1       3Ag4d0        3Ag4d+1   
   57    3Ag4d+2       3Ag5d-2       3Ag5d-1       3Ag5d0        3Ag5d+1       3Ag5d+2       3Ag6d-2       3Ag6d-1       3Ag6d0        3Ag6d+1   
   58    3Ag6d+2       3Ag7d-2       3Ag7d-1       3Ag7d0        3Ag7d+1       3Ag7d+2       3Ag8d-2       3Ag8d-1       3Ag8d0        3Ag8d+1   
   59    3Ag8d+2       3Ag9d-2       3Ag9d-1       3Ag9d0        3Ag9d+1       3Ag9d+2       3Ag1f-3       3Ag1f-2       3Ag1f-1       3Ag1f0    
   60    3Ag1f+1       3Ag1f+2       3Ag1f+3       3Ag2f-3       3Ag2f-2       3Ag2f-1       3Ag2f0        3Ag2f+1       3Ag2f+2       3Ag2f+3   
   61    3Ag3f-3       3Ag3f-2       3Ag3f-1       3Ag3f0        3Ag3f+1       3Ag3f+2       3Ag3f+3       3Ag4f-3       3Ag4f-2       3Ag4f-1   
   62    3Ag4f0        3Ag4f+1       3Ag4f+2       3Ag4f+3       3Ag5f-3       3Ag5f-2       3Ag5f-1       3Ag5f0        3Ag5f+1       3Ag5f+2   
   63    3Ag5f+3       3Ag6f-3       3Ag6f-2       3Ag6f-1       3Ag6f0        3Ag6f+1       3Ag6f+2       3Ag6f+3       3Ag7f-3       3Ag7f-2   
   64    3Ag7f-1       3Ag7f0        3Ag7f+1       3Ag7f+2       3Ag7f+3       3Ag8f-3       3Ag8f-2       3Ag8f-1       3Ag8f0        3Ag8f+1   
   65    3Ag8f+2       3Ag8f+3       3Ag1g-4       3Ag1g-3       3Ag1g-2       3Ag1g-1       3Ag1g0        3Ag1g+1       3Ag1g+2       3Ag1g+3   
   66    3Ag1g+4       3Ag2g-4       3Ag2g-3       3Ag2g-2       3Ag2g-1       3Ag2g0        3Ag2g+1       3Ag2g+2       3Ag2g+3       3Ag2g+4   
   67    3Ag3g-4       3Ag3g-3       3Ag3g-2       3Ag3g-1       3Ag3g0        3Ag3g+1       3Ag3g+2       3Ag3g+3       3Ag3g+4       3Ag4g-4   
   68    3Ag4g-3       3Ag4g-2       3Ag4g-1       3Ag4g0        3Ag4g+1       3Ag4g+2       3Ag4g+3       3Ag4g+4       3Ag5g-4       3Ag5g-3   
   69    3Ag5g-2       3Ag5g-1       3Ag5g0        3Ag5g+1       3Ag5g+2       3Ag5g+3       3Ag5g+4       3Ag6g-4       3Ag6g-3       3Ag6g-2   
   70    3Ag6g-1       3Ag6g0        3Ag6g+1       3Ag6g+2       3Ag6g+3       3Ag6g+4       3Ag1h-5       3Ag1h-4       3Ag1h-3       3Ag1h-2   
   71    3Ag1h-1       3Ag1h0        3Ag1h+1       3Ag1h+2       3Ag1h+3       3Ag1h+4       3Ag1h+5       3Ag2h-5       3Ag2h-4       3Ag2h-3   
   72    3Ag2h-2       3Ag2h-1       3Ag2h0        3Ag2h+1       3Ag2h+2       3Ag2h+3       3Ag2h+4       3Ag2h+5       3Ag3h-5       3Ag3h-4   
   73    3Ag3h-3       3Ag3h-2       3Ag3h-1       3Ag3h0        3Ag3h+1       3Ag3h+2       3Ag3h+3       3Ag3h+4       3Ag3h+5       3Ag1i-6   
   74    3Ag1i-5       3Ag1i-4       3Ag1i-3       3Ag1i-2       3Ag1i-1       3Ag1i0        3Ag1i+1       3Ag1i+2       3Ag1i+3       3Ag1i+4   
   75    3Ag1i+5       3Ag1i+6       3Ag2i-6       3Ag2i-5       3Ag2i-4       3Ag2i-3       3Ag2i-2       3Ag2i-1       3Ag2i0        3Ag2i+1   
   76    3Ag2i+2       3Ag2i+3       3Ag2i+4       3Ag2i+5       3Ag2i+6       4Ag1s         4Ag2s         4Ag3s         4Ag4s         4Ag5s     
   77    4Ag6s         4Ag7s         4Ag8s         4Ag9s         4Ag10s        4Ag11s        4Ag1pz        4Ag1py        4Ag1px        4Ag2pz    
   78    4Ag2py        4Ag2px        4Ag3pz        4Ag3py        4Ag3px        4Ag4pz        4Ag4py        4Ag4px        4Ag5pz        4Ag5py    
   79    4Ag5px        4Ag6pz        4Ag6py        4Ag6px        4Ag7pz        4Ag7py        4Ag7px        4Ag8pz        4Ag8py        4Ag8px    
   80    4Ag9pz        4Ag9py        4Ag9px        4Ag10pz       4Ag10py       4Ag10px       4Ag1d-2       4Ag1d-1       4Ag1d0        4Ag1d+1   
   81    4Ag1d+2       4Ag2d-2       4Ag2d-1       4Ag2d0        4Ag2d+1       4Ag2d+2       4Ag3d-2       4Ag3d-1       4Ag3d0        4Ag3d+1   
   82    4Ag3d+2       4Ag4d-2       4Ag4d-1       4Ag4d0        4Ag4d+1       4Ag4d+2       4Ag5d-2       4Ag5d-1       4Ag5d0        4Ag5d+1   
   83    4Ag5d+2       4Ag6d-2       4Ag6d-1       4Ag6d0        4Ag6d+1       4Ag6d+2       4Ag7d-2       4Ag7d-1       4Ag7d0        4Ag7d+1   
   84    4Ag7d+2       4Ag8d-2       4Ag8d-1       4Ag8d0        4Ag8d+1       4Ag8d+2       4Ag9d-2       4Ag9d-1       4Ag9d0        4Ag9d+1   
   85    4Ag9d+2       4Ag1f-3       4Ag1f-2       4Ag1f-1       4Ag1f0        4Ag1f+1       4Ag1f+2       4Ag1f+3       4Ag2f-3       4Ag2f-2   
   86    4Ag2f-1       4Ag2f0        4Ag2f+1       4Ag2f+2       4Ag2f+3       4Ag3f-3       4Ag3f-2       4Ag3f-1       4Ag3f0        4Ag3f+1   
   87    4Ag3f+2       4Ag3f+3       4Ag4f-3       4Ag4f-2       4Ag4f-1       4Ag4f0        4Ag4f+1       4Ag4f+2       4Ag4f+3       4Ag5f-3   
   88    4Ag5f-2       4Ag5f-1       4Ag5f0        4Ag5f+1       4Ag5f+2       4Ag5f+3       4Ag6f-3       4Ag6f-2       4Ag6f-1       4Ag6f0    
   89    4Ag6f+1       4Ag6f+2       4Ag6f+3       4Ag7f-3       4Ag7f-2       4Ag7f-1       4Ag7f0        4Ag7f+1       4Ag7f+2       4Ag7f+3   
   90    4Ag8f-3       4Ag8f-2       4Ag8f-1       4Ag8f0        4Ag8f+1       4Ag8f+2       4Ag8f+3       4Ag1g-4       4Ag1g-3       4Ag1g-2   
   91    4Ag1g-1       4Ag1g0        4Ag1g+1       4Ag1g+2       4Ag1g+3       4Ag1g+4       4Ag2g-4       4Ag2g-3       4Ag2g-2       4Ag2g-1   
   92    4Ag2g0        4Ag2g+1       4Ag2g+2       4Ag2g+3       4Ag2g+4       4Ag3g-4       4Ag3g-3       4Ag3g-2       4Ag3g-1       4Ag3g0    
   93    4Ag3g+1       4Ag3g+2       4Ag3g+3       4Ag3g+4       4Ag4g-4       4Ag4g-3       4Ag4g-2       4Ag4g-1       4Ag4g0        4Ag4g+1   
   94    4Ag4g+2       4Ag4g+3       4Ag4g+4       4Ag5g-4       4Ag5g-3       4Ag5g-2       4Ag5g-1       4Ag5g0        4Ag5g+1       4Ag5g+2   
   95    4Ag5g+3       4Ag5g+4       4Ag6g-4       4Ag6g-3       4Ag6g-2       4Ag6g-1       4Ag6g0        4Ag6g+1       4Ag6g+2       4Ag6g+3   
   96    4Ag6g+4       4Ag1h-5       4Ag1h-4       4Ag1h-3       4Ag1h-2       4Ag1h-1       4Ag1h0        4Ag1h+1       4Ag1h+2       4Ag1h+3   
   97    4Ag1h+4       4Ag1h+5       4Ag2h-5       4Ag2h-4       4Ag2h-3       4Ag2h-2       4Ag2h-1       4Ag2h0        4Ag2h+1       4Ag2h+2   
   98    4Ag2h+3       4Ag2h+4       4Ag2h+5       4Ag3h-5       4Ag3h-4       4Ag3h-3       4Ag3h-2       4Ag3h-1       4Ag3h0        4Ag3h+1   
   99    4Ag3h+2       4Ag3h+3       4Ag3h+4       4Ag3h+5       4Ag1i-6       4Ag1i-5       4Ag1i-4       4Ag1i-3       4Ag1i-2       4Ag1i-1   
  100    4Ag1i0        4Ag1i+1       4Ag1i+2       4Ag1i+3       4Ag1i+4       4Ag1i+5       4Ag1i+6       4Ag2i-6       4Ag2i-5       4Ag2i-4   
  101    4Ag2i-3       4Ag2i-2       4Ag2i-1       4Ag2i0        4Ag2i+1       4Ag2i+2       4Ag2i+3       4Ag2i+4       4Ag2i+5       4Ag2i+6   
 
 Maximum number of basis functions per shell:   56
 Total number of basis functions:   1020
 
 
 Fitting basis set for the correlation calculation:
 
   1  Ag bse_acvtz_mp2fit [ 13s 13p 12d 10f 8g 5h 4i | 13s 13p 12d 10f 8g 5h 4i ]
   2  Ag bse_acvtz_mp2fit [ 13s 13p 12d 10f 8g 5h 4i | 13s 13p 12d 10f 8g 5h 4i ]
   3  Ag bse_acvtz_mp2fit [ 13s 13p 12d 10f 8g 5h 4i | 13s 13p 12d 10f 8g 5h 4i ]
   4  Ag bse_acvtz_mp2fit [ 13s 13p 12d 10f 8g 5h 4i | 13s 13p 12d 10f 8g 5h 4i ]
 
 Basis functions:
            1             2             3             4             5             6             7             8             9            10
    0    1Ag1s         1Ag2s         1Ag3s         1Ag4s         1Ag5s         1Ag6s         1Ag7s         1Ag8s         1Ag9s         1Ag10s    
    1    1Ag11s        1Ag12s        1Ag13s        1Ag1pz        1Ag1py        1Ag1px        1Ag2pz        1Ag2py        1Ag2px        1Ag3pz    
    2    1Ag3py        1Ag3px        1Ag4pz        1Ag4py        1Ag4px        1Ag5pz        1Ag5py        1Ag5px        1Ag6pz        1Ag6py    
    3    1Ag6px        1Ag7pz        1Ag7py        1Ag7px        1Ag8pz        1Ag8py        1Ag8px        1Ag9pz        1Ag9py        1Ag9px    
    4    1Ag10pz       1Ag10py       1Ag10px       1Ag11pz       1Ag11py       1Ag11px       1Ag12pz       1Ag12py       1Ag12px       1Ag13pz   
    5    1Ag13py       1Ag13px       1Ag1d-2       1Ag1d-1       1Ag1d0        1Ag1d+1       1Ag1d+2       1Ag2d-2       1Ag2d-1       1Ag2d0    
    6    1Ag2d+1       1Ag2d+2       1Ag3d-2       1Ag3d-1       1Ag3d0        1Ag3d+1       1Ag3d+2       1Ag4d-2       1Ag4d-1       1Ag4d0    
    7    1Ag4d+1       1Ag4d+2       1Ag5d-2       1Ag5d-1       1Ag5d0        1Ag5d+1       1Ag5d+2       1Ag6d-2       1Ag6d-1       1Ag6d0    
    8    1Ag6d+1       1Ag6d+2       1Ag7d-2       1Ag7d-1       1Ag7d0        1Ag7d+1       1Ag7d+2       1Ag8d-2       1Ag8d-1       1Ag8d0    
    9    1Ag8d+1       1Ag8d+2       1Ag9d-2       1Ag9d-1       1Ag9d0        1Ag9d+1       1Ag9d+2       1Ag10d-2      1Ag10d-1      1Ag10d0   
   10    1Ag10d+1      1Ag10d+2      1Ag11d-2      1Ag11d-1      1Ag11d0       1Ag11d+1      1Ag11d+2      1Ag12d-2      1Ag12d-1      1Ag12d0   
   11    1Ag12d+1      1Ag12d+2      1Ag1f-3       1Ag1f-2       1Ag1f-1       1Ag1f0        1Ag1f+1       1Ag1f+2       1Ag1f+3       1Ag2f-3   
   12    1Ag2f-2       1Ag2f-1       1Ag2f0        1Ag2f+1       1Ag2f+2       1Ag2f+3       1Ag3f-3       1Ag3f-2       1Ag3f-1       1Ag3f0    
   13    1Ag3f+1       1Ag3f+2       1Ag3f+3       1Ag4f-3       1Ag4f-2       1Ag4f-1       1Ag4f0        1Ag4f+1       1Ag4f+2       1Ag4f+3   
   14    1Ag5f-3       1Ag5f-2       1Ag5f-1       1Ag5f0        1Ag5f+1       1Ag5f+2       1Ag5f+3       1Ag6f-3       1Ag6f-2       1Ag6f-1   
   15    1Ag6f0        1Ag6f+1       1Ag6f+2       1Ag6f+3       1Ag7f-3       1Ag7f-2       1Ag7f-1       1Ag7f0        1Ag7f+1       1Ag7f+2   
   16    1Ag7f+3       1Ag8f-3       1Ag8f-2       1Ag8f-1       1Ag8f0        1Ag8f+1       1Ag8f+2       1Ag8f+3       1Ag9f-3       1Ag9f-2   
   17    1Ag9f-1       1Ag9f0        1Ag9f+1       1Ag9f+2       1Ag9f+3       1Ag10f-3      1Ag10f-2      1Ag10f-1      1Ag10f0       1Ag10f+1  
   18    1Ag10f+2      1Ag10f+3      1Ag1g-4       1Ag1g-3       1Ag1g-2       1Ag1g-1       1Ag1g0        1Ag1g+1       1Ag1g+2       1Ag1g+3   
   19    1Ag1g+4       1Ag2g-4       1Ag2g-3       1Ag2g-2       1Ag2g-1       1Ag2g0        1Ag2g+1       1Ag2g+2       1Ag2g+3       1Ag2g+4   
   20    1Ag3g-4       1Ag3g-3       1Ag3g-2       1Ag3g-1       1Ag3g0        1Ag3g+1       1Ag3g+2       1Ag3g+3       1Ag3g+4       1Ag4g-4   
   21    1Ag4g-3       1Ag4g-2       1Ag4g-1       1Ag4g0        1Ag4g+1       1Ag4g+2       1Ag4g+3       1Ag4g+4       1Ag5g-4       1Ag5g-3   
   22    1Ag5g-2       1Ag5g-1       1Ag5g0        1Ag5g+1       1Ag5g+2       1Ag5g+3       1Ag5g+4       1Ag6g-4       1Ag6g-3       1Ag6g-2   
   23    1Ag6g-1       1Ag6g0        1Ag6g+1       1Ag6g+2       1Ag6g+3       1Ag6g+4       1Ag7g-4       1Ag7g-3       1Ag7g-2       1Ag7g-1   
   24    1Ag7g0        1Ag7g+1       1Ag7g+2       1Ag7g+3       1Ag7g+4       1Ag8g-4       1Ag8g-3       1Ag8g-2       1Ag8g-1       1Ag8g0    
   25    1Ag8g+1       1Ag8g+2       1Ag8g+3       1Ag8g+4       1Ag1h-5       1Ag1h-4       1Ag1h-3       1Ag1h-2       1Ag1h-1       1Ag1h0    
   26    1Ag1h+1       1Ag1h+2       1Ag1h+3       1Ag1h+4       1Ag1h+5       1Ag2h-5       1Ag2h-4       1Ag2h-3       1Ag2h-2       1Ag2h-1   
   27    1Ag2h0        1Ag2h+1       1Ag2h+2       1Ag2h+3       1Ag2h+4       1Ag2h+5       1Ag3h-5       1Ag3h-4       1Ag3h-3       1Ag3h-2   
   28    1Ag3h-1       1Ag3h0        1Ag3h+1       1Ag3h+2       1Ag3h+3       1Ag3h+4       1Ag3h+5       1Ag4h-5       1Ag4h-4       1Ag4h-3   
   29    1Ag4h-2       1Ag4h-1       1Ag4h0        1Ag4h+1       1Ag4h+2       1Ag4h+3       1Ag4h+4       1Ag4h+5       1Ag5h-5       1Ag5h-4   
   30    1Ag5h-3       1Ag5h-2       1Ag5h-1       1Ag5h0        1Ag5h+1       1Ag5h+2       1Ag5h+3       1Ag5h+4       1Ag5h+5       1Ag1i-6   
   31    1Ag1i-5       1Ag1i-4       1Ag1i-3       1Ag1i-2       1Ag1i-1       1Ag1i0        1Ag1i+1       1Ag1i+2       1Ag1i+3       1Ag1i+4   
   32    1Ag1i+5       1Ag1i+6       1Ag2i-6       1Ag2i-5       1Ag2i-4       1Ag2i-3       1Ag2i-2       1Ag2i-1       1Ag2i0        1Ag2i+1   
   33    1Ag2i+2       1Ag2i+3       1Ag2i+4       1Ag2i+5       1Ag2i+6       1Ag3i-6       1Ag3i-5       1Ag3i-4       1Ag3i-3       1Ag3i-2   
   34    1Ag3i-1       1Ag3i0        1Ag3i+1       1Ag3i+2       1Ag3i+3       1Ag3i+4       1Ag3i+5       1Ag3i+6       1Ag4i-6       1Ag4i-5   
   35    1Ag4i-4       1Ag4i-3       1Ag4i-2       1Ag4i-1       1Ag4i0        1Ag4i+1       1Ag4i+2       1Ag4i+3       1Ag4i+4       1Ag4i+5   
   36    1Ag4i+6       2Ag1s         2Ag2s         2Ag3s         2Ag4s         2Ag5s         2Ag6s         2Ag7s         2Ag8s         2Ag9s     
   37    2Ag10s        2Ag11s        2Ag12s        2Ag13s        2Ag1pz        2Ag1py        2Ag1px        2Ag2pz        2Ag2py        2Ag2px    
   38    2Ag3pz        2Ag3py        2Ag3px        2Ag4pz        2Ag4py        2Ag4px        2Ag5pz        2Ag5py        2Ag5px        2Ag6pz    
   39    2Ag6py        2Ag6px        2Ag7pz        2Ag7py        2Ag7px        2Ag8pz        2Ag8py        2Ag8px        2Ag9pz        2Ag9py    
   40    2Ag9px        2Ag10pz       2Ag10py       2Ag10px       2Ag11pz       2Ag11py       2Ag11px       2Ag12pz       2Ag12py       2Ag12px   
   41    2Ag13pz       2Ag13py       2Ag13px       2Ag1d-2       2Ag1d-1       2Ag1d0        2Ag1d+1       2Ag1d+2       2Ag2d-2       2Ag2d-1   
   42    2Ag2d0        2Ag2d+1       2Ag2d+2       2Ag3d-2       2Ag3d-1       2Ag3d0        2Ag3d+1       2Ag3d+2       2Ag4d-2       2Ag4d-1   
   43    2Ag4d0        2Ag4d+1       2Ag4d+2       2Ag5d-2       2Ag5d-1       2Ag5d0        2Ag5d+1       2Ag5d+2       2Ag6d-2       2Ag6d-1   
   44    2Ag6d0        2Ag6d+1       2Ag6d+2       2Ag7d-2       2Ag7d-1       2Ag7d0        2Ag7d+1       2Ag7d+2       2Ag8d-2       2Ag8d-1   
   45    2Ag8d0        2Ag8d+1       2Ag8d+2       2Ag9d-2       2Ag9d-1       2Ag9d0        2Ag9d+1       2Ag9d+2       2Ag10d-2      2Ag10d-1  
   46    2Ag10d0       2Ag10d+1      2Ag10d+2      2Ag11d-2      2Ag11d-1      2Ag11d0       2Ag11d+1      2Ag11d+2      2Ag12d-2      2Ag12d-1  
   47    2Ag12d0       2Ag12d+1      2Ag12d+2      2Ag1f-3       2Ag1f-2       2Ag1f-1       2Ag1f0        2Ag1f+1       2Ag1f+2       2Ag1f+3   
   48    2Ag2f-3       2Ag2f-2       2Ag2f-1       2Ag2f0        2Ag2f+1       2Ag2f+2       2Ag2f+3       2Ag3f-3       2Ag3f-2       2Ag3f-1   
   49    2Ag3f0        2Ag3f+1       2Ag3f+2       2Ag3f+3       2Ag4f-3       2Ag4f-2       2Ag4f-1       2Ag4f0        2Ag4f+1       2Ag4f+2   
   50    2Ag4f+3       2Ag5f-3       2Ag5f-2       2Ag5f-1       2Ag5f0        2Ag5f+1       2Ag5f+2       2Ag5f+3       2Ag6f-3       2Ag6f-2   
   51    2Ag6f-1       2Ag6f0        2Ag6f+1       2Ag6f+2       2Ag6f+3       2Ag7f-3       2Ag7f-2       2Ag7f-1       2Ag7f0        2Ag7f+1   
   52    2Ag7f+2       2Ag7f+3       2Ag8f-3       2Ag8f-2       2Ag8f-1       2Ag8f0        2Ag8f+1       2Ag8f+2       2Ag8f+3       2Ag9f-3   
   53    2Ag9f-2       2Ag9f-1       2Ag9f0        2Ag9f+1       2Ag9f+2       2Ag9f+3       2Ag10f-3      2Ag10f-2      2Ag10f-1      2Ag10f0   
   54    2Ag10f+1      2Ag10f+2      2Ag10f+3      2Ag1g-4       2Ag1g-3       2Ag1g-2       2Ag1g-1       2Ag1g0        2Ag1g+1       2Ag1g+2   
   55    2Ag1g+3       2Ag1g+4       2Ag2g-4       2Ag2g-3       2Ag2g-2       2Ag2g-1       2Ag2g0        2Ag2g+1       2Ag2g+2       2Ag2g+3   
   56    2Ag2g+4       2Ag3g-4       2Ag3g-3       2Ag3g-2       2Ag3g-1       2Ag3g0        2Ag3g+1       2Ag3g+2       2Ag3g+3       2Ag3g+4   
   57    2Ag4g-4       2Ag4g-3       2Ag4g-2       2Ag4g-1       2Ag4g0        2Ag4g+1       2Ag4g+2       2Ag4g+3       2Ag4g+4       2Ag5g-4   
   58    2Ag5g-3       2Ag5g-2       2Ag5g-1       2Ag5g0        2Ag5g+1       2Ag5g+2       2Ag5g+3       2Ag5g+4       2Ag6g-4       2Ag6g-3   
   59    2Ag6g-2       2Ag6g-1       2Ag6g0        2Ag6g+1       2Ag6g+2       2Ag6g+3       2Ag6g+4       2Ag7g-4       2Ag7g-3       2Ag7g-2   
   60    2Ag7g-1       2Ag7g0        2Ag7g+1       2Ag7g+2       2Ag7g+3       2Ag7g+4       2Ag8g-4       2Ag8g-3       2Ag8g-2       2Ag8g-1   
   61    2Ag8g0        2Ag8g+1       2Ag8g+2       2Ag8g+3       2Ag8g+4       2Ag1h-5       2Ag1h-4       2Ag1h-3       2Ag1h-2       2Ag1h-1   
   62    2Ag1h0        2Ag1h+1       2Ag1h+2       2Ag1h+3       2Ag1h+4       2Ag1h+5       2Ag2h-5       2Ag2h-4       2Ag2h-3       2Ag2h-2   
   63    2Ag2h-1       2Ag2h0        2Ag2h+1       2Ag2h+2       2Ag2h+3       2Ag2h+4       2Ag2h+5       2Ag3h-5       2Ag3h-4       2Ag3h-3   
   64    2Ag3h-2       2Ag3h-1       2Ag3h0        2Ag3h+1       2Ag3h+2       2Ag3h+3       2Ag3h+4       2Ag3h+5       2Ag4h-5       2Ag4h-4   
   65    2Ag4h-3       2Ag4h-2       2Ag4h-1       2Ag4h0        2Ag4h+1       2Ag4h+2       2Ag4h+3       2Ag4h+4       2Ag4h+5       2Ag5h-5   
   66    2Ag5h-4       2Ag5h-3       2Ag5h-2       2Ag5h-1       2Ag5h0        2Ag5h+1       2Ag5h+2       2Ag5h+3       2Ag5h+4       2Ag5h+5   
   67    2Ag1i-6       2Ag1i-5       2Ag1i-4       2Ag1i-3       2Ag1i-2       2Ag1i-1       2Ag1i0        2Ag1i+1       2Ag1i+2       2Ag1i+3   
   68    2Ag1i+4       2Ag1i+5       2Ag1i+6       2Ag2i-6       2Ag2i-5       2Ag2i-4       2Ag2i-3       2Ag2i-2       2Ag2i-1       2Ag2i0    
   69    2Ag2i+1       2Ag2i+2       2Ag2i+3       2Ag2i+4       2Ag2i+5       2Ag2i+6       2Ag3i-6       2Ag3i-5       2Ag3i-4       2Ag3i-3   
   70    2Ag3i-2       2Ag3i-1       2Ag3i0        2Ag3i+1       2Ag3i+2       2Ag3i+3       2Ag3i+4       2Ag3i+5       2Ag3i+6       2Ag4i-6   
   71    2Ag4i-5       2Ag4i-4       2Ag4i-3       2Ag4i-2       2Ag4i-1       2Ag4i0        2Ag4i+1       2Ag4i+2       2Ag4i+3       2Ag4i+4   
   72    2Ag4i+5       2Ag4i+6       3Ag1s         3Ag2s         3Ag3s         3Ag4s         3Ag5s         3Ag6s         3Ag7s         3Ag8s     
   73    3Ag9s         3Ag10s        3Ag11s        3Ag12s        3Ag13s        3Ag1pz        3Ag1py        3Ag1px        3Ag2pz        3Ag2py    
   74    3Ag2px        3Ag3pz        3Ag3py        3Ag3px        3Ag4pz        3Ag4py        3Ag4px        3Ag5pz        3Ag5py        3Ag5px    
   75    3Ag6pz        3Ag6py        3Ag6px        3Ag7pz        3Ag7py        3Ag7px        3Ag8pz        3Ag8py        3Ag8px        3Ag9pz    
   76    3Ag9py        3Ag9px        3Ag10pz       3Ag10py       3Ag10px       3Ag11pz       3Ag11py       3Ag11px       3Ag12pz       3Ag12py   
   77    3Ag12px       3Ag13pz       3Ag13py       3Ag13px       3Ag1d-2       3Ag1d-1       3Ag1d0        3Ag1d+1       3Ag1d+2       3Ag2d-2   
   78    3Ag2d-1       3Ag2d0        3Ag2d+1       3Ag2d+2       3Ag3d-2       3Ag3d-1       3Ag3d0        3Ag3d+1       3Ag3d+2       3Ag4d-2   
   79    3Ag4d-1       3Ag4d0        3Ag4d+1       3Ag4d+2       3Ag5d-2       3Ag5d-1       3Ag5d0        3Ag5d+1       3Ag5d+2       3Ag6d-2   
   80    3Ag6d-1       3Ag6d0        3Ag6d+1       3Ag6d+2       3Ag7d-2       3Ag7d-1       3Ag7d0        3Ag7d+1       3Ag7d+2       3Ag8d-2   
   81    3Ag8d-1       3Ag8d0        3Ag8d+1       3Ag8d+2       3Ag9d-2       3Ag9d-1       3Ag9d0        3Ag9d+1       3Ag9d+2       3Ag10d-2  
   82    3Ag10d-1      3Ag10d0       3Ag10d+1      3Ag10d+2      3Ag11d-2      3Ag11d-1      3Ag11d0       3Ag11d+1      3Ag11d+2      3Ag12d-2  
   83    3Ag12d-1      3Ag12d0       3Ag12d+1      3Ag12d+2      3Ag1f-3       3Ag1f-2       3Ag1f-1       3Ag1f0        3Ag1f+1       3Ag1f+2   
   84    3Ag1f+3       3Ag2f-3       3Ag2f-2       3Ag2f-1       3Ag2f0        3Ag2f+1       3Ag2f+2       3Ag2f+3       3Ag3f-3       3Ag3f-2   
   85    3Ag3f-1       3Ag3f0        3Ag3f+1       3Ag3f+2       3Ag3f+3       3Ag4f-3       3Ag4f-2       3Ag4f-1       3Ag4f0        3Ag4f+1   
   86    3Ag4f+2       3Ag4f+3       3Ag5f-3       3Ag5f-2       3Ag5f-1       3Ag5f0        3Ag5f+1       3Ag5f+2       3Ag5f+3       3Ag6f-3   
   87    3Ag6f-2       3Ag6f-1       3Ag6f0        3Ag6f+1       3Ag6f+2       3Ag6f+3       3Ag7f-3       3Ag7f-2       3Ag7f-1       3Ag7f0    
   88    3Ag7f+1       3Ag7f+2       3Ag7f+3       3Ag8f-3       3Ag8f-2       3Ag8f-1       3Ag8f0        3Ag8f+1       3Ag8f+2       3Ag8f+3   
   89    3Ag9f-3       3Ag9f-2       3Ag9f-1       3Ag9f0        3Ag9f+1       3Ag9f+2       3Ag9f+3       3Ag10f-3      3Ag10f-2      3Ag10f-1  
   90    3Ag10f0       3Ag10f+1      3Ag10f+2      3Ag10f+3      3Ag1g-4       3Ag1g-3       3Ag1g-2       3Ag1g-1       3Ag1g0        3Ag1g+1   
   91    3Ag1g+2       3Ag1g+3       3Ag1g+4       3Ag2g-4       3Ag2g-3       3Ag2g-2       3Ag2g-1       3Ag2g0        3Ag2g+1       3Ag2g+2   
   92    3Ag2g+3       3Ag2g+4       3Ag3g-4       3Ag3g-3       3Ag3g-2       3Ag3g-1       3Ag3g0        3Ag3g+1       3Ag3g+2       3Ag3g+3   
   93    3Ag3g+4       3Ag4g-4       3Ag4g-3       3Ag4g-2       3Ag4g-1       3Ag4g0        3Ag4g+1       3Ag4g+2       3Ag4g+3       3Ag4g+4   
   94    3Ag5g-4       3Ag5g-3       3Ag5g-2       3Ag5g-1       3Ag5g0        3Ag5g+1       3Ag5g+2       3Ag5g+3       3Ag5g+4       3Ag6g-4   
   95    3Ag6g-3       3Ag6g-2       3Ag6g-1       3Ag6g0        3Ag6g+1       3Ag6g+2       3Ag6g+3       3Ag6g+4       3Ag7g-4       3Ag7g-3   
   96    3Ag7g-2       3Ag7g-1       3Ag7g0        3Ag7g+1       3Ag7g+2       3Ag7g+3       3Ag7g+4       3Ag8g-4       3Ag8g-3       3Ag8g-2   
   97    3Ag8g-1       3Ag8g0        3Ag8g+1       3Ag8g+2       3Ag8g+3       3Ag8g+4       3Ag1h-5       3Ag1h-4       3Ag1h-3       3Ag1h-2   
   98    3Ag1h-1       3Ag1h0        3Ag1h+1       3Ag1h+2       3Ag1h+3       3Ag1h+4       3Ag1h+5       3Ag2h-5       3Ag2h-4       3Ag2h-3   
   99    3Ag2h-2       3Ag2h-1       3Ag2h0        3Ag2h+1       3Ag2h+2       3Ag2h+3       3Ag2h+4       3Ag2h+5       3Ag3h-5       3Ag3h-4   
  100    3Ag3h-3       3Ag3h-2       3Ag3h-1       3Ag3h0        3Ag3h+1       3Ag3h+2       3Ag3h+3       3Ag3h+4       3Ag3h+5       3Ag4h-5   
  101    3Ag4h-4       3Ag4h-3       3Ag4h-2       3Ag4h-1       3Ag4h0        3Ag4h+1       3Ag4h+2       3Ag4h+3       3Ag4h+4       3Ag4h+5   
  102    3Ag5h-5       3Ag5h-4       3Ag5h-3       3Ag5h-2       3Ag5h-1       3Ag5h0        3Ag5h+1       3Ag5h+2       3Ag5h+3       3Ag5h+4   
  103    3Ag5h+5       3Ag1i-6       3Ag1i-5       3Ag1i-4       3Ag1i-3       3Ag1i-2       3Ag1i-1       3Ag1i0        3Ag1i+1       3Ag1i+2   
  104    3Ag1i+3       3Ag1i+4       3Ag1i+5       3Ag1i+6       3Ag2i-6       3Ag2i-5       3Ag2i-4       3Ag2i-3       3Ag2i-2       3Ag2i-1   
  105    3Ag2i0        3Ag2i+1       3Ag2i+2       3Ag2i+3       3Ag2i+4       3Ag2i+5       3Ag2i+6       3Ag3i-6       3Ag3i-5       3Ag3i-4   
  106    3Ag3i-3       3Ag3i-2       3Ag3i-1       3Ag3i0        3Ag3i+1       3Ag3i+2       3Ag3i+3       3Ag3i+4       3Ag3i+5       3Ag3i+6   
  107    3Ag4i-6       3Ag4i-5       3Ag4i-4       3Ag4i-3       3Ag4i-2       3Ag4i-1       3Ag4i0        3Ag4i+1       3Ag4i+2       3Ag4i+3   
  108    3Ag4i+4       3Ag4i+5       3Ag4i+6       4Ag1s         4Ag2s         4Ag3s         4Ag4s         4Ag5s         4Ag6s         4Ag7s     
  109    4Ag8s         4Ag9s         4Ag10s        4Ag11s        4Ag12s        4Ag13s        4Ag1pz        4Ag1py        4Ag1px        4Ag2pz    
  110    4Ag2py        4Ag2px        4Ag3pz        4Ag3py        4Ag3px        4Ag4pz        4Ag4py        4Ag4px        4Ag5pz        4Ag5py    
  111    4Ag5px        4Ag6pz        4Ag6py        4Ag6px        4Ag7pz        4Ag7py        4Ag7px        4Ag8pz        4Ag8py        4Ag8px    
  112    4Ag9pz        4Ag9py        4Ag9px        4Ag10pz       4Ag10py       4Ag10px       4Ag11pz       4Ag11py       4Ag11px       4Ag12pz   
  113    4Ag12py       4Ag12px       4Ag13pz       4Ag13py       4Ag13px       4Ag1d-2       4Ag1d-1       4Ag1d0        4Ag1d+1       4Ag1d+2   
  114    4Ag2d-2       4Ag2d-1       4Ag2d0        4Ag2d+1       4Ag2d+2       4Ag3d-2       4Ag3d-1       4Ag3d0        4Ag3d+1       4Ag3d+2   
  115    4Ag4d-2       4Ag4d-1       4Ag4d0        4Ag4d+1       4Ag4d+2       4Ag5d-2       4Ag5d-1       4Ag5d0        4Ag5d+1       4Ag5d+2   
  116    4Ag6d-2       4Ag6d-1       4Ag6d0        4Ag6d+1       4Ag6d+2       4Ag7d-2       4Ag7d-1       4Ag7d0        4Ag7d+1       4Ag7d+2   
  117    4Ag8d-2       4Ag8d-1       4Ag8d0        4Ag8d+1       4Ag8d+2       4Ag9d-2       4Ag9d-1       4Ag9d0        4Ag9d+1       4Ag9d+2   
  118    4Ag10d-2      4Ag10d-1      4Ag10d0       4Ag10d+1      4Ag10d+2      4Ag11d-2      4Ag11d-1      4Ag11d0       4Ag11d+1      4Ag11d+2  
  119    4Ag12d-2      4Ag12d-1      4Ag12d0       4Ag12d+1      4Ag12d+2      4Ag1f-3       4Ag1f-2       4Ag1f-1       4Ag1f0        4Ag1f+1   
  120    4Ag1f+2       4Ag1f+3       4Ag2f-3       4Ag2f-2       4Ag2f-1       4Ag2f0        4Ag2f+1       4Ag2f+2       4Ag2f+3       4Ag3f-3   
  121    4Ag3f-2       4Ag3f-1       4Ag3f0        4Ag3f+1       4Ag3f+2       4Ag3f+3       4Ag4f-3       4Ag4f-2       4Ag4f-1       4Ag4f0    
  122    4Ag4f+1       4Ag4f+2       4Ag4f+3       4Ag5f-3       4Ag5f-2       4Ag5f-1       4Ag5f0        4Ag5f+1       4Ag5f+2       4Ag5f+3   
  123    4Ag6f-3       4Ag6f-2       4Ag6f-1       4Ag6f0        4Ag6f+1       4Ag6f+2       4Ag6f+3       4Ag7f-3       4Ag7f-2       4Ag7f-1   
  124    4Ag7f0        4Ag7f+1       4Ag7f+2       4Ag7f+3       4Ag8f-3       4Ag8f-2       4Ag8f-1       4Ag8f0        4Ag8f+1       4Ag8f+2   
  125    4Ag8f+3       4Ag9f-3       4Ag9f-2       4Ag9f-1       4Ag9f0        4Ag9f+1       4Ag9f+2       4Ag9f+3       4Ag10f-3      4Ag10f-2  
  126    4Ag10f-1      4Ag10f0       4Ag10f+1      4Ag10f+2      4Ag10f+3      4Ag1g-4       4Ag1g-3       4Ag1g-2       4Ag1g-1       4Ag1g0    
  127    4Ag1g+1       4Ag1g+2       4Ag1g+3       4Ag1g+4       4Ag2g-4       4Ag2g-3       4Ag2g-2       4Ag2g-1       4Ag2g0        4Ag2g+1   
  128    4Ag2g+2       4Ag2g+3       4Ag2g+4       4Ag3g-4       4Ag3g-3       4Ag3g-2       4Ag3g-1       4Ag3g0        4Ag3g+1       4Ag3g+2   
  129    4Ag3g+3       4Ag3g+4       4Ag4g-4       4Ag4g-3       4Ag4g-2       4Ag4g-1       4Ag4g0        4Ag4g+1       4Ag4g+2       4Ag4g+3   
  130    4Ag4g+4       4Ag5g-4       4Ag5g-3       4Ag5g-2       4Ag5g-1       4Ag5g0        4Ag5g+1       4Ag5g+2       4Ag5g+3       4Ag5g+4   
  131    4Ag6g-4       4Ag6g-3       4Ag6g-2       4Ag6g-1       4Ag6g0        4Ag6g+1       4Ag6g+2       4Ag6g+3       4Ag6g+4       4Ag7g-4   
  132    4Ag7g-3       4Ag7g-2       4Ag7g-1       4Ag7g0        4Ag7g+1       4Ag7g+2       4Ag7g+3       4Ag7g+4       4Ag8g-4       4Ag8g-3   
  133    4Ag8g-2       4Ag8g-1       4Ag8g0        4Ag8g+1       4Ag8g+2       4Ag8g+3       4Ag8g+4       4Ag1h-5       4Ag1h-4       4Ag1h-3   
  134    4Ag1h-2       4Ag1h-1       4Ag1h0        4Ag1h+1       4Ag1h+2       4Ag1h+3       4Ag1h+4       4Ag1h+5       4Ag2h-5       4Ag2h-4   
  135    4Ag2h-3       4Ag2h-2       4Ag2h-1       4Ag2h0        4Ag2h+1       4Ag2h+2       4Ag2h+3       4Ag2h+4       4Ag2h+5       4Ag3h-5   
  136    4Ag3h-4       4Ag3h-3       4Ag3h-2       4Ag3h-1       4Ag3h0        4Ag3h+1       4Ag3h+2       4Ag3h+3       4Ag3h+4       4Ag3h+5   
  137    4Ag4h-5       4Ag4h-4       4Ag4h-3       4Ag4h-2       4Ag4h-1       4Ag4h0        4Ag4h+1       4Ag4h+2       4Ag4h+3       4Ag4h+4   
  138    4Ag4h+5       4Ag5h-5       4Ag5h-4       4Ag5h-3       4Ag5h-2       4Ag5h-1       4Ag5h0        4Ag5h+1       4Ag5h+2       4Ag5h+3   
  139    4Ag5h+4       4Ag5h+5       4Ag1i-6       4Ag1i-5       4Ag1i-4       4Ag1i-3       4Ag1i-2       4Ag1i-1       4Ag1i0        4Ag1i+1   
  140    4Ag1i+2       4Ag1i+3       4Ag1i+4       4Ag1i+5       4Ag1i+6       4Ag2i-6       4Ag2i-5       4Ag2i-4       4Ag2i-3       4Ag2i-2   
  141    4Ag2i-1       4Ag2i0        4Ag2i+1       4Ag2i+2       4Ag2i+3       4Ag2i+4       4Ag2i+5       4Ag2i+6       4Ag3i-6       4Ag3i-5   
  142    4Ag3i-4       4Ag3i-3       4Ag3i-2       4Ag3i-1       4Ag3i0        4Ag3i+1       4Ag3i+2       4Ag3i+3       4Ag3i+4       4Ag3i+5   
  143    4Ag3i+6       4Ag4i-6       4Ag4i-5       4Ag4i-4       4Ag4i-3       4Ag4i-2       4Ag4i-1       4Ag4i0        4Ag4i+1       4Ag4i+2   
  144    4Ag4i+3       4Ag4i+4       4Ag4i+5       4Ag4i+6   
 
 Maximum number of basis functions per shell:   72
 Total number of basis functions:   1444
 
 
 Effective core potentials:
 
   1  Ag mcdhf-ecp-28        
   2  Ag mcdhf-ecp-28        
   3  Ag mcdhf-ecp-28        
   4  Ag mcdhf-ecp-28        
 
 Character table for point group C1:
 
          E  
    A     1
 
 Number of basis functions per irrep:
    A     488
 
 
 Calculation of overlap integrals...
 CPU time [min]:     0.103                   Wall time [min]:     0.006
 
 Calculation of the square root of the overlap matrix...
 Minimum eigenvalue of the overlap matrix: 0.326893E-05
 CPU time [min]:     0.160                   Wall time [min]:     0.008
 
 Calculation of kinetic energy integrals...
 CPU time [min]:     0.161                   Wall time [min]:     0.008
 Calculation of dipole moment integrals...
 CPU time [min]:     0.165                   Wall time [min]:     0.008
 Calculation of nuclear attraction integrals...
 CPU time [min]:     0.169                   Wall time [min]:     0.008
 Calculation of core potential integrals...
 CPU time [min]:     0.576                   Wall time [min]:     0.300
 
 Calculation of prescreening integrals...
 CPU time [min]:     8.890                   Wall time [min]:     0.542
 
 Calculation of two-center Coulomb integrals...
   1% done.
  15% done.
  26% done.
  41% done.
  53% done.
  70% done.
  89% done.
 100% done.
 CPU time [min]:     8.904                   Wall time [min]:     0.542
 
 Cholesky decomposition of the two-center matrix...
 Reciprocal of the condition number:  0.754992E-05
 CPU time [min]:     8.946                   Wall time [min]:     0.544
 

 ************************ 2023-02-26 22:54:13 *************************
 Executing scf...

 @scfsetup: integrals calculated directly
            mrcc/integ direct run
 @scfsetup: calculating on full matrices
            not using symmetry adapted basis
 @scfsetup: diis switched on
 @scfsetup: number of steps to extrapolate from  10
 @scfsetup: tolerance in energy deviation    0.100000E-05
            tolerance in density deviation    0.100000E-06
 @scfsetup: maximum number of iterations:  50
 @scfsetup: restricted closed shell hf calc
 @scfsetup: restarting scf from MOCOEF file
 @scfsetup: occupation set:
            from initial orbitals
 @scfsetup: Parameter-set for SCF acceleration: difficult
 @scfsetup: diis runs from iteration:   2
 @scfsetup: diis runs to iteration:  50
 @scfsetup: diis runs in every iteration
 @scfsetup: diiswatch is disabled                   
 @scfsetup: diis dtol criteria to switch on:      0.0000E+00
           (or the iteration number below is reached)
 @scfsetup: damping is turned off.
 @scfsetup: dynamic level shifting
            tolarance in HOMO-LUMO gap:  0.200
            tolarance in density deviation:     0.0000E+00
            iteration step criteria to turn level shifting off: 8
 Allocation of 220.0 Gbytes of memory...
 ======================================================================
 ITERATION STEP   1
 CPU time [min]:     0.030                   Wall time [min]:     0.005
 

 SCF control                  : initial
 Damping factor/level shift   : 0.000/0.200
 DIIS [start/end/frequency]   :   2 / 50 /  1

 Constructing Fock-matrix...
 
 Pipek-Mezey localization...
 Step  Convergence
   1  18.930004945725
   2   8.280859798677
   3   6.379497427475
   4   1.764265450449
   5   0.883961858835
   6   0.831324003311
   7   0.083805894944
   8   0.001676001013
   9   0.000026829846
  10   0.000000564474
 CPU time [min]:     0.058                   Wall time [min]:     0.006
 
 Constructing local fitting domains...
 Maximum number of atoms in fitting domains:    4
 Average number of atoms in fitting domains:    4.0
 
 First step of Coulomb + first step of exchange...
 Exchange contribution is evaluated for MOs 1 to 38.
   2% done.
  15% done.
  27% done.
  41% done.
  56% done.
  67% done.
  79% done.
 100% done.
 CPU time [min]:     0.846                   Wall time [min]:     0.028
 
 Fitting and assembly step of exchange...
 CPU time [min]:     0.883                   Wall time [min]:     0.029
 
 Second step of Coulomb...
   2% done.
  15% done.
  27% done.
  41% done.
  56% done.
  67% done.
  79% done.
 100% done.
 CPU time [min]:     1.225                   Wall time [min]:     0.038
 
 Gradient norm:      1.3322E+01
 RMS of [F,P]:                                         0.00127766692614
 RMS of difference density:                            0.00379010575913
 Gap [au]:  0.19122535
 ALPHA OCC:  38
 BETA  OCC:  38
 
 ***HARTREE-FOCK ENERGY IN STEP   1 IS       -584.1967931564054197 [AU]
 ======================================================================
 ITERATION STEP   2
 CPU time [min]:     1.270                   Wall time [min]:     0.040
 

 SCF control                  : diis
 Damping factor/level shift   : 0.000/0.200
 DIIS [start/end/frequency]   :   2 / 50 /  1

 Constructing Fock-matrix...
 
 Pipek-Mezey localization...
 Step  Convergence
   1  12.954008760758
   2   3.981686820073
   3   1.064383873448
   4   0.132322210133
   5   0.001587444574
   6   0.000083244310
   7   0.000001351566
   8   0.000000103164
 CPU time [min]:     1.297                   Wall time [min]:     0.040
 
 Constructing local fitting domains...
 Maximum number of atoms in fitting domains:    4
 Average number of atoms in fitting domains:    4.0
 
 First step of Coulomb + first step of exchange...
 Exchange contribution is evaluated for MOs 1 to 38.
   2% done.
  15% done.
  27% done.
  41% done.
  56% done.
  67% done.
  79% done.
 100% done.
 CPU time [min]:     2.054                   Wall time [min]:     0.062
 
 Fitting and assembly step of exchange...
 CPU time [min]:     2.088                   Wall time [min]:     0.063
 
 Second step of Coulomb...
   2% done.
  15% done.
  27% done.
  41% done.
  56% done.
  67% done.
  79% done.
 100% done.
 CPU time [min]:     2.424                   Wall time [min]:     0.072
 
 Gradient norm:      1.3322E+01
 DIIS is running in this iteration step.
 RMS of [F,P]:                                         0.00052171485900
 RMS of difference density:                            0.00049717195586
 Gap [au]:  0.19042397
 ALPHA OCC:  38
 BETA  OCC:  38
 
 ***HARTREE-FOCK ENERGY IN STEP   2 IS       -584.2389908701622971 [AU]
 
 Step comparison  Energy Drift [au]  DIIS error drift  Gradient drift
        1            4.2198E-02         7.5595E-04       0.0000E+00
        2            5.8424E+02         1.0000E-07       0.0000E+00
 ======================================================================
 ITERATION STEP   3
 CPU time [min]:     2.471                   Wall time [min]:     0.073
 

 SCF control                  : diis
 Damping factor/level shift   : 0.000/0.200
 DIIS [start/end/frequency]   :   2 / 50 /  1

 Constructing Fock-matrix...
 
 Pipek-Mezey localization...
 Step  Convergence
   1  12.440928619009
   2   6.386170648256
   3   6.545304870288
   4   1.774718698115
   5   0.347150644891
   6   0.070017829602
   7   0.000238535591
   8   0.000009543288
   9   0.000000327560
  10   0.000000011324
  11   0.000000000334
  12   0.000000000010
  13   0.000000000000
 CPU time [min]:     2.501                   Wall time [min]:     0.074
 
 Constructing local fitting domains...
 Local fitting domains are unchanged.
 
 First step of Coulomb + first step of exchange...
 Exchange contribution is evaluated for MOs 1 to 38.
   2% done.
  15% done.
  27% done.
  41% done.
  56% done.
  67% done.
  79% done.
 100% done.
 CPU time [min]:     3.256                   Wall time [min]:     0.095
 
 Fitting and assembly step of exchange...
 CPU time [min]:     3.290                   Wall time [min]:     0.096
 
 Second step of Coulomb...
   2% done.
  15% done.
  27% done.
  41% done.
  56% done.
  67% done.
  79% done.
 100% done.
 CPU time [min]:     3.625                   Wall time [min]:     0.105
 
 Gradient norm:      1.3322E+01
 DIIS is running in this iteration step.
 RMS of [F,P]:                                         0.00025674752521
 RMS of difference density:                            0.00030790037763
 Gap [au]:  0.19366834
 ALPHA OCC:  38
 BETA  OCC:  38
 
 ***HARTREE-FOCK ENERGY IN STEP   3 IS       -584.2435808086208908 [AU]
 
 Step comparison  Energy Drift [au]  DIIS error drift  Gradient drift
        2            4.5899E-03         2.6497E-04       0.0000E+00
 ======================================================================
 ITERATION STEP   4
 CPU time [min]:     3.673                   Wall time [min]:     0.107
 

 SCF control                  : diis
 Damping factor/level shift   : 0.000/0.200
 DIIS [start/end/frequency]   :   2 / 50 /  1

 Constructing Fock-matrix...
 
 Pipek-Mezey localization...
 Step  Convergence
   1  13.929849372626
   2   7.970101024993
   3   4.504133645937
   4   1.520280606791
   5   0.281900303662
   6   0.067304265491
   7   0.002039768950
   8   0.000049193767
   9   0.000001144263
  10   0.000000026517
  11   0.000000000615
  12   0.000000000014
  13   0.000000000000
 CPU time [min]:     3.702                   Wall time [min]:     0.108
 
 Constructing local fitting domains...
 Local fitting domains are unchanged.
 
 First step of Coulomb + first step of exchange...
 Exchange contribution is evaluated for MOs 1 to 38.
   2% done.
  15% done.
  27% done.
  41% done.
  56% done.
  67% done.
  79% done.
 100% done.
 CPU time [min]:     4.460                   Wall time [min]:     0.129
 
 Fitting and assembly step of exchange...
 CPU time [min]:     4.494                   Wall time [min]:     0.130
 
 Second step of Coulomb...
   2% done.
  15% done.
  27% done.
  41% done.
  56% done.
  67% done.
  79% done.
 100% done.
 CPU time [min]:     4.830                   Wall time [min]:     0.139
 
 Gradient norm:      1.3322E+01
 DIIS is running in this iteration step.
 RMS of [F,P]:                                         0.00006513951609
 RMS of difference density:                            0.00042426289163
 Gap [au]:  0.19502859
 ALPHA OCC:  38
 BETA  OCC:  38
 
 ***HARTREE-FOCK ENERGY IN STEP   4 IS       -584.2451639127184535 [AU]
 
 Step comparison  Energy Drift [au]  DIIS error drift  Gradient drift
        3            1.5831E-03         1.9161E-04       0.0000E+00
 ======================================================================
 ITERATION STEP   5
 CPU time [min]:     4.885                   Wall time [min]:     0.140
 

 SCF control                  : diis
 Damping factor/level shift   : 0.000/0.200
 DIIS [start/end/frequency]   :   2 / 50 /  1

 Constructing Fock-matrix...
 
 Pipek-Mezey localization...
 Step  Convergence
   1  12.777901937891
   2   6.792857657869
   3   3.884542531440
   4   0.614548950482
   5   0.070018397145
   6   0.002764654677
   7   0.000027209671
   8   0.000000172479
   9   0.000000003371
  10   0.000000000086
  11   0.000000000002
  12   0.000000000000
 CPU time [min]:     4.914                   Wall time [min]:     0.141
 
 Constructing local fitting domains...
 Local fitting domains are unchanged.
 
 First step of Coulomb + first step of exchange...
 Exchange contribution is evaluated for MOs 1 to 38.
   2% done.
  15% done.
  27% done.
  41% done.
  56% done.
  67% done.
  79% done.
 100% done.
 CPU time [min]:     5.674                   Wall time [min]:     0.162
 
 Fitting and assembly step of exchange...
 CPU time [min]:     5.707                   Wall time [min]:     0.163
 
 Second step of Coulomb...
   2% done.
  15% done.
  27% done.
  41% done.
  56% done.
  67% done.
  79% done.
 100% done.
 CPU time [min]:     6.042                   Wall time [min]:     0.173
 
 Gradient norm:      1.3322E+01
 DIIS is running in this iteration step.
 RMS of [F,P]:                                         0.00002623565282
 RMS of difference density:                            0.00041334282281
 Gap [au]:  0.19571899
 ALPHA OCC:  38
 BETA  OCC:  38
 
 ***HARTREE-FOCK ENERGY IN STEP   5 IS       -584.2456626214125208 [AU]
 
 Step comparison  Energy Drift [au]  DIIS error drift  Gradient drift
        4            4.9871E-04         3.8904E-05       0.0000E+00
 ======================================================================
 ITERATION STEP   6
 CPU time [min]:     6.092                   Wall time [min]:     0.174
 

 SCF control                  : diis
 Damping factor/level shift   : 0.000/0.200
 DIIS [start/end/frequency]   :   2 / 50 /  1

 Constructing Fock-matrix...
 
 Pipek-Mezey localization...
 Step  Convergence
   1  18.061996746597
   2   6.834245783005
   3   7.078059718036
   4   1.816736173787
   5   0.295505494182
   6   0.014331241396
   7   0.000147628627
   8   0.000000730559
   9   0.000000005085
  10   0.000000000060
  11   0.000000000001
  12   0.000000000000
 CPU time [min]:     6.122                   Wall time [min]:     0.175
 
 Constructing local fitting domains...
 Local fitting domains are unchanged.
 
 First step of Coulomb + first step of exchange...
 Exchange contribution is evaluated for MOs 1 to 38.
   2% done.
  15% done.
  27% done.
  41% done.
  56% done.
  67% done.
  79% done.
 100% done.
 CPU time [min]:     6.879                   Wall time [min]:     0.196
 
 Fitting and assembly step of exchange...
 CPU time [min]:     6.913                   Wall time [min]:     0.197
 
 Second step of Coulomb...
   2% done.
  15% done.
  27% done.
  41% done.
  56% done.
  67% done.
  79% done.
 100% done.
 CPU time [min]:     7.248                   Wall time [min]:     0.206
 
 Gradient norm:      1.3322E+01
 DIIS is running in this iteration step.
 RMS of [F,P]:                                         0.00001568524265
 RMS of difference density:                            0.00028561080849
 Gap [au]:  0.19613755
 ALPHA OCC:  38
 BETA  OCC:  38
 
 ***HARTREE-FOCK ENERGY IN STEP   6 IS       -584.2457956646094317 [AU]
 
 Step comparison  Energy Drift [au]  DIIS error drift  Gradient drift
        5            1.3304E-04         1.0550E-05       0.0000E+00
 ======================================================================
 ITERATION STEP   7
 CPU time [min]:     7.297                   Wall time [min]:     0.208
 

 SCF control                  : diis
 Damping factor/level shift   : 0.000/0.200
 DIIS [start/end/frequency]   :   2 / 50 /  1

 Constructing Fock-matrix...
 
 Pipek-Mezey localization...
 Step  Convergence
   1  14.572547707104
   2   7.888282299467
   3   4.445570231063
   4   2.419553889110
   5   0.135846713164
   6   0.008256617008
   7   0.000565793957
   8   0.000050779208
   9   0.000006832031
  10   0.000000711113
  11   0.000000100032
  12   0.000000010480
  13   0.000000001479
  14   0.000000000155
  15   0.000000000022
  16   0.000000000002
  17   0.000000000000
 CPU time [min]:     7.329                   Wall time [min]:     0.209
 
 Constructing local fitting domains...
 Local fitting domains are unchanged.
 
 First step of Coulomb + first step of exchange...
 Exchange contribution is evaluated for MOs 1 to 38.
   2% done.
  15% done.
  27% done.
  41% done.
  56% done.
  67% done.
  79% done.
 100% done.
 CPU time [min]:     8.087                   Wall time [min]:     0.230
 
 Fitting and assembly step of exchange...
 CPU time [min]:     8.120                   Wall time [min]:     0.231
 
 Second step of Coulomb...
   2% done.
  15% done.
  27% done.
  41% done.
  56% done.
  67% done.
  79% done.
 100% done.
 CPU time [min]:     8.470                   Wall time [min]:     0.240
 
 Gradient norm:      1.3322E+01
 DIIS is running in this iteration step.
 RMS of [F,P]:                                         0.00000859576496
 RMS of difference density:                            0.00015348144903
 Gap [au]:  0.19661653
 ALPHA OCC:  38
 BETA  OCC:  38
 
 ***HARTREE-FOCK ENERGY IN STEP   7 IS       -584.2458411652778523 [AU]
 
 Step comparison  Energy Drift [au]  DIIS error drift  Gradient drift
        6            4.5501E-05         7.0895E-06       0.0000E+00
 ======================================================================
 ITERATION STEP   8
 CPU time [min]:     8.518                   Wall time [min]:     0.242
 

 SCF control                  : diis
 Damping factor/level shift   : 0.000/0.200
 DIIS [start/end/frequency]   :   2 / 50 /  1

 Constructing Fock-matrix...
 
 Pipek-Mezey localization...
 Step  Convergence
   1  20.318837167313
   2  12.176067291709
   3   5.886227321237
   4   2.379687681812
   5   0.731781591633
   6   0.033393001883
   7   0.003063841928
   8   0.000331629081
   9   0.000036128118
  10   0.000004175930
  11   0.000000485934
  12   0.000000057666
  13   0.000000006896
  14   0.000000000827
  15   0.000000000100
  16   0.000000000012
  17   0.000000000001
  18   0.000000000000
 CPU time [min]:     8.552                   Wall time [min]:     0.243
 
 Constructing local fitting domains...
 Local fitting domains are unchanged.
 
 First step of Coulomb + first step of exchange...
 Exchange contribution is evaluated for MOs 1 to 38.
   2% done.
  15% done.
  27% done.
  41% done.
  56% done.
  67% done.
  79% done.
 100% done.
 CPU time [min]:     9.309                   Wall time [min]:     0.264
 
 Fitting and assembly step of exchange...
 CPU time [min]:     9.343                   Wall time [min]:     0.265
 
 Second step of Coulomb...
   2% done.
  15% done.
  27% done.
  41% done.
  56% done.
  67% done.
  79% done.
 100% done.
 CPU time [min]:     9.678                   Wall time [min]:     0.274
 
 Gradient norm:      1.3322E+01
 DIIS is running in this iteration step.
 RMS of [F,P]:                                         0.00000423787473
 RMS of difference density:                            0.00006101969885
 Gap [au]:  0.19689188
 ALPHA OCC:  38
 BETA  OCC:  38
 
 ***HARTREE-FOCK ENERGY IN STEP   8 IS       -584.2458573771782540 [AU]
 
 Step comparison  Energy Drift [au]  DIIS error drift  Gradient drift
        7            1.6212E-05         4.3579E-06       0.0000E+00
 ======================================================================
 ITERATION STEP   9
 CPU time [min]:     9.727                   Wall time [min]:     0.276
 

 SCF control                  : diis
 Damping factor/level shift   : 0.000/0.000
 DIIS [start/end/frequency]   :   2 / 50 /  1

 Constructing Fock-matrix...
 
 Pipek-Mezey localization...
 Step  Convergence
   1  15.554130083412
   2   7.076262297656
   3   4.193671762275
   4   1.132729518587
   5   0.453926335445
   6   0.042536375241
   7   0.004535767763
   8   0.000063568895
   9   0.000001199818
  10   0.000000037277
  11   0.000000001360
  12   0.000000000053
  13   0.000000000002
  14   0.000000000000
 CPU time [min]:     9.758                   Wall time [min]:     0.276
 
 Constructing local fitting domains...
 Local fitting domains are unchanged.
 
 First step of Coulomb + first step of exchange...
 Exchange contribution is evaluated for MOs 1 to 38.
   2% done.
  15% done.
  27% done.
  41% done.
  56% done.
  67% done.
  79% done.
 100% done.
 CPU time [min]:    10.514                   Wall time [min]:     0.297
 
 Fitting and assembly step of exchange...
 CPU time [min]:    10.548                   Wall time [min]:     0.298
 
 Second step of Coulomb...
   2% done.
  15% done.
  27% done.
  41% done.
  56% done.
  67% done.
  79% done.
 100% done.
 CPU time [min]:    10.883                   Wall time [min]:     0.308
 
 Gradient norm:      1.3322E+01
 DIIS is running in this iteration step.
 RMS of [F,P]:                                         0.00000237993897
 RMS of difference density:                            0.00003083269730
 Gap [au]:  0.19697148
 ALPHA OCC:  38
 BETA  OCC:  38
 
 ***HARTREE-FOCK ENERGY IN STEP   9 IS       -584.2458630008713953 [AU]
 
 Step comparison  Energy Drift [au]  DIIS error drift  Gradient drift
        8            5.6237E-06         1.8579E-06       0.0000E+00
 ======================================================================
 ITERATION STEP  10
 CPU time [min]:    10.933                   Wall time [min]:     0.309
 

 SCF control                  : diis
 Damping factor/level shift   : 0.000/0.000
 DIIS [start/end/frequency]   :   2 / 50 /  1

 Constructing Fock-matrix...
 
 Pipek-Mezey localization...
 Step  Convergence
   1  16.559446701611
   2   6.643748617122
   3   3.716836520897
   4   1.697819128915
   5   0.882313825132
   6   0.024507141192
   7   0.007477081330
   8   0.000653635049
   9   0.000103337913
  10   0.000016542945
  11   0.000002876797
  12   0.000000501111
  13   0.000000089740
  14   0.000000016076
  15   0.000000002918
  16   0.000000000530
  17   0.000000000097
  18   0.000000000018
  19   0.000000000003
  20   0.000000000001
 CPU time [min]:    10.968                   Wall time [min]:     0.310
 
 Constructing local fitting domains...
 Local fitting domains are unchanged.
 
 First step of Coulomb + first step of exchange...
 Exchange contribution is evaluated for MOs 1 to 38.
   2% done.
  15% done.
  27% done.
  41% done.
  56% done.
  67% done.
  79% done.
 100% done.
 CPU time [min]:    11.726                   Wall time [min]:     0.331
 
 Fitting and assembly step of exchange...
 CPU time [min]:    11.760                   Wall time [min]:     0.332
 
 Second step of Coulomb...
   2% done.
  15% done.
  27% done.
  41% done.
  56% done.
  67% done.
  79% done.
 100% done.
 CPU time [min]:    12.095                   Wall time [min]:     0.342
 
 Gradient norm:      1.3322E+01
 DIIS is running in this iteration step.
 RMS of [F,P]:                                         0.00000108677086
 RMS of difference density:                            0.00001230815187
 Gap [au]:  0.19702892
 ALPHA OCC:  38
 BETA  OCC:  38
 
 ***HARTREE-FOCK ENERGY IN STEP  10 IS       -584.2458650339317501 [AU]
 
 Step comparison  Energy Drift [au]  DIIS error drift  Gradient drift
        9            2.0331E-06         1.2932E-06       0.0000E+00
 ======================================================================
 ITERATION STEP  11
 CPU time [min]:    12.143                   Wall time [min]:     0.343
 

 SCF control                  : diis
 Damping factor/level shift   : 0.000/0.000
 DIIS [start/end/frequency]   :   2 / 50 /  1

 Constructing Fock-matrix...
 
 Pipek-Mezey localization...
 Step  Convergence
   1  16.812840084556
   2   8.598955092019
   3   5.807866992870
   4   1.230059733237
   5   0.304941073346
   6   0.390923494840
   7   0.020812497465
   8   0.000711894804
   9   0.000037725997
  10   0.000003967906
  11   0.000000500675
  12   0.000000065484
  13   0.000000009467
  14   0.000000001254
  15   0.000000000188
  16   0.000000000025
  17   0.000000000004
  18   0.000000000001
 CPU time [min]:    12.177                   Wall time [min]:     0.344
 
 Constructing local fitting domains...
 Local fitting domains are unchanged.
 
 First step of Coulomb + first step of exchange...
 Exchange contribution is evaluated for MOs 1 to 38.
   2% done.
  15% done.
  27% done.
  41% done.
  56% done.
  67% done.
  79% done.
 100% done.
 CPU time [min]:    12.942                   Wall time [min]:     0.365
 
 Fitting and assembly step of exchange...
 CPU time [min]:    12.976                   Wall time [min]:     0.366
 
 Second step of Coulomb...
   2% done.
  15% done.
  27% done.
  41% done.
  56% done.
  67% done.
  79% done.
 100% done.
 CPU time [min]:    13.312                   Wall time [min]:     0.375
 
 Gradient norm:      1.3322E+01
 DIIS is running in this iteration step.
 RMS of [F,P]:                                         0.00000034561328
 RMS of difference density:                            0.00000393473315
 Gap [au]:  0.19705477
 ALPHA OCC:  38
 BETA  OCC:  38
 
 ***HARTREE-FOCK ENERGY IN STEP  11 IS       -584.2458651377280603 [AU]
 
 Step comparison  Energy Drift [au]  DIIS error drift  Gradient drift
       10            1.0380E-07         7.4116E-07       0.0000E+00
 ======================================================================
 ITERATION STEP  12
 CPU time [min]:    13.364                   Wall time [min]:     0.377
 

 SCF control                  : diis
 Damping factor/level shift   : 0.000/0.000
 DIIS [start/end/frequency]   :   2 / 50 /  1

 Constructing Fock-matrix...
 
 Pipek-Mezey localization...
 Step  Convergence
   1  16.756423805646
   2   8.174956660920
   3   5.406879760410
   4   1.705766485641
   5   0.452049120464
   6   0.006379285919
   7   0.000020920193
   8   0.000001293016
   9   0.000000043460
  10   0.000000003646
  11   0.000000000205
  12   0.000000000019
  13   0.000000000001
  14   0.000000000000
 CPU time [min]:    13.394                   Wall time [min]:     0.378
 
 Constructing local fitting domains...
 Local fitting domains are unchanged.
 
 First step of Coulomb + first step of exchange...
 Exchange contribution is evaluated for MOs 1 to 38.
   2% done.
  15% done.
  27% done.
  41% done.
  56% done.
  67% done.
  79% done.
 100% done.
 CPU time [min]:    14.154                   Wall time [min]:     0.399
 
 Fitting and assembly step of exchange...
 CPU time [min]:    14.188                   Wall time [min]:     0.400
 
 Second step of Coulomb...
   2% done.
  15% done.
  27% done.
  41% done.
  56% done.
  67% done.
  79% done.
 100% done.
 CPU time [min]:    14.523                   Wall time [min]:     0.409
 
 Gradient norm:      1.3322E+01
 DIIS is running in this iteration step.
 RMS of [F,P]:                                         0.00000016338073
 RMS of difference density:                            0.00000078451758
 Gap [au]:  0.19706283
 ALPHA OCC:  38
 BETA  OCC:  38
 
 ***HARTREE-FOCK ENERGY IN STEP  12 IS       -584.2458651560914404 [AU]
 
 Step comparison  Energy Drift [au]  DIIS error drift  Gradient drift
       11            1.8363E-08         1.8223E-07       0.0000E+00
 ======================================================================
 ITERATION STEP  13
 CPU time [min]:    14.573                   Wall time [min]:     0.411
 

 SCF control                  : diis
 Damping factor/level shift   : 0.000/0.000
 DIIS [start/end/frequency]   :   2 / 50 /  1

 Constructing Fock-matrix...
 
 Pipek-Mezey localization...
 Step  Convergence
   1  15.620087602295
   2   7.552879745311
   3   4.722800709851
   4   1.563912649645
   5   0.600262472457
   6   0.026066550142
   7   0.001411071418
   8   0.000159396612
   9   0.000011677678
  10   0.000001354639
  11   0.000000102215
  12   0.000000012056
  13   0.000000000945
  14   0.000000000112
  15   0.000000000009
  16   0.000000000001
  17   0.000000000000
 CPU time [min]:    14.606                   Wall time [min]:     0.412
 
 Constructing local fitting domains...
 Local fitting domains are unchanged.
 
 First step of Coulomb + first step of exchange...
 Exchange contribution is evaluated for MOs 1 to 38.
   2% done.
  15% done.
  27% done.
  41% done.
  56% done.
  67% done.
  79% done.
 100% done.
 CPU time [min]:    15.367                   Wall time [min]:     0.433
 
 Fitting and assembly step of exchange...
 CPU time [min]:    15.401                   Wall time [min]:     0.434
 
 Second step of Coulomb...
   2% done.
  15% done.
  27% done.
  41% done.
  56% done.
  67% done.
  79% done.
 100% done.
 CPU time [min]:    15.737                   Wall time [min]:     0.443
 
 Gradient norm:      1.3322E+01
 DIIS is running in this iteration step.
 RMS of [F,P]:                                         0.00000005535713
 RMS of difference density:                            0.00000078594249
 Gap [au]:  0.19706437
 ALPHA OCC:  38
 BETA  OCC:  38
 
 ***HARTREE-FOCK ENERGY IN STEP  13 IS       -584.2458651585750431 [AU]
 
 Step comparison  Energy Drift [au]  DIIS error drift  Gradient drift
       12            2.4836E-09         1.0802E-07       0.0000E+00
 ======================================================================
 ITERATION STEP  14
 CPU time [min]:    15.787                   Wall time [min]:     0.444
 

 SCF control                  : diis
 Damping factor/level shift   : 0.000/0.000
 DIIS [start/end/frequency]   :   2 / 50 /  1

 Constructing Fock-matrix...
 
 Pipek-Mezey localization...
 Step  Convergence
   1  16.761805850155
   2   7.902719785062
   3   4.770501198301
   4   2.085096082908
   5   0.543438120958
   6   0.007633405513
   7   0.000012359585
   8   0.000000564272
   9   0.000000007815
  10   0.000000000486
  11   0.000000000016
  12   0.000000000001
 CPU time [min]:    15.817                   Wall time [min]:     0.445
 
 Constructing local fitting domains...
 Local fitting domains are unchanged.
 
 First step of Coulomb + first step of exchange...
 Exchange contribution is evaluated for MOs 1 to 38.
   2% done.
  15% done.
  27% done.
  41% done.
  56% done.
  67% done.
  79% done.
 100% done.
 CPU time [min]:    16.576                   Wall time [min]:     0.466
 
 Fitting and assembly step of exchange...
 CPU time [min]:    16.610                   Wall time [min]:     0.467
 
 Second step of Coulomb...
   2% done.
  15% done.
  27% done.
  41% done.
  56% done.
  67% done.
  79% done.
 100% done.
 CPU time [min]:    16.946                   Wall time [min]:     0.477
 
 Gradient norm:      1.3322E+01
 DIIS is running in this iteration step.
 RMS of [F,P]:                                         0.00000001309682
 RMS of difference density:                            0.00000012858376
[...]
 Iteration  6        0.003096027401       -1.189990390373
 Iteration  7        0.001377891137       -1.190056933313
 Iteration  8        0.000457244847       -1.190027537438
 Iteration  9        0.000203772245       -1.190022178862
 Iteration 10        0.000073531688       -1.190025237533
 
 CCSD iteration has converged in 10 steps.
      711.97 MB memory was utilized by CCSD
 
 T1 diagnostic:      2.946E-02            D1 diagnostic:      1.700E-01
 
 T1 contribution [au]:                         0.000000000000
 CCSD correlation energy [au]:                -0.101237908484
 
 CPU time [min]:   382.000                   Wall time [min]:    13.017
 
 Calculation of (T) correction...
 
 Laplace threshold, nquadmin:  1.00E-02   3
 Number of quadrature points:    3
 
      472.07 MB memory is utilized for (T)

 0%       25%       50%       75%       100%
 |---------|---------|---------|---------| 
 
 (T) correction [au]:                   -0.004722711429
 CCSD(T) correlation energy [au]:       -0.105960619913
 
 CPU time [min]:   384.892                   Wall time [min]:    13.101
 
 MO:    36
 Number of atoms in domain:       4
 Number of atomic orbitals:     488
 Number of atoms for local DF:    4
 Number of fitting functions:  1444 (100.00%)
 Number of occupied orbitals:    29
 Number of virtual  orbitals:   450
 Number of Cholesky vectors:      9
 MP2 energy in ED [au]:          -0.111981682733
 Number of occupied LNOs:        21  (72.41%)
 Number of virtual  LNOs:       110  (24.44%)
dropped smallnorm     2     3   7.64381993E-06
dropped smallnorm    13    15   3.48311693E-05
dropped smallnorm    13    16   2.62873568E-05
dropped smallnorm    13    17   2.62873668E-05
 tol*100>norm                    43  5.603558923036358E-004
 tol*100>norm                    44  1.068275326364497E-003
 tol*100>norm                    45  2.391446176854602E-003
 tol*100>norm                    46  1.068275476705096E-003
 tol*100>norm                    47  5.603558931140368E-004
dropped smallnorm   120   125   6.27077017E-06
dropped smallnorm   131   137   4.27997882E-05
dropped smallnorm   131   138   2.62791837E-05
dropped smallnorm   131   139   2.62792118E-05
 tol*100>norm                   165  5.785220364019204E-004
 tol*100>norm                   166  1.532201060916860E-003
 tol*100>norm                   167  3.424146309600592E-003
 tol*100>norm                   168  1.532569050400158E-003
 tol*100>norm                   169  5.785856742890592E-004
dropped smallnorm   238   247   6.69113821E-06
dropped smallnorm   249   259   5.32035206E-05
dropped smallnorm   249   260   2.65907462E-05
dropped smallnorm   249   261   2.65905019E-05
 tol*100>norm                   287  5.939552321990191E-004
 tol*100>norm                   288  1.976881802477949E-003
 tol*100>norm                   289  5.418568655976910E-003
 tol*100>norm                   290  1.976394385649606E-003
 tol*100>norm                   291  5.939712013180343E-004
 Number of Cholesky vectors:      8
 MP2 energy in LIS [au]:         -0.111257622102
 Correction for frozen LNO [au]: -0.000724060631     (0.647%)
 Number of NAFs:                414  (28.67%)
 CPU time [min]:   394.949                   Wall time [min]:    13.447
 

 Direct DF-CCSD(T) calculation
 
 Convergence criterion:  1.0E-05
 
 Number of occupied/virtual/auxiliary orbitals:    21   110   414
    284.37 MB is the minimal memory requirement for (T)
    168.35 MB is the minimal memory requirement for CCSD
 
 MP2 correlation energy [au]:       -1.247614701688
 
 LMP2 domain correlation energy contribution [au]:       -0.111255089782
 
 CPU time [min]:   395.133                   Wall time [min]:    13.453
 
 
 Starting CCSD iterations...
 
                     Residual norm       Correlation Energy
 Iteration  1        0.315616001675       -1.148918259370
 Iteration  2        0.095781410485       -1.186761242772
 Iteration  3        0.031353825257       -1.193531119670
 Iteration  4        0.015723546771       -1.190341735334
 Iteration  5        0.007073985632       -1.189388070493
 Iteration  6        0.003096064967       -1.189987922548
 Iteration  7        0.001377903335       -1.190054465441
 Iteration  8        0.000457243747       -1.190025070458
 Iteration  9        0.000203769592       -1.190019712050
 Iteration 10        0.000073530281       -1.190022770649
 
 CCSD iteration has converged in 10 steps.
      711.97 MB memory was utilized by CCSD
 
 T1 diagnostic:      2.946E-02            D1 diagnostic:      1.700E-01
 
 T1 contribution [au]:                         0.000000000000
 CCSD correlation energy [au]:                -0.101237835810
 
 CPU time [min]:   400.730                   Wall time [min]:    13.623
 
 Calculation of (T) correction...
 
 Laplace threshold, nquadmin:  1.00E-02   3
 Number of quadrature points:    3
 
      472.07 MB memory is utilized for (T)

 0%       25%       50%       75%       100%
 |---------|---------|---------|---------| 
 
 (T) correction [au]:                   -0.004722698417
 CCSD(T) correlation energy [au]:       -0.105960534227
 
 CPU time [min]:   403.649                   Wall time [min]:    13.709
 
 MO:    37
 Number of atoms in domain:       4
 Number of atomic orbitals:     488
 Number of atoms for local DF:    4
 Number of fitting functions:  1444 (100.00%)
 Number of occupied orbitals:    34
 Number of virtual  orbitals:   450
 Number of Cholesky vectors:      9
 MP2 energy in ED [au]:          -0.080249201531
 Number of occupied LNOs:        30  (88.24%)
 Number of virtual  LNOs:       171  (38.00%)
dropped smallnorm     2     3   7.64376412E-06
dropped smallnorm    13    15   3.48307965E-05
dropped smallnorm    13    16   2.62872900E-05
dropped smallnorm    13    17   2.62873006E-05
 tol*100>norm                    43  5.603558775377232E-004
 tol*100>norm                    44  1.068183911876861E-003
 tol*100>norm                    45  2.391259744281839E-003
 tol*100>norm                    46  1.068183105318335E-003
 tol*100>norm                    47  5.603558777843766E-004
dropped smallnorm   120   125   6.27035034E-06
dropped smallnorm   131   137   4.27851918E-05
dropped smallnorm   131   138   2.62785131E-05
dropped smallnorm   131   139   2.62785281E-05
 tol*100>norm                   165  5.780978989680639E-004
 tol*100>norm                   166  1.532123207524204E-003
 tol*100>norm                   167  3.423334378449239E-003
 tol*100>norm                   168  1.532531370623779E-003
 tol*100>norm                   169  5.781255642204374E-004
dropped smallnorm   238   247   6.67084270E-06
dropped smallnorm   249   259   4.93851726E-05
dropped smallnorm   249   260   2.63455916E-05
dropped smallnorm   249   261   2.63453210E-05
 tol*100>norm                   287  5.780139536784002E-004
 tol*100>norm                   288  1.624022832223290E-003
 tol*100>norm                   289  4.874794486058681E-003
 tol*100>norm                   290  1.623591823675353E-003
 tol*100>norm                   291  5.780272570163206E-004
 tol*100>norm                   409  5.603558761848019E-004
 tol*100>norm                   410  1.076880269221379E-003
 tol*100>norm                   411  2.392056461531501E-003
 tol*100>norm                   412  1.076881228470252E-003
 tol*100>norm                   413  5.603558762128210E-004
 Number of Cholesky vectors:      7
 MP2 energy in LIS [au]:         -0.079038027565
 Correction for frozen LNO [au]: -0.001211173966     (1.509%)
 Number of NAFs:                635  (43.98%)
 CPU time [min]:   416.471                   Wall time [min]:    14.171
 

 Direct DF-CCSD(T) calculation
 
 Convergence criterion:  1.0E-05
 
 Number of occupied/virtual/auxiliary orbitals:    30   171   635
   1088.31 MB is the minimal memory requirement for (T)
    629.61 MB is the minimal memory requirement for CCSD
 
 MP2 correlation energy [au]:       -1.941270035627
 
 LMP2 domain correlation energy contribution [au]:       -0.079037086896
 
 CPU time [min]:   416.816                   Wall time [min]:    14.208
 
 
 Starting CCSD iterations...
 
                     Residual norm       Correlation Energy
 Iteration  1        0.406395984813       -1.754436349073
 Iteration  2        0.131518966869       -1.815280307070
 Iteration  3        0.033753911043       -1.825592708866
 Iteration  4        0.014599749177       -1.822938436866
 Iteration  5        0.005416943458       -1.821811086590
 Iteration  6        0.002724707908       -1.822038155973
 Iteration  7        0.001417988002       -1.822346914346
 Iteration  8        0.000673910987       -1.822286984905
 Iteration  9        0.000322691449       -1.822252211949
 Iteration 10        0.000180371182       -1.822263262015
 Iteration 11        0.000076352017       -1.822264456607
 Iteration 12        0.000038895486       -1.822260040010
 
 CCSD iteration has converged in 12 steps.
     3854.23 MB memory was utilized by CCSD
 
 T1 diagnostic:      2.103E-02            D1 diagnostic:      9.332E-02
 
 T1 contribution [au]:                         0.000000000000
 CCSD correlation energy [au]:                -0.073090907986
 
 CPU time [min]:   454.601                   Wall time [min]:    15.611
 
 Calculation of (T) correction...
 
 Laplace threshold, nquadmin:  1.00E-02   3
 Number of quadrature points:    3
 
     2188.86 MB memory is utilized for (T)

 0%       25%       50%       75%       100%
 |---------|---------|---------|---------| 
 
 (T) correction [au]:                   -0.006952364927
 CCSD(T) correlation energy [au]:       -0.080043272913
 
 CPU time [min]:   481.923                   Wall time [min]:    16.444
 
 MO:    38
 Number of atoms in domain:       4
 Number of atomic orbitals:     488
 Number of atoms for local DF:    4
 Number of fitting functions:  1444 (100.00%)
 Number of occupied orbitals:    34
 Number of virtual  orbitals:   450
 Number of Cholesky vectors:      9
 MP2 energy in ED [au]:          -0.080249201534
 Number of occupied LNOs:        30  (88.24%)
 Number of virtual  LNOs:       171  (38.00%)
 tol*100>norm                    43  5.603558762102652E-004
 tol*100>norm                    44  1.076881198913551E-003
 tol*100>norm                    45  2.392056461666766E-003
 tol*100>norm                    46  1.076880298816422E-003
 tol*100>norm                    47  5.603558762151106E-004
dropped smallnorm   124   125   6.67084262E-06
dropped smallnorm   135   137   4.93851718E-05
dropped smallnorm   135   138   2.63455729E-05
dropped smallnorm   135   139   2.63453397E-05
 tol*100>norm                   165  5.780143464038206E-004
 tol*100>norm                   166  1.623592579517871E-003
 tol*100>norm                   167  4.874794490297545E-003
 tol*100>norm                   168  1.624022074758078E-003
 tol*100>norm                   169  5.780268637917334E-004
dropped smallnorm   242   247   6.27035033E-06
dropped smallnorm   253   259   4.27851918E-05
dropped smallnorm   253   260   2.62785280E-05
dropped smallnorm   253   261   2.62785132E-05
 tol*100>norm                   287  5.780970722545019E-004
 tol*100>norm                   288  1.532532144050753E-003
 tol*100>norm                   289  3.423334375000321E-003
 tol*100>norm                   290  1.532122435627460E-003
 tol*100>norm                   291  5.781263929356076E-004
dropped smallnorm   360   369   7.64376412E-06
dropped smallnorm   371   381   3.48307965E-05
dropped smallnorm   371   382   2.62873006E-05
dropped smallnorm   371   383   2.62872900E-05
 tol*100>norm                   409  5.603558775053341E-004
 tol*100>norm                   410  1.068183103596348E-003
 tol*100>norm                   411  2.391259744108558E-003
 tol*100>norm                   412  1.068183913559750E-003
 tol*100>norm                   413  5.603558777890348E-004
 Number of Cholesky vectors:      7
 MP2 energy in LIS [au]:         -0.079038027568
 Correction for frozen LNO [au]: -0.001211173966     (1.509%)
 Number of NAFs:                635  (43.98%)
 CPU time [min]:   494.697                   Wall time [min]:    16.904
 

 Direct DF-CCSD(T) calculation
 
 Convergence criterion:  1.0E-05
 
 Number of occupied/virtual/auxiliary orbitals:    30   171   635
   1088.31 MB is the minimal memory requirement for (T)
    629.61 MB is the minimal memory requirement for CCSD
 
 MP2 correlation energy [au]:       -1.941270034457
 
 LMP2 domain correlation energy contribution [au]:       -0.079037086894
 
 CPU time [min]:   495.040                   Wall time [min]:    16.942
 
 
 Starting CCSD iterations...
 
                     Residual norm       Correlation Energy
 Iteration  1        0.406395983966       -1.754436347196
 Iteration  2        0.131518967272       -1.815280305298
 Iteration  3        0.033753910764       -1.825592707180
 Iteration  4        0.014599749136       -1.822938435168
 Iteration  5        0.005416943467       -1.821811084859
 Iteration  6        0.002724707912       -1.822038154244
 Iteration  7        0.001417988016       -1.822346912625
 Iteration  8        0.000673910987       -1.822286983186
 Iteration  9        0.000322691447       -1.822252210230
 Iteration 10        0.000180371182       -1.822263260296
 Iteration 11        0.000076352017       -1.822264454887
 Iteration 12        0.000038895486       -1.822260038290
 
 CCSD iteration has converged in 12 steps.
     3854.23 MB memory was utilized by CCSD
 
 T1 diagnostic:      2.103E-02            D1 diagnostic:      9.332E-02
 
 T1 contribution [au]:                         0.000000000000
 CCSD correlation energy [au]:                -0.073090907975
 
 CPU time [min]:   532.754                   Wall time [min]:    18.342
 
 Calculation of (T) correction...
 
 Laplace threshold, nquadmin:  1.00E-02   3
 Number of quadrature points:    3
 
     2188.86 MB memory is utilized for (T)

 0%       25%       50%       75%       100%
 |---------|---------|---------|---------| 
 
 (T) correction [au]:                   -0.006952364927
 CCSD(T) correlation energy [au]:       -0.080043272902
 
 CPU time [min]:   560.121                   Wall time [min]:    19.177
 
 **********************************************************************
 Dimensions of the extended domains:    Minimum / Average / Maximum
 
 Number of atoms in domain:                   4       4.0         4
 Number of atomic orbitals:                 488     488.0       488
 Number of fitting functions:              1444    1444.0      1444
 Number of occupied localized MOs:           13      20.8        34
 Number of PAOs:                            450     450.0       450
 Number of occupied LNOs:                    10      15.5        30
 Number of virtual  LNOs:                    59      85.1       171
 Number of NAFs:                            215     316.5       635
 
 **********************************************************************
 Distant (and weak) pair contributions, corrections
 
 Sum of pair energies [au]:                    -0.000576053672    (0.018%)
 Sum of energy corrections [au]:               -0.025019006924    (0.762%)
 Pair energies + LNO corrections [au]:         -0.025595060596
 Sum of LMP2 contributions [au]:               -3.283720978404
 
 **********************************************************************
  Time of manipulations in the EDs:      max CPU/Wall [s]  all CPU/Wall [min]
 
 PD construction & multipole pair E     159.29     4.68     2.65     0.08
 Construct MO basis of the ED             5.68     0.16     2.82     0.08
 (mu,nu|P) evaluation & trf 2 (ai|P)    166.85     4.65    79.69     2.22
 Evaluate MP2 energy of the ED           16.82     0.47     6.33     0.18
 Transformations to the LNO basis        10.58     0.30     3.98     0.11
 Build W_PQ (Jai or Jpi part)             1.91     0.06     0.65     0.02
 Evaluate MP2 energy of the LIS           1.67     0.05     0.21     0.01
 (mu,nu|P) evaluation & trf 2 J(abQ)    543.91    21.29   209.79     8.32
 Total of the above for all EDs         747.42    26.97   303.48    10.93
 
 **********************************************************************
 Maximum memory requirement [MB]:       
 
 PD construction & multipole pair E         19.2
 AO integral evaluation in the EDs        2959.4
 (mu,nu|P) evaluation & trf 2 (aI|P)      3723.3
 Evaluate MP2 energy in the EDs            457.2
 Transformation to the LNO basis           254.1
 (mu,nu|P) to Jab transformation          3132.8
 Evaluate MP2 energy in the LIS            281.4
 Minimum requirement for LIS CCSD          629.6
 Actually allocated  for LIS CCSD         3854.2
 Minimum requirement for LIS (T)          1088.3
 Actually allocated  for LIS (T)          2188.9
 
 ======================================================================
 ======================================================================
 
 
 
 ======================================================================
 ======================================================================
 
 Final local CC results:
 
 Minimum number of correlated electrons:        20       ( 26.3%)
 Maximum number of correlated electrons:        60       ( 78.9%)
 Average number of correlated electrons:        31.1     ( 40.9%)
 Minimum number of correlated orbitals:         69       ( 14.1%)
 Maximum number of correlated orbitals:        201       ( 41.2%)
 Average number of correlated orbitals:        100.6     ( 20.6%)
 
 CPU time for integral calculations [min]:                  8.950
 Wall time for integral calculations [min]:                 0.544
 
 CPU time for SCF calculation [min]:                       18.338
 Wall time for SCF calculation [min]:                       0.533
 
 CPU time for orbital localization [min]:                   0.181
 Wall time for orbital localization [min]:                  0.024
 
 CPU time for integral transformations [min]:             312.907
 Wall time for integral transformations [min]:             11.211
 
 Reference energy [au]:                                  -584.245865158970
 
 LMP2 correlation energy [au]:                             -3.283720978404
 Total LMP2 energy [au]:                                 -587.529586137375
 
 Total MP2 correction for dropped NAFs [au]:               -0.000070878527
 Total MP2 correction [au]:                                -0.025665939123
 
 CPU time for CCSD calculations [min]:                    155.181
 Total CPU time for CCSD [min]:                           495.558
 Wall time for CCSD calculations [min]:                     5.194
 Total wall time for CCSD [min]:                           17.506
 
 CCSD correlation energy [au]:                             -3.077132432789
 Total CCSD energy [au]:                                 -587.322997591759
 CCSD correlation energy + 0.5 MP2 corrections [au]:       -3.089965402351
 Total LNO-CCSD energy with MP2 corrections [au]:        -587.335830561321
 
 CPU time for (T) corrections [min]:                       92.040
 Total CPU time for CCSD(T) [min]:                        587.597
 Wall time for (T) corrections [min]:                       2.772
 Total wall time for CCSD(T) [min]:                        20.278
 
 Total (T) correlation energy contribution [au]:           -0.120063364214
 Total (T) correlation energy+0.5 MP2 correction [au]:     -0.132896333776
 CCSD(T) correlation energy [au]:                          -3.197195797003
 Total CCSD(T) energy [au]:                              -587.443060955973
 CCSD(T) correlation energy + MP2 corrections [au]:        -3.222861736126
 Total LNO-CCSD(T) energy with MP2 corrections [au]:     -587.468726895097
 
 ======================================================================
 ======================================================================
 
 ************************ 2023-02-26 23:13:58 *************************
                      Normal termination of mrcc.
 **********************************************************************
