 vasp.6.3.0 20Jan22 (build Apr  1 2022 16:44:48) complex                         
 executed on        HPECrayEX_GCC date 2023.01.06  22:53:07
 running  768 mpi-ranks, with    1 threads/rank
 distrk:  each k-point on  384 cores,    2 groups
 distr:  one band on NCORE=   4 cores,   96 groups


--------------------------------------------------------------------------------------------------------


 INCAR:
   SYSTEM = MgO-rocksalt
   ISMEAR = 0
   SIGMA = 0.05
   EDIFF = 1E-6
   ALGO = ALL
   ISTART = 0
   IBRION = -1
   NSW = 0
   ISYM = 2
   LHFCALC = .TRUE.
   HFSCREEN = 0.2
   GGA = PE
   ENCUT = 520
   PREC = Accurate
   LASPH = .TRUE.
   LREAL = Auto
   ISPIN = 1
   NELM = 200
   NELMIN = 8
   NCORE = 4
   KPAR = 2
   LWAVE = .FALSE.
   LCHARG = .FALSE.

 POTCAR:    PAW_PBE Ag 02Apr2005                  
 -----------------------------------------------------------------------------
|                                                                             |
|           W    W    AA    RRRRR   N    N  II  N    N   GGGG   !!!           |
|           W    W   A  A   R    R  NN   N  II  NN   N  G    G  !!!           |
|           W    W  A    A  R    R  N N  N  II  N N  N  G       !!!           |
|           W WW W  AAAAAA  RRRRR   N  N N  II  N  N N  G  GGG   !            |
|           WW  WW  A    A  R   R   N   NN  II  N   NN  G    G                |
|           W    W  A    A  R    R  N    N  II  N    N   GGGG   !!!           |
|                                                                             |
|     You have selected ISYM=2 for a HF type calculation. This will           |
|     symmetrize the charge density but not the exchange potential. I         |
|     suggest to use ISYM=3 instead. This uses symmetry to obtain the         |
|     orbitals at all k-points in the Brillouin zone, but does not apply      |
|     symmetry to the Hartree potential directly. The resultant charge        |
|     might have lower symmetry than the crystal but, at least, Hartree       |
|     and exchange are fully compatible.                                      |
|                                                                             |
 -----------------------------------------------------------------------------

 POTCAR:    PAW_PBE Ag 02Apr2005                  
   SHA256 =  6550cfa3543261e132c169e1b98a529204624d72be14e2da2e0242bcb74a174d Ag/POTCAR             
   COPYR  = (c) Copyright 02Apr2005 Georg Kresse                                                    
   COPYR  = This file is part of the software VASP. Any use, copying, and all other rights are regul
   COPYR  = If you do not have a valid VASP license, you may not use, copy or distribute this file. 
   VRHFIN =Ag : s1 d10                                                                              
   LEXCH  = PE                                                                                      
   EATOM  =  1037.2675 eV,   76.2370 Ry                                                             
                                                                                                    
   TITEL  = PAW_PBE Ag 02Apr2005                                                                    
   LULTRA =        F    use ultrasoft PP ?                                                          
   IUNSCR =        1    unscreen: 0-lin 1-nonlin 2-no                                               
   RPACOR =    2.000    partial core radius                                                         
   POMASS =  107.868; ZVAL   =   11.000    mass and valenz                                          
   RCORE  =    2.500    outmost cutoff radius                                                       
   RWIGS  =    2.840; RWIGS  =    1.503    wigner-seitz radius (au A)                               
   ENMAX  =  249.844; ENMIN  =  187.383 eV                                                          
   ICORE  =        3    local potential                                                             
   LCOR   =        T    correct aug charges                                                         
   LPAW   =        T    paw PP                                                                      
   EAUG   =  412.496                                                                                
   DEXC   =    0.000                                                                                
   RMAX   =    2.560    core radius for proj-oper                                                   
   RAUG   =    1.300    factor for augmentation sphere                                              
   RDEP   =    2.576    radius for radial grids                                                     
   RDEPT  =    2.072    core radius for aug-charge                                                  
                                                                                                    
   Atomic configuration                                                                             
   12 entries                                                                                       
     n  l   j            E        occ.                                                              
     1  0  0.50    -25324.9161   2.0000                                                             
     2  0  0.50     -3728.5341   2.0000                                                             
     2  1  1.50     -3344.0404   6.0000                                                             
     3  0  0.50      -683.5581   2.0000                                                             
     3  1  1.50      -557.3225   6.0000                                                             
     3  2  2.50      -358.3853  10.0000                                                             
     4  0  0.50       -95.0341   2.0000                                                             
     4  1  1.50       -58.5511   6.0000                                                             
     4  2  2.50        -7.4440  10.0000                                                             
     5  0  0.50        -4.4045   1.0000                                                             
     5  1  0.50        -1.3606   0.0000                                                             
     4  3  2.50        -1.3606   0.0000                                                             
   Description                                                                                      
     l       E           TYP  RCUT    TYP  RCUT                                                     
     2     -7.4439781     23  2.400                                                                 
     2     -8.8045607     23  2.400                                                                 
     0     -4.4044681     23  2.400                                                                 
     0      1.9520038     23  2.400                                                                 
     1     -1.3605826     23  2.500                                                                 
     1     27.2116520     23  2.500                                                                 
     3     -4.0817478     23  2.400                                                                 
  local pseudopotential read in
  partial core-charges read in
  partial kinetic energy density read in
  atomic valenz-charges read in
  non local Contribution for L=           2  read in
    real space projection operators read in
  non local Contribution for L=           2  read in
    real space projection operators read in
  non local Contribution for L=           0  read in
    real space projection operators read in
  non local Contribution for L=           0  read in
    real space projection operators read in
  non local Contribution for L=           1  read in
    real space projection operators read in
  non local Contribution for L=           1  read in
    real space projection operators read in
    PAW grid and wavefunctions read in

   number of l-projection  operators is LMAX  =           6
   number of lm-projection operators is LMMAX =          18

 -----------------------------------------------------------------------------
|                                                                             |
|               ----> ADVICE to this user running VASP <----                  |
|                                                                             |
|     You have a (more or less) 'small supercell' and for smaller cells       |
|     it is recommended to use the reciprocal-space projection scheme!        |
|     The real-space optimization is not efficient for small cells and it     |
|     is also less accurate ...                                               |
|     Therefore, set LREAL=.FALSE. in the INCAR file.                         |
|                                                                             |
 -----------------------------------------------------------------------------

 Optimization of the real space projectors (new method)

 maximal supplied QI-value         = 15.12
 optimisation between [QCUT,QGAM] = [ 11.64, 23.28] = [ 37.95,151.78] Ry 
 Optimized for a Real-space Cutoff    1.45 Angstroem

   l    n(q)    QCUT    max X(q) W(low)/X(q) W(high)/X(q)  e(spline) 
   2      9    11.641    53.897    0.22E-03    0.42E-04    0.28E-06
   2      9    11.641    52.416    0.23E-03    0.44E-04    0.29E-06
   0     10    11.641   122.045    0.51E-04    0.25E-04    0.16E-06
   0     10    11.641    73.629    0.49E-04    0.24E-04    0.16E-06
   1     10    11.641    15.255    0.99E-04    0.55E-04    0.11E-06
   1     10    11.641     9.562    0.81E-04    0.47E-04    0.95E-07
  PAW_PBE Ag 02Apr2005                  :
 energy of atom  1       EATOM=-1037.2675
 kinetic energy error for atom=    0.0047 (will be added to EATOM!!)


 POSCAR: Ag
  positions in direct lattice
  velocities in cartesian coordinates
 exchange correlation table for  LEXCH =        8
   RHO(1)=    0.500       N(1)  =     2000
   RHO(2)=  100.500       N(2)  =     4000



--------------------------------------------------------------------------------------------------------


 ion  position               nearest neighbor table
   1  0.520  0.406  0.504-   2 2.76   7 2.76   3 2.76   5 2.76
   2  0.415  0.477  0.450-   3 2.71   8 2.75   1 2.76   6 2.80   7 3.01
   3  0.440  0.485  0.583-   2 2.71   4 2.75   1 2.76   6 2.80   5 3.02
   4  0.504  0.597  0.631-   6 2.67   3 2.75   5 2.75
   5  0.585  0.517  0.553-   7 2.71   4 2.75   1 2.76   6 2.80   3 3.02
   6  0.479  0.591  0.500-   4 2.67   8 2.67   7 2.80   2 2.80   5 2.80   3 2.80
   7  0.559  0.509  0.421-   5 2.71   8 2.75   1 2.76   6 2.80   2 3.01
   8  0.454  0.581  0.369-   6 2.67   7 2.75   2 2.75

  LATTYP: Found a simple cubic cell.
 ALAT       =    20.0000000000
  
  Lattice vectors:
  
 A1 = (  20.0000000000,   0.0000000000,   0.0000000000)
 A2 = (   0.0000000000,  20.0000000000,   0.0000000000)
 A3 = (   0.0000000000,   0.0000000000,  20.0000000000)


Analysis of symmetry for initial positions (statically):
=====================================================================
 Subroutine PRICEL returns:
 Original cell was already a primitive cell.
 

 Routine SETGRP: Setting up the symmetry group for a 
 simple cubic supercell.


 Subroutine GETGRP returns: Found  1 space group operations
 (whereof  1 operations were pure point group operations)
 out of a pool of 48 trial point group operations.


The static configuration has the point symmetry C_1 .


Analysis of symmetry for dynamics (positions and initial velocities):
=====================================================================
 Subroutine PRICEL returns:
 Original cell was already a primitive cell.
 

 Routine SETGRP: Setting up the symmetry group for a 
 simple cubic supercell.


 Subroutine GETGRP returns: Found  1 space group operations
 (whereof  1 operations were pure point group operations)
 out of a pool of 48 trial point group operations.


The dynamic configuration has the point symmetry C_1 .


 Subroutine INISYM returns: Found  1 space group operations
 (whereof  1 operations are pure point group operations),
 and found     1 'primitive' translations


----------------------------------------------------------------------------------------

                                     Primitive cell                                     

  volume of cell :    8000.0000

  direct lattice vectors                    reciprocal lattice vectors
    20.000000000  0.000000000  0.000000000     0.050000000  0.000000000  0.000000000
     0.000000000 20.000000000  0.000000000     0.000000000  0.050000000  0.000000000
     0.000000000  0.000000000 20.000000000     0.000000000  0.000000000  0.050000000

  length of vectors
    20.000000000 20.000000000 20.000000000     0.050000000  0.050000000  0.050000000

  position of ions in fractional coordinates (direct lattice)
     0.520191024  0.405664455  0.503599079
     0.414964847  0.477000878  0.450038538
     0.440152165  0.485227661  0.582957095
     0.504068979  0.597184436  0.630985712
     0.584630742  0.517089536  0.553330462
     0.478610628  0.591126305  0.499928556
     0.559008194  0.508735182  0.420511763
     0.453947176  0.581119201  0.368922981

  ion indices of the primitive-cell ions
   primitive index   ion index
                 1           1
                 2           2
                 3           3
                 4           4
                 5           5
                 6           6
                 7           7
                 8           8

----------------------------------------------------------------------------------------



 KPOINTS: KPOINTS created by Atomic Simulation Env

Automatic generation of k-mesh.
 Grid dimensions read from file:
 generate k-points for:    1    1    1

 Generating k-lattice:

  Cartesian coordinates                     Fractional coordinates (reciprocal lattice)
     0.050000000  0.000000000  0.000000000     1.000000000  0.000000000  0.000000000
     0.000000000  0.050000000  0.000000000     0.000000000  1.000000000  0.000000000
     0.000000000  0.000000000  0.050000000     0.000000000  0.000000000  1.000000000

  Length of vectors
     0.050000000  0.050000000  0.050000000

  Shift w.r.t. Gamma in fractional coordinates (k-lattice)
     0.000000000  0.000000000  0.000000000

 
 Subroutine IBZKPT returns following result:
 ===========================================
 
 Found      1 irreducible k-points:
 
 Following reciprocal coordinates:
            Coordinates               Weight
  0.000000  0.000000  0.000000      1.000000
 
 Following cartesian coordinates:
            Coordinates               Weight
  0.000000  0.000000  0.000000      1.000000
 
 
 Subroutine IBZKPT_HF returns following result:
 ==============================================
 
 Found      1 k-points in 1st BZ
 the following      1 k-points will be used (e.g. in the exchange kernel)
 Following reciprocal coordinates:   # in IRBZ
  0.000000  0.000000  0.000000    1.00000000   1 t-inv F


--------------------------------------------------------------------------------------------------------




 Dimension of arrays:
   k-points           NKPTS =      1   k-points in BZ     NKDIM =      1   number of bands    NBANDS=     96
   number of dos      NEDOS =    301   number of ions     NIONS =      8
   non local maximal  LDIM  =      6   non local SUM 2l+1 LMDIM =     18
   total plane-waves  NPLWV = ******
   max r-space proj   IRMAX =   5390   max aug-charges    IRDMAX=  20940
   dimension x,y,z NGX =   150 NGY =  150 NGZ =  150
   dimension x,y,z NGXF=   300 NGYF=  300 NGZF=  300
   support grid    NGXF=   300 NGYF=  300 NGZF=  300
   ions per type =               8
   NGX,Y,Z   is equivalent  to a cutoff of  12.47, 12.47, 12.47 a.u.
   NGXF,Y,Z  is equivalent  to a cutoff of  24.94, 24.94, 24.94 a.u.

 SYSTEM =  MgO-rocksalt                            
 POSCAR =  Ag                                      

 Startparameter for this run:
   NWRITE =      2    write-flag & timer
   PREC   = accura    normal or accurate (medium, high low for compatibility)
   ISTART =      0    job   : 0-new  1-cont  2-samecut
   ICHARG =      2    charge: 1-file 2-atom 10-const
   ISPIN  =      1    spin polarized calculation?
   LNONCOLLINEAR =      F non collinear calculations
   LSORBIT =      F    spin-orbit coupling
   INIWAV =      1    electr: 0-lowe 1-rand  2-diag
   LASPH  =      T    aspherical Exc in radial PAW
 Electronic Relaxation 1
   ENCUT  =  520.0 eV  38.22 Ry    6.18 a.u.  37.19 37.19 37.19*2*pi/ulx,y,z
   ENINI  =  520.0     initial cutoff
   ENAUG  =  412.5 eV  augmentation charge cutoff
   NELM   =    200;   NELMIN=  8; NELMDL= -5     # of ELM steps 
   EDIFF  = 0.1E-05   stopping-criterion for ELM
   LREAL  =      T    real-space projection
   NLSPLINE    = F    spline interpolate recip. space projectors
   LCOMPAT=      F    compatible to vasp.4.4
   GGA_COMPAT  = T    GGA compatible to vasp.4.4-vasp.4.6
   LMAXPAW     = -100 max onsite density
   LMAXMIX     =    2 max onsite mixed and CHGCAR
   VOSKOWN=      0    Vosko Wilk Nusair interpolation
   ROPT   =   -0.00025
 Ionic relaxation
   EDIFFG = 0.1E-04   stopping-criterion for IOM
   NSW    =      0    number of steps for IOM
   NBLOCK =      1;   KBLOCK =      1    inner block; outer block 
   IBRION =     -1    ionic relax: 0-MD 1-quasi-New 2-CG
   NFREE  =      0    steps in history (QN), initial steepest desc. (CG)
   ISIF   =      0    stress and relaxation
   IWAVPR =     10    prediction:  0-non 1-charg 2-wave 3-comb
   ISYM   =      2    0-nonsym 1-usesym 2-fastsym
   LCORR  =      T    Harris-Foulkes like correction to forces

   POTIM  = 0.5000    time-step for ionic-motion
   TEIN   =    0.0    initial temperature
   TEBEG  =    0.0;   TEEND  =   0.0 temperature during run
   SMASS  =  -3.00    Nose mass-parameter (am)
   estimated Nose-frequenzy (Omega)   =  0.10E-29 period in steps = 0.13E+47 mass=  -0.914E-26a.u.
   SCALEE = 1.0000    scale energy and forces
   NPACO  =    256;   APACO  = 10.0  distance and # of slots for P.C.
   PSTRESS=    0.0 pullay stress

  Mass of Ions in am
   POMASS = 107.87
  Ionic Valenz
   ZVAL   =  11.00
  Atomic Wigner-Seitz radii
   RWIGS  =  -1.00
  virtual crystal weights 
   VCA    =   1.00
   NELECT =      88.0000    total number of electrons
   NUPDOWN=      -1.0000    fix difference up-down

 DOS related values:
   EMIN   =  10.00;   EMAX   =-10.00  energy-range for DOS
   EFERMI =   0.00
   ISMEAR =     0;   SIGMA  =   0.05  broadening in eV -4-tet -1-fermi 0-gaus

 Electronic relaxation 2 (details)
   IALGO  =     58    algorithm
   LDIAG  =      T    sub-space diagonalisation (order eigenvalues)
   LSUBROT=      F    optimize rotation matrix (better conditioning)
   TURBO    =      0    0=normal 1=particle mesh
   IRESTART =      0    0=no restart 2=restart with 2 vectors
   NREBOOT  =      0    no. of reboots
   NMIN     =      0    reboot dimension
   EREF     =   0.00    reference energy to select bands
   IMIX   =      4    mixing-type and parameters
     AMIX     =   0.40;   BMIX     =  1.00
     AMIX_MAG =   1.60;   BMIX_MAG =  1.00
     AMIN     =   0.10
     WC   =   100.;   INIMIX=   1;  MIXPRE=   1;  MAXMIX= -45

 Intra band minimization:
   WEIMIN = 0.0000     energy-eigenvalue tresh-hold
   EBREAK =  0.26E-08  absolut break condition
   DEPER  =   0.30     relativ break condition  

   TIME   =   0.40     timestep for ELM

  volume/ion in A,a.u.               =    1000.00      6748.33
  Fermi-wavevector in a.u.,A,eV,Ry     =   0.364087  0.688026  1.803584  0.132560
  Thomas-Fermi vector in A             =   1.286639

 Write flags
   LWAVE        =      F    write WAVECAR
   LDOWNSAMPLE  =      F    k-point downsampling of WAVECAR
   LCHARG       =      F    write CHGCAR
   LVTOT        =      F    write LOCPOT, total local potential
   LVHAR        =      F    write LOCPOT, Hartree potential only
   LELF         =      F    write electronic localiz. function (ELF)
   LORBIT       =      0    0 simple, 1 ext, 2 COOP (PROOUT), +10 PAW based schemes


 Dipole corrections
   LMONO  =      F    monopole corrections only (constant potential shift)
   LDIPOL =      F    correct potential (dipole corrections)
   IDIPOL =      0    1-x, 2-y, 3-z, 4-all directions 
   EPSILON=  1.0000000 bulk dielectric constant

 Exchange correlation treatment:
   GGA     =    PE    GGA type
   LEXCH   =     8    internal setting for exchange type
   LIBXC   =     F    Libxc                    
   VOSKOWN =     0    Vosko Wilk Nusair interpolation
   EXXOEP  =     0    0=HF, 1=EXX-LHF (local Hartree Fock) 2=EXX OEP
   LHFCALC =     T    Hartree Fock is set to
   LSYMGRAD=     F    symmetrize gradient (conserves proper symmetry)
   PRECFOCK=normal    Normal, Fast or Accurate (Low or Medium for compatibility)
   LRHFCALC=     F    long range Hartree Fock
   LRSCOR  =     F    long range correlation only (use DFT for short range part)
   LTHOMAS =     F    Thomas Fermi screening in HF
   LMODELHF=     F    short range full HF, long range fraction AEXX
   LFOCKACE=     T    use Adeptively-Compressed-Exchange operator
   ENCUT4O =  -1.0   cutoff for four orbital integrals eV
   LMAXFOCK=     4    L truncation for augmentation on plane wave grid
   LMAXFOCKAE=  -1    L truncation for all-electron charge restoration on plane wave grid
   NMAXFOCKAE=   1    number of basis functions for all-electron charge restoration
   LFOCKAEDFT=     F  apply the AE augmentation even for DFT
   NKREDX  =     1    reduce k-point grid by
   NKREDY  =     1    reduce k-point grid by
   NKREDZ  =     1    reduce k-point grid by
   SHIFTRED=     F    shift reduced grid of Gamma
   HFKIDENT=     F    idential grid for each k-point
   ODDONLY =     F    use only odd q-grid points
   EVENONLY=     F    use only even q-grid points
   HFALPHA =   -1.0000 decay constant for conv. correction
   MCALPHA =    0.0000 extent of test-charge in conv. correction in multipole expansion
   AEXX    =    0.2500 exact exchange contribution
   HFSCREEN=    0.2000 screening length (either q_TF or 0.3 A-1)
   HFSCREENC=   0.2000 screening length for correlation (either q_TF or 0.3 A-1)
   HFRCUT  =    0.0000 spherical cutoff for potential kernel
   ALDAX   =    0.7500 LDA exchange part
   AGGAX   =    0.7500 GGA exchange part
   ALDAC   =    1.0000 LDA correlation
   AGGAC   =    1.0000 GGA correlation
   ENCUTFOCK=  -1.0 apply spherical cutoff to Coloumb kernel
   NBANDSGWLOW=     1    first orbital included in HF term
   NBLOCK_FOCK=    64    blocking factor in FOCK_ACC

 Linear response parameters
   LEPSILON=     F    determine dielectric tensor
   LRPA    =     F    only Hartree local field effects (RPA)
   LNABLA  =     F    use nabla operator in PAW spheres
   LVEL    =     F    velocity operator in full k-point grid
   CSHIFT  =0.1000    complex shift for real part using Kramers Kronig
   OMEGAMAX=  -1.0    maximum frequency
   DEG_THRESHOLD= 0.2000000E-02 threshold for treating states as degnerate
   RTIME   =   -0.100 relaxation time in fs
  (WPLASMAI=    0.000 imaginary part of plasma frequency in eV, 0.658/RTIME)
   DFIELD  = 0.0000000 0.0000000 0.0000000 field for delta impulse in time

  Optional k-point grid parameters
   LKPOINTS_OPT  =     F    use optional k-point grid
   KPOINTS_OPT_MODE=     1    mode for optional k-point grid

 Orbital magnetization related:
   ORBITALMAG=     F  switch on orbital magnetization
   LCHIMAG   =     F  perturbation theory with respect to B field
   DQ        =  0.001000  dq finite difference perturbation B field
   LLRAUG    =     F  two centre corrections for induced B field



--------------------------------------------------------------------------------------------------------


 Static calculation
 charge density and potential will be updated during run
 non-spin polarized calculation
 Conjugate gradient for all bands (Freysoldt, et al. PRB 79, 241103 (2009))
 preconditioned conjugated gradient                                        
 perform sub-space diagonalisation
    before iterative eigenvector-optimisation
 modified Broyden-mixing scheme, WC =      100.0
 initial mixing is a Kerker type mixing with AMIX =  0.4000 and BMIX =      1.0000
 Hartree-type preconditioning will be used
 using additional bands           52
 real space projection scheme for non local part
 use partial core corrections
 no Harris-corrections to forces 
 use gradient corrections 
 use of overlap-Matrix (Vanderbilt PP)
 Gauss-broadening in eV      SIGMA  =   0.05


--------------------------------------------------------------------------------------------------------


  energy-cutoff  :      520.00
  volume of cell :     8000.00
      direct lattice vectors                 reciprocal lattice vectors
    20.000000000  0.000000000  0.000000000     0.050000000  0.000000000  0.000000000
     0.000000000 20.000000000  0.000000000     0.000000000  0.050000000  0.000000000
     0.000000000  0.000000000 20.000000000     0.000000000  0.000000000  0.050000000

  length of vectors
    20.000000000 20.000000000 20.000000000     0.050000000  0.050000000  0.050000000



 k-points in units of 2pi/SCALE and weight: KPOINTS created by Atomic Simulation Env
   0.00000000  0.00000000  0.00000000       1.000

 k-points in reciprocal lattice and weights: KPOINTS created by Atomic Simulation Env
   0.00000000  0.00000000  0.00000000       1.000

 position of ions in fractional coordinates (direct lattice) 
   0.52019102  0.40566445  0.50359908
   0.41496485  0.47700088  0.45003854
   0.44015216  0.48522766  0.58295709
   0.50406898  0.59718444  0.63098571
   0.58463074  0.51708954  0.55333046
   0.47861063  0.59112631  0.49992856
   0.55900819  0.50873518  0.42051176
   0.45394718  0.58111920  0.36892298

 position of ions in cartesian coordinates  (Angst):
  10.40382048  8.11328910 10.07198158
   8.29929694  9.54001757  9.00077076
   8.80304330  9.70455322 11.65914189
  10.08137958 11.94368871 12.61971425
  11.69261483 10.34179072 11.06660923
   9.57221256 11.82252611  9.99857113
  11.18016388 10.17470363  8.41023526
   9.07894352 11.62238402  7.37845962



--------------------------------------------------------------------------------------------------------


 k-point   1 :   0.0000 0.0000 0.0000  plane waves:  215503

 maximum and minimum number of plane-waves per node :     53900    53857

 maximum number of plane-waves:    215503
 maximum index in each direction: 
   IXMAX=   37   IYMAX=   37   IZMAX=   37
   IXMIN=  -37   IYMIN=  -37   IZMIN=  -37


 real space projection operators:
  total allocation   :       5829.61 KBytes
  max/ min on nodes  :       1465.03       1443.94


 parallel 3D FFT for wavefunctions:
    minimum data exchange during FFTs selected (reduces bandwidth)
 parallel 3D FFT for charge:
    minimum data exchange during FFTs selected (reduces bandwidth)


 FFT grid for exact exchange (Hartree Fock) 
  NGX =112; NGY =112; NGZ =112


 Radii for the augmentation spheres in the non-local exchange
 for species   1 augmentation radius   1.406 (default was   1.125)
       energy cutoff for augmentation   2080.0

 real space projection operators:
  total allocation   :       3198.24 KBytes
  max/ min on nodes  :        814.06        785.74

 Maximum index for augmentation-charges in exchange          530
  SETUP_FOCK is finished

 total amount of memory used by VASP MPI-rank0   124128. kBytes
=======================================================================

   base      :      30000. kBytes
   nonlr-proj:       3820. kBytes
   fftplans  :      48991. kBytes
   grid      :      38630. kBytes
   one-center:         31. kBytes
   HF        :         64. kBytes
   wavefun   :       2592. kBytes

     INWAV:  cpu time      0.0000: real time      0.0000
 Broyden mixing: mesh for mixing (old mesh)
   NGX = 75   NGY = 75   NGZ = 75
  (NGX  =300   NGY  =300   NGZ  =300)
  gives a total of 421875 points

 initial charge density was supplied:
 charge density of overlapping atoms calculated
 number of electron      88.0000000 magnetization 
 keeping initial charge density in first step


--------------------------------------------------------------------------------------------------------


 Maximum index for non-local projection operator         1316
 Maximum index for augmentation-charges            0 (set IRDMAX)


--------------------------------------------------------------------------------------------------------


 First call to EWALD:  gamma=   0.089
 Maximum number of real-space cells 3x 3x 3
 Maximum number of reciprocal cells 3x 3x 3

    FEWALD:  cpu time      0.0013: real time      0.0013


--------------------------------------- Iteration      1(   1)  ---------------------------------------


    POTLOK:  cpu time      0.1201: real time      0.1204
    SETDIJ:  cpu time      0.1816: real time      0.1817
    TRIAL :  cpu time      0.5462: real time      0.5464
    CORREC:  cpu time      0.0010: real time      0.0010
    --------------------------------------------
      LOOP:  cpu time      0.8500: real time      0.8509

 eigenvalue-minimisations  :   192
 total energy-change (2. order) :-0.6726253E+04  (-0.1973912E+04)
 number of electron      88.0000000 magnetization 
 augmentation part       88.0000000 magnetization 

 Free energy of the ion-electron system (eV)
  ---------------------------------------------------
  alpha Z        PSCENC =         6.80462455
  Ewald energy   TEWEN  =      7426.41580137
  -Hartree energ DENC   =    -15347.68687908
  -exchange      EXHF   =         0.00000000
  -V(xc)+E(xc)   XCENC  =       -90.66263293
  PAW double counting   =      8027.69719461   -15032.49343072
  entropy T*S    EENTRO =        -0.02750858
  eigenvalues    EBANDS =        -6.62777591
  atomic energy  EATOM  =      8290.32802364
  ---------------------------------------------------
  free energy    TOTEN  =     -6726.25258304 eV

  energy without entropy =    -6726.22507446  energy(sigma->0) =    -6726.23882875
  exchange ACFDT corr.  =         0.00000000  see jH, gK, PRB 81, 115126


--------------------------------------------------------------------------------------------------------




--------------------------------------- Iteration      1(   2)  ---------------------------------------


    TRIAL :  cpu time      1.9236: real time      1.9242
    CORREC:  cpu time      0.0003: real time      0.0003
    --------------------------------------------
      LOOP:  cpu time      1.9281: real time      1.9329

 eigenvalue-minimisations  :   384
 total energy-change (2. order) :-0.9071188E+03  (-0.9067229E+03)
 number of electron      88.0000000 magnetization 
 augmentation part       88.0000000 magnetization 

 Free energy of the ion-electron system (eV)
  ---------------------------------------------------
  alpha Z        PSCENC =         6.80462455
  Ewald energy   TEWEN  =      7426.41580137
  -Hartree energ DENC   =    -15347.68687908
  -exchange      EXHF   =         0.00000000
  -V(xc)+E(xc)   XCENC  =       -90.66263293
  PAW double counting   =      8027.69719461   -15032.49343072
  entropy T*S    EENTRO =        -0.00000000
  eigenvalues    EBANDS =      -913.77412625
  atomic energy  EATOM  =      8290.32802364
  ---------------------------------------------------
  free energy    TOTEN  =     -7633.37142481 eV

  energy without entropy =    -7633.37142481  energy(sigma->0) =    -7633.37142481
  exchange ACFDT corr.  =         0.00000000  see jH, gK, PRB 81, 115126


--------------------------------------------------------------------------------------------------------




--------------------------------------- Iteration      1(   3)  ---------------------------------------


    TRIAL :  cpu time      0.5466: real time      0.5468
    CORREC:  cpu time      0.0004: real time      0.0004
    --------------------------------------------
      LOOP:  cpu time      0.5539: real time      0.5545

 eigenvalue-minimisations  :   192
 total energy-change (2. order) :-0.3007193E+02  (-0.3007182E+02)
 number of electron      88.0000000 magnetization 
 augmentation part       88.0000000 magnetization 

 Free energy of the ion-electron system (eV)
  ---------------------------------------------------
  alpha Z        PSCENC =         6.80462455
  Ewald energy   TEWEN  =      7426.41580137
  -Hartree energ DENC   =    -15347.68687908
  -exchange      EXHF   =         0.00000000
  -V(xc)+E(xc)   XCENC  =       -90.66263293
  PAW double counting   =      8027.69719461   -15032.49343072
  entropy T*S    EENTRO =        -0.00000000
  eigenvalues    EBANDS =      -943.84605294
  atomic energy  EATOM  =      8290.32802364
  ---------------------------------------------------
  free energy    TOTEN  =     -7663.44335150 eV

  energy without entropy =    -7663.44335150  energy(sigma->0) =    -7663.44335150
  exchange ACFDT corr.  =         0.00000000  see jH, gK, PRB 81, 115126


--------------------------------------------------------------------------------------------------------




--------------------------------------- Iteration      1(   4)  ---------------------------------------


    TRIAL :  cpu time      1.8714: real time      1.8718
    CORREC:  cpu time      0.0003: real time      0.0003
    --------------------------------------------
      LOOP:  cpu time      1.8784: real time      1.8792

 eigenvalue-minimisations  :   384
 total energy-change (2. order) :-0.1615774E+00  (-0.1615756E+00)
 number of electron      88.0000000 magnetization 
 augmentation part       88.0000000 magnetization 

 Free energy of the ion-electron system (eV)
  ---------------------------------------------------
  alpha Z        PSCENC =         6.80462455
  Ewald energy   TEWEN  =      7426.41580137
  -Hartree energ DENC   =    -15347.68687908
  -exchange      EXHF   =         0.00000000
  -V(xc)+E(xc)   XCENC  =       -90.66263293
  PAW double counting   =      8027.69719461   -15032.49343072
  entropy T*S    EENTRO =        -0.00000000
  eigenvalues    EBANDS =      -944.00763033
  atomic energy  EATOM  =      8290.32802364
  ---------------------------------------------------
  free energy    TOTEN  =     -7663.60492889 eV

  energy without entropy =    -7663.60492889  energy(sigma->0) =    -7663.60492889
  exchange ACFDT corr.  =         0.00000000  see jH, gK, PRB 81, 115126


--------------------------------------------------------------------------------------------------------




--------------------------------------- Iteration      1(   5)  ---------------------------------------


    POTLOK:  cpu time      0.2077: real time      0.2080
    SETDIJ:  cpu time      0.5324: real time      0.5325
    TRIAL :  cpu time      8.2225: real time      8.2284
    CORREC:  cpu time      0.0003: real time      0.0003
    CHARGE:  cpu time      0.0968: real time      0.0970
    --------------------------------------------
      LOOP:  cpu time      9.0665: real time      9.0735

 eigenvalue-minimisations  :   192
 total energy-change (2. order) : 0.7648231E+04  (-0.6832510E+01)
 number of electron      87.9999997 magnetization 
 augmentation part       43.0425446 magnetization 

 Free energy of the ion-electron system (eV)
  ---------------------------------------------------
  alpha Z        PSCENC =         6.80462455
  Ewald energy   TEWEN  =      7426.41580137
  -Hartree energ DENC   =    -15347.68687908
  -exchange      EXHF   =       191.88328380
  -V(xc)+E(xc)   XCENC  =       -80.46387682
  PAW double counting   =      8016.15501531    -7692.68772808
  entropy T*S    EENTRO =        -0.00000000
  eigenvalues    EBANDS =      -826.12227889
  atomic energy  EATOM  =      8290.32802364
  ---------------------------------------------------
  free energy    TOTEN  =       -15.37401421 eV

  energy without entropy =      -15.37401421  energy(sigma->0) =      -15.37401421
  exchange ACFDT corr.  =        -0.00000000  see jH, gK, PRB 81, 115126


--------------------------------------------------------------------------------------------------------




--------------------------------------- Iteration      1(   6)  ---------------------------------------


    POTLOK:  cpu time      0.2215: real time      0.2216
    SETDIJ:  cpu time      0.5309: real time      0.5311
    TRIAL :  cpu time      9.0015: real time      9.0078
    CORREC:  cpu time      8.6064: real time      8.6128
    CHARGE:  cpu time      0.0966: real time      0.0966
    --------------------------------------------
      LOOP:  cpu time     18.4654: real time     18.4789

 eigenvalue-minimisations  :     0
 total energy-change (2. order) : 0.3132378E+01  (-0.2353890E+01)
 number of electron      87.9999997 magnetization 
 augmentation part       42.6400333 magnetization 

 Free energy of the ion-electron system (eV)
  ---------------------------------------------------
  alpha Z        PSCENC =         6.80462455
  Ewald energy   TEWEN  =      7426.41580137
  -Hartree energ DENC   =    -15609.68312375
  -exchange      EXHF   =       183.57009902
  -V(xc)+E(xc)   XCENC  =       -78.95518245
  PAW double counting   =      9612.59959857    -9300.06897602
  entropy T*S    EENTRO =        -0.00000000
  eigenvalues    EBANDS =      -543.25250148
  atomic energy  EATOM  =      8290.32802364
  ---------------------------------------------------
  free energy    TOTEN  =       -12.24163656 eV

  energy without entropy =      -12.24163656  energy(sigma->0) =      -12.24163656
  exchange ACFDT corr.  =        -0.00000000  see jH, gK, PRB 81, 115126


--------------------------------------------------------------------------------------------------------




--------------------------------------- Iteration      1(   7)  ---------------------------------------


    POTLOK:  cpu time      0.2294: real time      0.2294
    SETDIJ:  cpu time      0.5258: real time      0.5261
    TRIAL :  cpu time      7.9066: real time      7.9130
    CORREC:  cpu time      8.6220: real time      8.6287
    CHARGE:  cpu time      0.0949: real time      0.0949
    --------------------------------------------
      LOOP:  cpu time     17.3860: real time     17.3998

 eigenvalue-minimisations  :     0
 total energy-change (2. order) :-0.2364581E+01  (-0.2928797E+00)
 number of electron      87.9999997 magnetization 
 augmentation part       42.8487661 magnetization 

 Free energy of the ion-electron system (eV)
  ---------------------------------------------------
  alpha Z        PSCENC =         6.80462455
  Ewald energy   TEWEN  =      7426.41580137
  -Hartree energ DENC   =    -15419.69813896
  -exchange      EXHF   =       181.61548661
  -V(xc)+E(xc)   XCENC  =       -80.79931663
  PAW double counting   =      9472.89024687    -9159.07001829
  entropy T*S    EENTRO =        -0.00000000
  eigenvalues    EBANDS =      -733.09292625
  atomic energy  EATOM  =      8290.32802364
  ---------------------------------------------------
  free energy    TOTEN  =       -14.60621709 eV

  energy without entropy =      -14.60621709  energy(sigma->0) =      -14.60621709
  exchange ACFDT corr.  =        -0.00000000  see jH, gK, PRB 81, 115126


--------------------------------------------------------------------------------------------------------




--------------------------------------- Iteration      1(   8)  ---------------------------------------


    POTLOK:  cpu time      0.2204: real time      0.2204
    SETDIJ:  cpu time      0.5326: real time      0.5326
    TRIAL :  cpu time      7.8775: real time      7.8832
    CORREC:  cpu time      8.6459: real time      8.6519
    CHARGE:  cpu time      0.0950: real time      0.0950
    --------------------------------------------
      LOOP:  cpu time     17.3805: real time     17.3928

 eigenvalue-minimisations  :     0
 total energy-change (2. order) :-0.2933739E+00  (-0.1163698E+00)
 number of electron      87.9999997 magnetization 
 augmentation part       42.7435716 magnetization 

 Free energy of the ion-electron system (eV)
  ---------------------------------------------------
  alpha Z        PSCENC =         6.80462455
  Ewald energy   TEWEN  =      7426.41580137
  -Hartree energ DENC   =    -15425.74593088
  -exchange      EXHF   =       182.19842116
  -V(xc)+E(xc)   XCENC  =       -80.34932500
  PAW double counting   =      9449.82003064    -9135.94276007
  entropy T*S    EENTRO =        -0.00000000
  eigenvalues    EBANDS =      -728.42847640
  atomic energy  EATOM  =      8290.32802364
  ---------------------------------------------------
  free energy    TOTEN  =       -14.89959098 eV

  energy without entropy =      -14.89959098  energy(sigma->0) =      -14.89959098
  exchange ACFDT corr.  =        -0.00000000  see jH, gK, PRB 81, 115126


--------------------------------------------------------------------------------------------------------




--------------------------------------- Iteration      1(   9)  ---------------------------------------


    POTLOK:  cpu time      0.2229: real time      0.2229
    SETDIJ:  cpu time      0.5303: real time      0.5305
    TRIAL :  cpu time      7.8771: real time      7.8830
    CORREC:  cpu time      8.5884: real time      8.5955
    CHARGE:  cpu time      0.0944: real time      0.0944
    --------------------------------------------
      LOOP:  cpu time     17.3200: real time     17.3338

 eigenvalue-minimisations  :     0
 total energy-change (2. order) :-0.1152978E+00  (-0.2893523E-01)
 number of electron      87.9999997 magnetization 
 augmentation part       42.7554507 magnetization 

 Free energy of the ion-electron system (eV)
  ---------------------------------------------------
  alpha Z        PSCENC =         6.80462455
  Ewald energy   TEWEN  =      7426.41580137
  -Hartree energ DENC   =    -15404.05635863
  -exchange      EXHF   =       181.81316452
  -V(xc)+E(xc)   XCENC  =       -80.67855811
  PAW double counting   =      9423.36012238    -9109.23313871
  entropy T*S    EENTRO =        -0.00000000
  eigenvalues    EBANDS =      -749.76856982
  atomic energy  EATOM  =      8290.32802364
  ---------------------------------------------------
  free energy    TOTEN  =       -15.01488879 eV

  energy without entropy =      -15.01488879  energy(sigma->0) =      -15.01488879
  exchange ACFDT corr.  =        -0.00000000  see jH, gK, PRB 81, 115126


--------------------------------------------------------------------------------------------------------




--------------------------------------- Iteration      1(  10)  ---------------------------------------


    POTLOK:  cpu time      0.2212: real time      0.2215
    SETDIJ:  cpu time      0.5310: real time      0.5310
    TRIAL :  cpu time      8.8185: real time      8.8239
    CORREC:  cpu time      8.6888: real time      8.6956
    CHARGE:  cpu time      0.0937: real time      0.0937
    --------------------------------------------
      LOOP:  cpu time     18.3613: real time     18.3744

 eigenvalue-minimisations  :     0
 total energy-change (2. order) :-0.2888901E-01  (-0.6576790E-02)
 number of electron      87.9999997 magnetization 
 augmentation part       42.7786453 magnetization 

 Free energy of the ion-electron system (eV)
  ---------------------------------------------------
  alpha Z        PSCENC =         6.80462455
  Ewald energy   TEWEN  =      7426.41580137
  -Hartree energ DENC   =    -15400.43157718
  -exchange      EXHF   =       181.79276268
  -V(xc)+E(xc)   XCENC  =       -80.71783684
  PAW double counting   =      9417.24794054    -9103.02314681
  entropy T*S    EENTRO =        -0.00000000
  eigenvalues    EBANDS =      -753.46036976
  atomic energy  EATOM  =      8290.32802364
  ---------------------------------------------------
  free energy    TOTEN  =       -15.04377780 eV

  energy without entropy =      -15.04377780  energy(sigma->0) =      -15.04377780
  exchange ACFDT corr.  =        -0.00000000  see jH, gK, PRB 81, 115126


--------------------------------------------------------------------------------------------------------




--------------------------------------- Iteration      1(  11)  ---------------------------------------


    POTLOK:  cpu time      0.2145: real time      0.2145
    SETDIJ:  cpu time      0.5327: real time      0.5327
    TRIAL :  cpu time      7.9459: real time      7.9512
    CORREC:  cpu time      8.5803: real time      8.5863
    CHARGE:  cpu time      0.0945: real time      0.0945
    --------------------------------------------
      LOOP:  cpu time     17.3751: real time     17.3870

 eigenvalue-minimisations  :     0
 total energy-change (2. order) :-0.6573151E-02  (-0.2117572E-02)
 number of electron      87.9999997 magnetization 
 augmentation part       42.7691698 magnetization 

 Free energy of the ion-electron system (eV)
  ---------------------------------------------------
  alpha Z        PSCENC =         6.80462455
  Ewald energy   TEWEN  =      7426.41580137
  -Hartree energ DENC   =    -15400.84841452
  -exchange      EXHF   =       181.84935643
  -V(xc)+E(xc)   XCENC  =       -80.67857844
  PAW double counting   =      9416.23415473    -9101.99447548
  entropy T*S    EENTRO =        -0.00000000
  eigenvalues    EBANDS =      -753.16084323
  atomic energy  EATOM  =      8290.32802364
  ---------------------------------------------------
  free energy    TOTEN  =       -15.05035095 eV

  energy without entropy =      -15.05035095  energy(sigma->0) =      -15.05035095
  exchange ACFDT corr.  =        -0.00000000  see jH, gK, PRB 81, 115126


--------------------------------------------------------------------------------------------------------




--------------------------------------- Iteration      1(  12)  ---------------------------------------


    POTLOK:  cpu time      0.2048: real time      0.2048
    SETDIJ:  cpu time      0.5343: real time      0.5346
    TRIAL :  cpu time      7.9121: real time      7.9180
    CORREC:  cpu time      8.6061: real time      8.6123
    CHARGE:  cpu time      0.0960: real time      0.0960
    --------------------------------------------
      LOOP:  cpu time     17.3617: real time     17.3744

 eigenvalue-minimisations  :     0
 total energy-change (2. order) :-0.2122525E-02  (-0.4612636E-03)
 number of electron      87.9999997 magnetization 
 augmentation part       42.7712875 magnetization 

 Free energy of the ion-electron system (eV)
  ---------------------------------------------------
  alpha Z        PSCENC =         6.80462455
  Ewald energy   TEWEN  =      7426.41580137
  -Hartree energ DENC   =    -15399.50781791
  -exchange      EXHF   =       181.81429026
  -V(xc)+E(xc)   XCENC  =       -80.70972722
  PAW double counting   =      9414.15077409    -9099.89591878
  entropy T*S    EENTRO =        -0.00000000
  eigenvalues    EBANDS =      -754.45252348
  atomic energy  EATOM  =      8290.32802364
  ---------------------------------------------------
  free energy    TOTEN  =       -15.05247348 eV

  energy without entropy =      -15.05247348  energy(sigma->0) =      -15.05247348
  exchange ACFDT corr.  =        -0.00000000  see jH, gK, PRB 81, 115126


--------------------------------------------------------------------------------------------------------




--------------------------------------- Iteration      1(  13)  ---------------------------------------


    POTLOK:  cpu time      0.2027: real time      0.2027
    SETDIJ:  cpu time      0.5334: real time      0.5334
    TRIAL :  cpu time      7.8890: real time      7.8953
    CORREC:  cpu time      8.6311: real time      8.6367
    CHARGE:  cpu time      0.0959: real time      0.0960
    --------------------------------------------
      LOOP:  cpu time     17.3587: real time     17.3713

 eigenvalue-minimisations  :     0
 total energy-change (2. order) :-0.4596359E-03  (-0.1069224E-03)
 number of electron      87.9999997 magnetization 
 augmentation part       42.7695783 magnetization 

 Free energy of the ion-electron system (eV)
  ---------------------------------------------------
  alpha Z        PSCENC =         6.80462455
  Ewald energy   TEWEN  =      7426.41580137
  -Hartree energ DENC   =    -15400.10598780
  -exchange      EXHF   =       181.82293286
  -V(xc)+E(xc)   XCENC  =       -80.70193084
  PAW double counting   =      9414.81158208    -9100.56050702
  entropy T*S    EENTRO =        -0.00000000
  eigenvalues    EBANDS =      -753.86747196
  atomic energy  EATOM  =      8290.32802364
  ---------------------------------------------------
  free energy    TOTEN  =       -15.05293311 eV

  energy without entropy =      -15.05293311  energy(sigma->0) =      -15.05293311
  exchange ACFDT corr.  =        -0.00000000  see jH, gK, PRB 81, 115126


--------------------------------------------------------------------------------------------------------




--------------------------------------- Iteration      1(  14)  ---------------------------------------


    POTLOK:  cpu time      0.2049: real time      0.2049
    SETDIJ:  cpu time      0.5339: real time      0.5344
    TRIAL :  cpu time      7.8917: real time      7.8969
    CORREC:  cpu time      8.5261: real time      8.5324
    CHARGE:  cpu time      0.0940: real time      0.0940
    --------------------------------------------
      LOOP:  cpu time     17.2590: real time     17.2717

 eigenvalue-minimisations  :     0
 total energy-change (2. order) :-0.1075720E-03  (-0.3085759E-04)
 number of electron      87.9999997 magnetization 
 augmentation part       42.7708821 magnetization 

 Free energy of the ion-electron system (eV)
  ---------------------------------------------------
  alpha Z        PSCENC =         6.80462455
  Ewald energy   TEWEN  =      7426.41580137
  -Hartree energ DENC   =    -15399.63636527
  -exchange      EXHF   =       181.81642370
  -V(xc)+E(xc)   XCENC  =       -80.70745232
  PAW double counting   =      9414.70346097    -9100.45161199
  entropy T*S    EENTRO =        -0.00000000
  eigenvalues    EBANDS =      -754.32594534
  atomic energy  EATOM  =      8290.32802364
  ---------------------------------------------------
  free energy    TOTEN  =       -15.05304069 eV

  energy without entropy =      -15.05304069  energy(sigma->0) =      -15.05304069
  exchange ACFDT corr.  =        -0.00000000  see jH, gK, PRB 81, 115126


--------------------------------------------------------------------------------------------------------




--------------------------------------- Iteration      1(  15)  ---------------------------------------


    POTLOK:  cpu time      0.2028: real time      0.2029
    SETDIJ:  cpu time      0.5350: real time      0.5353
    TRIAL :  cpu time      7.9082: real time      7.9148
    CORREC:  cpu time      8.8305: real time      8.8371
    CHARGE:  cpu time      0.0953: real time      0.0953
    --------------------------------------------
      LOOP:  cpu time     17.5788: real time     17.5929

 eigenvalue-minimisations  :     0
 total energy-change (2. order) :-0.3021589E-04  (-0.8147891E-05)
 number of electron      87.9999997 magnetization 
 augmentation part       42.7702135 magnetization 

 Free energy of the ion-electron system (eV)
  ---------------------------------------------------
  alpha Z        PSCENC =         6.80462455
  Ewald energy   TEWEN  =      7426.41580137
  -Hartree energ DENC   =    -15400.04840656
  -exchange      EXHF   =       181.82161751
  -V(xc)+E(xc)   XCENC  =       -80.70265769
  PAW double counting   =      9415.09260615    -9100.84377682
  entropy T*S    EENTRO =        -0.00000000
  eigenvalues    EBANDS =      -753.92090306
  atomic energy  EATOM  =      8290.32802364
  ---------------------------------------------------
  free energy    TOTEN  =       -15.05307090 eV

  energy without entropy =      -15.05307090  energy(sigma->0) =      -15.05307090
  exchange ACFDT corr.  =        -0.00000000  see jH, gK, PRB 81, 115126


--------------------------------------------------------------------------------------------------------




--------------------------------------- Iteration      1(  16)  ---------------------------------------


    POTLOK:  cpu time      0.2061: real time      0.2061
    SETDIJ:  cpu time      0.5323: real time      0.5323
    TRIAL :  cpu time      7.9886: real time      7.9957
    CORREC:  cpu time      8.7329: real time      8.8011
    CHARGE:  cpu time      0.0863: real time      0.1059
    --------------------------------------------
      LOOP:  cpu time     17.5546: real time     17.6513

 eigenvalue-minimisations  :     0
 total energy-change (2. order) :-0.8148412E-05  (-0.2480411E-05)
 number of electron      87.9999997 magnetization 
 augmentation part       42.7701684 magnetization 

 Free energy of the ion-electron system (eV)
  ---------------------------------------------------
  alpha Z        PSCENC =         6.80462455
  Ewald energy   TEWEN  =      7426.41580137
  -Hartree energ DENC   =    -15399.90404705
  -exchange      EXHF   =       181.81930801
  -V(xc)+E(xc)   XCENC  =       -80.70461513
  PAW double counting   =      9415.03759256    -9100.78815856
  entropy T*S    EENTRO =        -0.00000000
  eigenvalues    EBANDS =      -754.06160844
  atomic energy  EATOM  =      8290.32802364
  ---------------------------------------------------
  free energy    TOTEN  =       -15.05307905 eV

  energy without entropy =      -15.05307905  energy(sigma->0) =      -15.05307905
  exchange ACFDT corr.  =        -0.00000000  see jH, gK, PRB 81, 115126


--------------------------------------------------------------------------------------------------------




--------------------------------------- Iteration      1(  17)  ---------------------------------------


    POTLOK:  cpu time      0.1986: real time      0.2180
    SETDIJ:  cpu time      0.5049: real time      0.5213
    TRIAL :  cpu time      8.8784: real time      8.9010
    CORREC:  cpu time     10.6684: real time     10.6790
    CHARGE:  cpu time      0.0948: real time      0.0948
    --------------------------------------------
      LOOP:  cpu time     20.3486: real time     20.4290

 eigenvalue-minimisations  :     0
 total energy-change (2. order) :-0.2492763E-05  (-0.1224573E-05)
 number of electron      87.9999997 magnetization 
 augmentation part       42.7705625 magnetization 

 Free energy of the ion-electron system (eV)
  ---------------------------------------------------
  alpha Z        PSCENC =         6.80462455
  Ewald energy   TEWEN  =      7426.41580137
  -Hartree energ DENC   =    -15399.89166534
  -exchange      EXHF   =       181.81915781
  -V(xc)+E(xc)   XCENC  =       -80.70476630
  PAW double counting   =      9415.02034895    -9100.77085144
  entropy T*S    EENTRO =        -0.00000000
  eigenvalues    EBANDS =      -754.07375478
  atomic energy  EATOM  =      8290.32802364
  ---------------------------------------------------
  free energy    TOTEN  =       -15.05308154 eV

  energy without entropy =      -15.05308154  energy(sigma->0) =      -15.05308154
  exchange ACFDT corr.  =        -0.00000000  see jH, gK, PRB 81, 115126


--------------------------------------------------------------------------------------------------------




--------------------------------------- Iteration      1(  18)  ---------------------------------------


    POTLOK:  cpu time      0.2044: real time      0.2044
    SETDIJ:  cpu time      0.5323: real time      0.5325
    TRIAL :  cpu time     10.1214: real time     10.5605
    CORREC:  cpu time     10.9620: real time     11.0525
    EDDIAG:  cpu time     10.0091: real time     10.0219
    CHARGE:  cpu time      0.0949: real time      0.0949
    --------------------------------------------
      LOOP:  cpu time     31.9332: real time     32.4805

 eigenvalue-minimisations  :     0
 total energy-change (2. order) :-0.7428462E-06  (-0.4419630E-06)
 number of electron      87.9999997 magnetization 
 augmentation part       42.7703204 magnetization 

 Free energy of the ion-electron system (eV)
  ---------------------------------------------------
  alpha Z        PSCENC =         6.80462455
  Ewald energy   TEWEN  =      7426.41580137
  -Hartree energ DENC   =    -15399.98966897
  -exchange      EXHF   =       181.81987300
  -V(xc)+E(xc)   XCENC  =       -80.70335504
  PAW double counting   =      9415.06172702    -9100.81289391
  entropy T*S    EENTRO =        -0.00000000
  eigenvalues    EBANDS =      -753.97809228
  atomic energy  EATOM  =      8290.32802364
  ---------------------------------------------------
  free energy    TOTEN  =       -15.05308229 eV

  energy without entropy =      -15.05308229  energy(sigma->0) =      -15.05308229
  exchange ACFDT corr.  =        -0.00000000  see jH, gK, PRB 81, 115126


--------------------------------------------------------------------------------------------------------


  average scaling for gradient   1.0559


 average (electrostatic) potential at core
  the test charge radii are     1.1249
  (the norm of the test charge is              1.0000)
       1 -75.7354       2 -75.7839       3 -75.7814       4 -76.0172       5 -75.7809
       6 -75.9783       7 -75.7844       8 -76.0182



 E-fermi :  -4.0880     XC(G=0):  -0.4268     alpha+bet : -0.2295

 Fermi energy:        -4.0879599034

 k-point     1 :       0.0000    0.0000    0.0000
  band No.  band energies     occupation 
      1     -10.4384      2.00000
      2     -10.3069      2.00000
      3     -10.2904      2.00000
      4      -9.9448      2.00000
      5      -9.8954      2.00000
      6      -9.7981      2.00000
      7      -9.7686      2.00000
      8      -9.6608      2.00000
      9      -9.5876      2.00000
     10      -9.5870      2.00000
     11      -9.5721      2.00000
     12      -9.3983      2.00000
     13      -9.3534      2.00000
     14      -9.3286      2.00000
     15      -9.3048      2.00000
     16      -9.2056      2.00000
     17      -9.1755      2.00000
     18      -8.8722      2.00000
     19      -8.8447      2.00000
     20      -8.7736      2.00000
     21      -8.6305      2.00000
     22      -8.6141      2.00000
     23      -8.5556      2.00000
     24      -8.5320      2.00000
     25      -8.5226      2.00000
     26      -8.4272      2.00000
     27      -8.3366      2.00000
     28      -8.2254      2.00000
     29      -8.2142      2.00000
     30      -8.1449      2.00000
     31      -8.1299      2.00000
     32      -8.1068      2.00000
     33      -8.0955      2.00000
     34      -8.0045      2.00000
     35      -7.9152      2.00000
     36      -7.8658      2.00000
     37      -7.7901      2.00000
     38      -7.7810      2.00000
     39      -7.7655      2.00000
     40      -7.7592      2.00000
     41      -7.7070      2.00000
     42      -5.6453      2.00000
     43      -4.8167      2.00000
     44      -4.3505      2.00000
     45      -2.5819      0.00000
     46      -2.2818      0.00000
     47      -2.0321      0.00000
     48      -1.8253      0.00000
     49      -1.3559      0.00000
     50      -1.2561      0.00000
     51      -0.7000      0.00000
     52      -0.2931      0.00000
     53       0.0191      0.00000
     54       0.1820      0.00000
     55       0.2266      0.00000
     56       0.3814      0.00000
     57       0.3942      0.00000
     58       0.4695      0.00000
     59       0.5121      0.00000
     60       0.5438      0.00000
     61       0.5663      0.00000
     62       0.6010      0.00000
     63       0.6575      0.00000
     64       0.6819      0.00000
     65       0.7731      0.00000
     66       0.8065      0.00000
     67       0.8112      0.00000
     68       0.8426      0.00000
     69       0.8602      0.00000
     70       0.8679      0.00000
     71       0.8854      0.00000
     72       0.8967      0.00000
     73       0.9700      0.00000
     74       1.0308      0.00000
     75       1.0873      0.00000
     76       1.1294      0.00000
     77       1.1641      0.00000
     78       1.2151      0.00000
     79       1.2193      0.00000
     80       1.2341      0.00000
     81       1.3179      0.00000
     82       1.3284      0.00000
     83       1.3894      0.00000
     84       1.3986      0.00000
     85       1.4441      0.00000
     86       1.5712      0.00000
     87       1.5815      0.00000
     88       1.6419      0.00000
     89       1.7181      0.00000
     90       1.7408      0.00000
     91       1.7590      0.00000
     92       1.8034      0.00000
     93       1.8245      0.00000
     94       1.8720      0.00000
     95       1.8867      0.00000
     96       1.8959      0.00000


--------------------------------------------------------------------------------------------------------


 soft charge-density along one line, spin component           1
         0         1         2         3         4         5         6         7         8         9
 total charge-density along one line

 pseudopotential strength for first ion, spin component:           1
 -8.799  -0.004  -0.004  -0.002   0.002  -8.858  -0.004  -0.004
 -0.004  -8.819   0.000   0.004   0.001  -0.004  -8.878   0.000
 -0.004   0.000  -8.808   0.000  -0.009  -0.004   0.000  -8.867
 -0.002   0.004   0.000  -8.804  -0.005  -0.002   0.004   0.000
  0.002   0.001  -0.009  -0.005  -8.795   0.002   0.001  -0.009
 -8.858  -0.004  -0.004  -0.002   0.002  -8.889  -0.004  -0.004
 -0.004  -8.878   0.000   0.004   0.001  -0.004  -8.908   0.000
 -0.004   0.000  -8.867   0.000  -0.009  -0.004   0.000  -8.898
 -0.002   0.004   0.000  -8.862  -0.005  -0.001   0.003   0.000
  0.002   0.001  -0.009  -0.005  -8.854   0.002   0.001  -0.008
 -0.000  -0.000  -0.001  -0.000  -0.001  -0.000  -0.000  -0.001
 -0.001  -0.000  -0.001  -0.000  -0.001  -0.001  -0.000  -0.001
  0.008   0.001   0.019  -0.000   0.033   0.007   0.001   0.018
 -0.000  -0.033   0.001   0.008   0.000  -0.000  -0.032   0.001
 -0.033  -0.000  -0.004   0.001   0.007  -0.032  -0.000  -0.004
  0.009   0.001   0.022  -0.000   0.040   0.009   0.001   0.021
 -0.000  -0.040   0.001   0.009   0.000  -0.000  -0.038   0.001
 -0.039  -0.000  -0.005   0.001   0.008  -0.037  -0.000  -0.005
 total augmentation occupancy for first ion, spin component:           1
  3.012  -0.067   0.024  -0.008  -0.217  -1.015   0.061  -0.027  -0.001   0.240   0.046  -0.033  -0.022   0.024  -0.241   0.005
 -0.067   2.759  -0.012  -0.088   0.024   0.061  -0.800   0.021   0.091  -0.025   0.029  -0.007   0.007  -0.137   0.026   0.000
  0.024  -0.012   2.391   0.004   0.045  -0.027   0.021  -0.360   0.026  -0.054   0.254  -0.070   0.045   0.004  -0.011   0.007
 -0.008  -0.088   0.004   2.383  -0.019  -0.001   0.091   0.026  -0.417  -0.002   0.066  -0.009   0.001   0.030  -0.001  -0.000
 -0.217   0.024   0.045  -0.019   2.654   0.240  -0.025  -0.054  -0.002  -0.618   0.090  -0.067   0.087  -0.010   0.096   0.012
 -1.015   0.061  -0.027  -0.001   0.240   1.012  -0.055   0.031   0.009  -0.261  -0.039   0.024   0.017  -0.021   0.265  -0.000
  0.061  -0.800   0.021   0.091  -0.025  -0.055   0.829  -0.029  -0.094   0.027  -0.029   0.009  -0.007   0.178  -0.022   0.001
 -0.027   0.021  -0.360   0.026  -0.054   0.031  -0.029   0.323  -0.052   0.063  -0.253   0.084  -0.064  -0.005   0.015   0.006
 -0.001   0.091   0.026  -0.417  -0.002   0.009  -0.094  -0.052   0.436   0.020  -0.069   0.018  -0.003  -0.040   0.000   0.000
  0.240  -0.025  -0.054  -0.002  -0.618  -0.261   0.027   0.063   0.020   0.578  -0.076   0.049  -0.112   0.008  -0.101   0.010
  0.046   0.029   0.254   0.066   0.090  -0.039  -0.029  -0.253  -0.069  -0.076   3.876  -1.099   0.374  -0.008  -0.084  -0.038
 -0.033  -0.007  -0.070  -0.009  -0.067   0.024   0.009   0.084   0.018   0.049  -1.099   0.318  -0.118   0.003   0.027   0.012
 -0.022   0.007   0.045   0.001   0.087   0.017  -0.007  -0.064  -0.003  -0.112   0.374  -0.118   0.068  -0.002   0.004  -0.007
  0.024  -0.137   0.004   0.030  -0.010  -0.021   0.178  -0.005  -0.040   0.008  -0.008   0.003  -0.002   0.045  -0.009   0.000
 -0.241   0.026  -0.011  -0.001   0.096   0.265  -0.022   0.015   0.000  -0.101  -0.084   0.027   0.004  -0.009   0.087   0.000
  0.005   0.000   0.007  -0.000   0.012  -0.000   0.001   0.006   0.000   0.010  -0.038   0.012  -0.007   0.000   0.000   0.001
 -0.001  -0.009   0.000   0.002   0.000   0.001  -0.015   0.000   0.003  -0.000   0.001  -0.000   0.000  -0.004   0.000  -0.000
 -0.005  -0.001  -0.002   0.000  -0.001  -0.019   0.001  -0.001   0.000   0.007   0.008  -0.003   0.000   0.000  -0.006  -0.000


------------------------ aborting loop because EDIFF is reached ----------------------------------------


    FORLOC:  cpu time      0.0033: real time      0.0045
    FORHF :  cpu time      3.7444: real time      3.7990
    FORNL :  cpu time      0.0981: real time      0.1179
    FORCOR:  cpu time      0.7014: real time      0.7152
    OFIELD:  cpu time      0.0003: real time      0.0011

 VOLUME and BASIS-vectors are now :
 -----------------------------------------------------------------------------
  energy-cutoff  :      520.00
  volume of cell :     8000.00
      direct lattice vectors                 reciprocal lattice vectors
    20.000000000  0.000000000  0.000000000     0.050000000  0.000000000  0.000000000
     0.000000000 20.000000000  0.000000000     0.000000000  0.050000000  0.000000000
     0.000000000  0.000000000 20.000000000     0.000000000  0.000000000  0.050000000

  length of vectors
    20.000000000 20.000000000 20.000000000     0.050000000  0.050000000  0.050000000


 FORCES acting on ions:
    Electron-Ion                     Ewald-Force                    Non-Local-Force
 -----------------------------------------------------------------------------------------------
   -.190E+03 0.843E+03 -.171E+02   0.188E+03 -.837E+03 0.170E+02   0.138E+01 -.612E+01 0.134E+00
   0.680E+03 0.350E+03 0.339E+03   -.677E+03 -.348E+03 -.335E+03   -.302E+01 -.186E+01 -.344E+01
   0.500E+03 0.291E+03 -.602E+03   -.499E+03 -.289E+03 0.598E+03   -.151E+01 -.137E+01 0.450E+01
   -.353E+02 -.468E+03 -.673E+03   0.349E+02 0.464E+03 0.666E+03   0.465E+00 0.421E+01 0.680E+01
   -.761E+03 0.124E+02 -.344E+03   0.758E+03 -.121E+02 0.341E+03   0.351E+01 -.268E+00 0.348E+01
   0.160E+03 -.715E+03 0.135E+02   -.160E+03 0.713E+03 -.134E+02   -.457E+00 0.202E+01 -.393E-01
   -.581E+03 0.720E+02 0.596E+03   0.579E+03 -.713E+02 -.592E+03   0.198E+01 -.765E+00 -.446E+01
   0.227E+03 -.384E+03 0.688E+03   -.224E+03 0.381E+03 -.682E+03   -.217E+01 0.338E+01 -.695E+01
 -----------------------------------------------------------------------------------------------
   -.196E+00 0.852E+00 -.361E-01   0.227E-12 0.000E+00 0.227E-12   0.178E+00 -.769E+00 0.263E-01


 POSITION                                       TOTAL-FORCE (eV/Angst)
 -----------------------------------------------------------------------------------
     10.40382      8.11329     10.07198         0.055583     -0.247494      0.004076
      8.29930      9.54002      9.00077        -0.178781     -0.089936     -0.069722
      8.80304      9.70455     11.65914        -0.136427     -0.075990      0.139217
     10.08138     11.94369     12.61971         0.007012      0.163651      0.210808
     11.69261     10.34179     11.06661         0.198321     -0.002671      0.071844
      9.57221     11.82253      9.99857        -0.031151      0.132694     -0.000890
     11.18016     10.17470      8.41024         0.159001     -0.016342     -0.139055
      9.07894     11.62238      7.37846        -0.073559      0.136089     -0.216278
 -----------------------------------------------------------------------------------
    total drift:                                0.001115     -0.000972     -0.004608


--------------------------------------------------------------------------------------------------------



  FREE ENERGIE OF THE ION-ELECTRON SYSTEM (eV)
  ---------------------------------------------------
  free  energy   TOTEN  =       -15.05308229 eV

  energy  without entropy=      -15.05308229  energy(sigma->0) =      -15.05308229



--------------------------------------------------------------------------------------------------------


    POTLOK:  cpu time      0.7270: real time      0.7380


--------------------------------------------------------------------------------------------------------


     LOOP+:  cpu time    265.2443: real time    266.4228
    4ORBIT:  cpu time      0.0000: real time      0.0038

 total amount of memory used by VASP MPI-rank0   955012. kBytes
=======================================================================

   base      :      30000. kBytes
   nonlr-proj:       4690. kBytes
   fftplans  :      48991. kBytes
   grid      :      38630. kBytes
   one-center:         31. kBytes
   HF        :         64. kBytes
   wavefun   :       2592. kBytes
   fock_wrk  :     830014. kBytes

  
  
 General timing and accounting informations for this job:
 ========================================================
  
                  Total CPU time used (sec):      290.918
                            User time (sec):      275.199
                          System time (sec):       15.720
                         Elapsed time (sec):      294.366
  
                   Maximum memory used (kb):     1753912.
                   Average memory used (kb):          N/A
  
                          Minor page faults:      2946107
                          Major page faults:           14
                 Voluntary context switches:        13652
