 vasp.6.4.0 14Feb23 (build Dec 05 2023 14:15:48) complex                        
  
 executed on             LinuxIFC date 2023.12.12  12:20:49
 running  512 mpi-ranks, with    1 threads/rank, on   32 nodes
 distrk:  each k-point on  512 cores,    1 groups
 distr:  one band on NCORE=  16 cores,   32 groups


--------------------------------------------------------------------------------------------------------


 INCAR:
   SYSTEM = MgO-rocksalt
   ISMEAR = 0
   SIGMA = 0.05
   EDIFF = 1E-6
   ALGO = ALL
   ISTART = 2
   IBRION = -1
   NSW = 0
   ISYM = 0
   METAGGA = M06L
   ENCUT = 520
   PREC = Accurate
   LASPH = .TRUE.
   LREAL = Auto
   ISPIN = 1
   NELM = 2000
   NELMIN = 8
   NCORE = 16
   LWAVE = .FALSE.
   LCHARG = .FALSE.

 POTCAR:    PAW_PBE Cu 22Jun2005                  
 POTCAR:    PAW_PBE Cu 22Jun2005                  
   SHA256 =  0e71e558f37a4e8407882b4609ceaae59938afaad9ced71dfe8490308a0ab630 Cu/POTCAR             
   COPYR  = (c) Copyright 22Jun2005 Georg Kresse                                                    
   COPYR  = This file is part of the software VASP. Any use, copying, and all other rights are regul
   COPYR  = If you do not have a valid VASP license, you may not use, copy or distribute this file. 
   VRHFIN =Cu: d10 p1                                                                               
   LEXCH  = PE                                                                                      
   EATOM  =  1390.9808 eV,  102.2342 Ry                                                             
                                                                                                    
   TITEL  = PAW_PBE Cu 22Jun2005                                                                    
   LULTRA =        F    use ultrasoft PP ?                                                          
   IUNSCR =        1    unscreen: 0-lin 1-nonlin 2-no                                               
   RPACOR =    2.000    partial core radius                                                         
   POMASS =   63.546; ZVAL   =   11.000    mass and valenz                                          
   RCORE  =    2.300    outmost cutoff radius                                                       
   RWIGS  =    2.200; RWIGS  =    1.164    wigner-seitz radius (au A)                               
   ENMAX  =  295.446; ENMIN  =  221.585 eV                                                          
   ICORE  =        3    local potential                                                             
   LCOR   =        T    correct aug charges                                                         
   LPAW   =        T    paw PP                                                                      
   EAUG   =  586.980                                                                                
   DEXC   =    0.000                                                                                
   RMAX   =    2.344    core radius for proj-oper                                                   
   RAUG   =    1.300    factor for augmentation sphere                                              
   RDEP   =    2.302    radius for radial grids                                                     
   RDEPT  =    1.771    core radius for aug-charge                                                  
                                                                                                    
   Atomic configuration                                                                             
    9 entries                                                                                       
     n  l   j            E        occ.                                                              
     1  0  0.50     -8850.2468   2.0000                                                             
     2  0  0.50     -1062.3498   2.0000                                                             
     2  1  1.50      -916.8226   6.0000                                                             
     3  0  0.50      -114.6929   2.0000                                                             
     3  1  1.50       -72.1325   6.0000                                                             
     3  2  2.50        -5.0394  10.0000                                                             
     4  0  0.50        -4.6097   1.0000                                                             
     4  1  0.50        -4.0817   0.0000                                                             
     4  3  2.50        -1.3606   0.0000                                                             
   Description                                                                                      
     l       E           TYP  RCUT    TYP  RCUT                                                     
     2     -5.0393973     23  2.200                                                                 
     2     10.8846608     23  2.200                                                                 
     0     -4.6097109     23  2.200                                                                 
     0      8.2520465     23  2.200                                                                 
     1     -2.7211652     23  2.200                                                                 
     1     21.7055443     23  2.200                                                                 
     3      2.7211652     23  2.300                                                                 
  local pseudopotential read in
  partial core-charges read in
  partial kinetic energy density read in
  atomic valenz-charges read in
  non local Contribution for L=           2  read in
    real space projection operators read in
  non local Contribution for L=           2  read in
    real space projection operators read in
  non local Contribution for L=           0  read in
    real space projection operators read in
  non local Contribution for L=           0  read in
    real space projection operators read in
  non local Contribution for L=           1  read in
    real space projection operators read in
  non local Contribution for L=           1  read in
    real space projection operators read in
    PAW grid and wavefunctions read in
 
   number of l-projection  operators is LMAX  =           6
   number of lm-projection operators is LMMAX =          18
 
 -----------------------------------------------------------------------------
|                                                                             |
|               ----> ADVICE to this user running VASP <----                  |
|                                                                             |
|     You have a (more or less) 'small supercell' and for smaller cells       |
|     it is recommended to use the reciprocal-space projection scheme!        |
|     The real-space optimization is not efficient for small cells and it     |
|     is also less accurate ...                                               |
|     Therefore, set LREAL=.FALSE. in the INCAR file.                         |
|                                                                             |
 -----------------------------------------------------------------------------

 Optimization of the real space projectors (new method)

 maximal supplied QI-value         = 16.25
 optimisation between [QCUT,QGAM] = [ 11.54, 23.24] = [ 37.28,151.24] Ry 
 Optimized for a Real-space Cutoff    1.53 Angstroem

   l    n(q)    QCUT    max X(q) W(low)/X(q) W(high)/X(q)  e(spline) 
   2     10    11.539     4.610    0.96E-04    0.13E-03    0.19E-06
   2     10    11.539     8.522    0.16E-03    0.21E-03    0.28E-06
   0     11    11.539    51.609    0.45E-04    0.31E-04    0.11E-06
   0     11    11.539    27.747    0.39E-04    0.29E-04    0.10E-06
   1     10    11.539    20.408    0.70E-05    0.38E-04    0.18E-06
   1     10    11.539    13.425    0.66E-05    0.34E-04    0.17E-06
  PAW_PBE Cu 22Jun2005                  :
 energy of atom  1       EATOM=-1390.9808
 kinetic energy error for atom=    0.0037 (will be added to EATOM!!)
 
 
 POSCAR: Cu Mg  O
  positions in direct lattice
  No initial velocities read in

 METAGGA = M06L                                        LMAXTAU =  6    LMIXTAU =  F

 exchange correlation table for  LEXCH =        8
   RHO(1)=    0.500       N(1)  =     2000
   RHO(2)=  100.500       N(2)  =     4000
 


--------------------------------------------------------------------------------------------------------


 ion  position               nearest neighbor table
   1  0.400  0.417  0.591-   4 2.26   3 2.42   2 2.42
   2  0.490  0.488  0.600-   4 2.37   1 2.42
   3  0.310  0.488  0.600-   4 2.37   1 2.42
   4  0.400  0.492  0.664-   1 2.26   2 2.37   3 2.37
 

IMPORTANT INFORMATION: All symmetrisations will be switched off!
NOSYMM: (Re-)initialisation of all symmetry stuff for point group C_1.


----------------------------------------------------------------------------------------

                                     Primitive cell                                     

  volume of cell :    9881.6133

  direct lattice vectors                    reciprocal lattice vectors
    21.138852197  0.000000000  0.000000000     0.047306258  0.000000000  0.000000000
     0.000000000 21.138852197  0.000000000     0.000000000  0.047306258  0.000000000
     0.000000000  0.000000000 22.113885220     0.000000000  0.000000000  0.045220457

  length of vectors
    21.138852197 21.138852197 22.113885220     0.047306258  0.047306258  0.045220457

  position of ions in fractional coordinates (direct lattice)
     0.400000448  0.417421820  0.590666055
     0.489930887  0.487828399  0.600479320
     0.310074740  0.487828788  0.600479320
     0.400005179  0.491990244  0.664187608

  ion indices of the primitive-cell ions
   primitive index   ion index
                 1           1
                 2           2
                 3           3
                 4           4

----------------------------------------------------------------------------------------

 
 
 KPOINTS: KPOINTS created by Atomic Simulation Env

Automatic generation of k-mesh.
 Grid dimensions read from file:
 generate k-points for:    1    1    1

 Generating k-lattice:

  Cartesian coordinates                     Fractional coordinates (reciprocal lattice)
     0.047306258  0.000000000  0.000000000     1.000000000  0.000000000  0.000000000
     0.000000000  0.047306258  0.000000000     0.000000000  1.000000000  0.000000000
     0.000000000  0.000000000  0.045220457     0.000000000  0.000000000  1.000000000

  Length of vectors
     0.047306258  0.047306258  0.045220457

  Shift w.r.t. Gamma in fractional coordinates (k-lattice)
     0.000000000  0.000000000  0.000000000

 
 Subroutine IBZKPT returns following result:
 ===========================================
 
 Found      1 irreducible k-points:
 
 Following reciprocal coordinates:
            Coordinates               Weight
  0.000000  0.000000  0.000000      1.000000
 
 Following cartesian coordinates:
            Coordinates               Weight
  0.000000  0.000000  0.000000      1.000000
 


--------------------------------------------------------------------------------------------------------




 Dimension of arrays:
   k-points           NKPTS =      1   k-points in BZ     NKDIM =      1   number of bands    NBANDS=     32
   number of dos      NEDOS =    301   number of ions     NIONS =      4
   non local maximal  LDIM  =      6   non local SUM 2l+1 LMDIM =     18
   total plane-waves  NPLWV = ******
   max r-space proj   IRMAX =   6628   max aug-charges    IRDMAX=  12805
   dimension x,y,z NGX =   160 NGY =  160 NGZ =  168
   dimension x,y,z NGXF=   320 NGYF=  320 NGZF=  336
   support grid    NGXF=   320 NGYF=  320 NGZF=  336
   ions per type =               4
   NGX,Y,Z   is equivalent  to a cutoff of  12.58, 12.58, 12.63 a.u.
   NGXF,Y,Z  is equivalent  to a cutoff of  25.17, 25.17, 25.26 a.u.

 SYSTEM =  MgO-rocksalt                            
 POSCAR =  Cu Mg  O                                

 Startparameter for this run:
   NWRITE =      2    write-flag & timer
   PREC   = accura    normal or accurate (medium, high low for compatibility)
   ISTART =      2    job   : 0-new  1-cont  2-samecut
   ICHARG =      0    charge: 1-file 2-atom 10-const
   ISPIN  =      1    spin polarized calculation?
   LNONCOLLINEAR =      F non collinear calculations
   LSORBIT =      F    spin-orbit coupling
   INIWAV =      1    electr: 0-lowe 1-rand  2-diag
   LASPH  =      T    aspherical Exc in radial PAW
 Electronic Relaxation 1
   ENCUT  =  520.0 eV  38.22 Ry    6.18 a.u.  39.30 39.30 41.12*2*pi/ulx,y,z
   ENINI  =  520.0     initial cutoff
   ENAUG  =  587.0 eV  augmentation charge cutoff
   NELM   =   2000;   NELMIN=  8; NELMDL=  0     # of ELM steps 
   EDIFF  = 0.1E-05   stopping-criterion for ELM
   LREAL  =      T    real-space projection
   NLSPLINE    = F    spline interpolate recip. space projectors
   LCOMPAT=      F    compatible to vasp.4.4
   GGA_COMPAT  = T    GGA compatible to vasp.4.4-vasp.4.6
   LMAXPAW     = -100 max onsite density
   LMAXMIX     =    2 max onsite mixed and CHGCAR
   VOSKOWN=      0    Vosko Wilk Nusair interpolation
   ROPT   =   -0.00025
 Ionic relaxation
   EDIFFG = 0.1E-04   stopping-criterion for IOM
   NSW    =      0    number of steps for IOM
   NBLOCK =      1;   KBLOCK =      1    inner block; outer block 
   IBRION =     -1    ionic relax: 0-MD 1-quasi-New 2-CG
   NFREE  =      0    steps in history (QN), initial steepest desc. (CG)
   ISIF   =      2    stress and relaxation
   IWAVPR =     10    prediction:  0-non 1-charg 2-wave 3-comb
   ISYM   =      0    0-nonsym 1-usesym 2-fastsym
   LCORR  =      T    Harris-Foulkes like correction to forces

   POTIM  = 0.5000    time-step for ionic-motion
   TEIN   =    0.0    initial temperature
   TEBEG  =    0.0;   TEEND  =   0.0 temperature during run
   SMASS  =  -3.00    Nose mass-parameter (am)
   estimated Nose-frequenzy (Omega)   =  0.10E-29 period in steps = 0.13E+47 mass=  -0.102E-25a.u.
   SCALEE = 1.0000    scale energy and forces
   NPACO  =    256;   APACO  = 10.0  distance and # of slots for P.C.
   PSTRESS=    0.0 pullay stress

  Mass of Ions in am
   POMASS =  63.55
  Ionic Valenz
   ZVAL   =  11.00
  Atomic Wigner-Seitz radii
   RWIGS  =  -1.00
  virtual crystal weights 
   VCA    =   1.00
   NELECT =      44.0000    total number of electrons
   NUPDOWN=      -1.0000    fix difference up-down

 DOS related values:
   EMIN   =  10.00;   EMAX   =-10.00  energy-range for DOS
   EFERMI =   0.00;   METHOD = LEGACY      
   ISMEAR =     0;   SIGMA  =   0.05  broadening in eV -4-tet -1-fermi 0-gaus

 Electronic relaxation 2 (details)
   IALGO  =     58    algorithm
   LDIAG  =      T    sub-space diagonalisation (order eigenvalues)
   LSUBROT=      F    optimize rotation matrix (better conditioning)
   TURBO    =      0    0=normal 1=particle mesh
   IRESTART =      0    0=no restart 2=restart with 2 vectors
   NREBOOT  =      0    no. of reboots
   NMIN     =      0    reboot dimension
   EREF     =   0.00    reference energy to select bands
   IMIX   =      4    mixing-type and parameters
     AMIX     =   0.40;   BMIX     =  1.00
     AMIX_MAG =   1.60;   BMIX_MAG =  1.00
     AMIN     =   0.10
     WC   =   100.;   INIMIX=   1;  MIXPRE=   1;  MAXMIX= -45

 Intra band minimization:
   WEIMIN = 0.0000     energy-eigenvalue tresh-hold
   EBREAK =  0.78E-08  absolut break condition
   DEPER  =   0.30     relativ break condition  

   TIME   =   0.40     timestep for ELM

  volume/ion in A,a.u.               =    2470.40     16671.10
  Fermi-wavevector in a.u.,A,eV,Ry     =   0.269329  0.508958  0.986941  0.072538
  Thomas-Fermi vector in A             =   1.106612
 
 Write flags
   LWAVE        =      F    write WAVECAR
   LDOWNSAMPLE  =      F    k-point downsampling of WAVECAR
   LCHARG       =      F    write CHGCAR
   LVTOT        =      F    write LOCPOT, total local potential
   LVHAR        =      F    write LOCPOT, Hartree potential only
   LELF         =      F    write electronic localiz. function (ELF)
   LORBIT       =      0    0 simple, 1 ext, 2 COOP (PROOUT), +10 PAW based schemes


 Dipole corrections
   LMONO  =      F    monopole corrections only (constant potential shift)
   LDIPOL =      F    correct potential (dipole corrections)
   IDIPOL =      0    1-x, 2-y, 3-z, 4-all directions 
   EPSILON=  1.0000000 bulk dielectric constant

 Exchange correlation treatment:
   GGA     =    --    GGA type
   LEXCH   =     8    internal setting for exchange type
   LIBXC   =     F    Libxc                    
   VOSKOWN =     0    Vosko Wilk Nusair interpolation
   LHFCALC =     F    Hartree Fock is set to
   LHFONE  =     F    Hartree Fock one center treatment
   AEXX    =    0.0000 exact exchange contribution

 Linear response parameters
   LEPSILON=     F    determine dielectric tensor
   LRPA    =     F    only Hartree local field effects (RPA)
   LNABLA  =     F    use nabla operator in PAW spheres
   LVEL    =     F    velocity operator in full k-point grid
   CSHIFT  =0.1000    complex shift for real part using Kramers Kronig
   OMEGAMAX=  -1.0    maximum frequency
   DEG_THRESHOLD= 0.2000000E-02 threshold for treating states as degnerate
   RTIME   =   -0.100 relaxation time in fs
  (WPLASMAI=    0.000 imaginary part of plasma frequency in eV, 0.658/RTIME)
   DFIELD  = 0.0000000 0.0000000 0.0000000 field for delta impulse in time
 
  Optional k-point grid parameters
   LKPOINTS_OPT  =     F    use optional k-point grid
   KPOINTS_OPT_MODE=     1    mode for optional k-point grid
 
 Orbital magnetization related:
   ORBITALMAG=     F  switch on orbital magnetization
   LCHIMAG   =     F  perturbation theory with respect to B field
   DQ        =  0.001000  dq finite difference perturbation B field
   LLRAUG    =     F  two centre corrections for induced B field
   LBONE     =     F  B-component reconstruction in AE one-centre
   LVGVCALC  =     T  calculate vGv susceptibility
   LVGVAPPL  =     F  apply vGv susceptibility instead of pGv for G=0

 Random number generation:
   RANDOM_GENERATOR = DEFAULT
   PCG_SEED         = not used


--------------------------------------------------------------------------------------------------------


 Static calculation
 charge density and potential will be updated during run
 non-spin polarized calculation
 Conjugate gradient for all bands (Freysoldt, et al. PRB 79, 241103 (2009))
 preconditioned conjugated gradient                                        
 perform sub-space diagonalisation
    before iterative eigenvector-optimisation
 modified Broyden-mixing scheme, WC =      100.0
 initial mixing is a Kerker type mixing with AMIX =  0.4000 and BMIX =      1.0000
 Hartree-type preconditioning will be used
 using additional bands           10
 real space projection scheme for non local part
 use partial core corrections
 no Harris-corrections to forces 
 use gradient corrections 
 use of overlap-Matrix (Vanderbilt PP)
 Gauss-broadening in eV      SIGMA  =   0.05


--------------------------------------------------------------------------------------------------------


  energy-cutoff  :      520.00
  volume of cell :     9881.61
      direct lattice vectors                 reciprocal lattice vectors
    21.138852197  0.000000000  0.000000000     0.047306258  0.000000000  0.000000000
     0.000000000 21.138852197  0.000000000     0.000000000  0.047306258  0.000000000
     0.000000000  0.000000000 22.113885220     0.000000000  0.000000000  0.045220457

  length of vectors
    21.138852197 21.138852197 22.113885220     0.047306258  0.047306258  0.045220457


 
 old parameters found on file WAVECAR:
  energy-cutoff  :      520.00
  volume of cell :     9881.61
      direct lattice vectors                 reciprocal lattice vectors
    21.138852197  0.000000000  0.000000000     0.047306258  0.000000000  0.000000000
     0.000000000 21.138852197  0.000000000     0.000000000  0.047306258  0.000000000
     0.000000000  0.000000000 22.113885220     0.000000000  0.000000000  0.045220457

  length of vectors

 
 k-points in units of 2pi/SCALE and weight: KPOINTS created by Atomic Simulation Env
   0.00000000  0.00000000  0.00000000       1.000
 
 k-points in reciprocal lattice and weights: KPOINTS created by Atomic Simulation Env
   0.00000000  0.00000000  0.00000000       1.000
 
 position of ions in fractional coordinates (direct lattice) 
   0.40000045  0.41742182  0.59066605
   0.48993089  0.48782840  0.60047932
   0.31007474  0.48782879  0.60047932
   0.40000518  0.49199024  0.66418761
 
 position of ions in cartesian coordinates  (Angst):
   8.45555035  8.82381816 13.06192134
  10.35657660 10.31213242 13.27893076
   6.55462410 10.31214064 13.27893076
   8.45565035 10.40010904 14.68776852
 


--------------------------------------------------------------------------------------------------------


 k-point   1 :   0.0000 0.0000 0.0000  plane waves:  265979

 maximum and minimum number of plane-waves per node :     16635    16606

 maximum number of plane-waves:    265979
 maximum index in each direction: 
   IXMAX=   39   IYMAX=   39   IZMAX=   41
   IXMIN=  -39   IYMIN=  -39   IZMIN=  -41


 real space projection operators:
  total allocation   :       3592.97 KBytes
  max/ min on nodes  :        237.38        213.61


 parallel 3D FFT for wavefunctions:
    minimum data exchange during FFTs selected (reduces bandwidth)
 parallel 3D FFT for charge:
    minimum data exchange during FFTs selected (reduces bandwidth)


 total amount of memory used by VASP MPI-rank0    68455. kBytes
=======================================================================

   base      :      30000. kBytes
   nonlr-proj:        735. kBytes
   fftplans  :      11482. kBytes
   grid      :      25425. kBytes
   one-center:         15. kBytes
   wavefun   :        798. kBytes
 
     INWAV:  cpu time      1.4512: real time      1.5114
 Broyden mixing: mesh for mixing (old mesh)
   NGX = 79   NGY = 79   NGZ = 83
  (NGX  =320   NGY  =320   NGZ  =336)
  gives a total of 518003 points

 charge density for first step will be calculated from the start-wavefunctions


--------------------------------------------------------------------------------------------------------


 Maximum index for non-local projection operator          418
 Maximum index for augmentation-charges            0 (set IRDMAX)


--------------------------------------------------------------------------------------------------------


 initial charge from wavefunction
 First call to EWALD:  gamma=   0.083
 Maximum number of real-space cells 3x 3x 3
 Maximum number of reciprocal cells 3x 3x 3

    FEWALD:  cpu time      0.0075: real time      0.0075


--------------------------------------- Ionic step        1  -------------------------------------------




--------------------------------------- Iteration      1(   1)  ---------------------------------------


    POTLOK:  cpu time      0.6994: real time      0.6998
    SETDIJ:  cpu time      4.4063: real time      4.4270
    TRIAL :  cpu time      0.4403: real time      0.4418
    CORREC:  cpu time      6.0614: real time      6.0657
    CHARGE:  cpu time      0.1183: real time      0.1183
    --------------------------------------------
      LOOP:  cpu time     11.7288: real time     11.7565

 eigenvalue-minimisations  :     0
 total energy-change (2. order) :-0.2720520E+02  (-0.1867117E+01)
 number of electron      44.0000013 magnetization 
 augmentation part       28.7497915 magnetization 

 Free energy of the ion-electron system (eV)
  ---------------------------------------------------
  alpha Z        PSCENC =         1.18414354
  Ewald energy   TEWEN  =      2311.80305605
  -Hartree energ DENC   =     -7382.86315524
  -exchange      EXHF   =         0.00000000
  -V(xc)+E(xc)   XCENC  =        85.61498519
  PAW double counting   =      5178.26684095    -5510.84023833
  entropy T*S    EENTRO =        -0.00000000
  eigenvalues    EBANDS =      -274.27904350
  atomic energy  EATOM  =      5563.90821598
  ---------------------------------------------------
  free energy    TOTEN  =       -27.20519536 eV

  energy without entropy =      -27.20519536  energy(sigma->0) =      -27.20519536


--------------------------------------------------------------------------------------------------------




--------------------------------------- Iteration      1(   2)  ---------------------------------------


    POTLOK:  cpu time      0.7862: real time      0.7867
    SETDIJ:  cpu time      4.8544: real time      4.8575
    TRIAL :  cpu time      0.3681: real time      0.3680
    CORREC:  cpu time      6.0732: real time      6.0775
    CHARGE:  cpu time      0.1233: real time      0.1233
    --------------------------------------------
      LOOP:  cpu time     12.2161: real time     12.2243

 eigenvalue-minimisations  :     0
 total energy-change (2. order) :-0.4417134E+00  (-0.1095537E+01)
 number of electron      44.0000013 magnetization 
 augmentation part       28.3636360 magnetization 

 Free energy of the ion-electron system (eV)
  ---------------------------------------------------
  alpha Z        PSCENC =         1.18414354
  Ewald energy   TEWEN  =      2311.80305605
  -Hartree energ DENC   =     -7425.15405175
  -exchange      EXHF   =         0.00000000
  -V(xc)+E(xc)   XCENC  =        84.27159462
  PAW double counting   =      5232.83160975    -5576.91002787
  entropy T*S    EENTRO =        -0.00000000
  eigenvalues    EBANDS =      -219.58144907
  atomic energy  EATOM  =      5563.90821598
  ---------------------------------------------------
  free energy    TOTEN  =       -27.64690876 eV

  energy without entropy =      -27.64690876  energy(sigma->0) =      -27.64690876


--------------------------------------------------------------------------------------------------------




--------------------------------------- Iteration      1(   3)  ---------------------------------------


    POTLOK:  cpu time      0.9325: real time      0.9325
    SETDIJ:  cpu time      4.8563: real time      4.8600
    TRIAL :  cpu time      0.3665: real time      0.3665
    CORREC:  cpu time      6.1562: real time      6.1605
    CHARGE:  cpu time      0.1180: real time      0.1180
    --------------------------------------------
      LOOP:  cpu time     12.4384: real time     12.4556

 eigenvalue-minimisations  :     0
 total energy-change (2. order) :-0.1105848E+01  (-0.8706837E+00)
 number of electron      44.0000013 magnetization 
 augmentation part       28.6867074 magnetization 

 Free energy of the ion-electron system (eV)
  ---------------------------------------------------
  alpha Z        PSCENC =         1.18414354
  Ewald energy   TEWEN  =      2311.80305605
  -Hartree energ DENC   =     -7362.95713140
  -exchange      EXHF   =         0.00000000
  -V(xc)+E(xc)   XCENC  =        81.67985876
  PAW double counting   =      5275.38511364    -5606.78160675
  entropy T*S    EENTRO =        -0.00000000
  eigenvalues    EBANDS =      -292.97440649
  atomic energy  EATOM  =      5563.90821598
  ---------------------------------------------------
  free energy    TOTEN  =       -28.75275666 eV

  energy without entropy =      -28.75275666  energy(sigma->0) =      -28.75275666


--------------------------------------------------------------------------------------------------------




--------------------------------------- Iteration      1(   4)  ---------------------------------------


    POTLOK:  cpu time      1.0108: real time      1.0112
    SETDIJ:  cpu time      4.8435: real time      4.8465
    TRIAL :  cpu time      0.3703: real time      0.3710
    CORREC:  cpu time      6.1654: real time      6.1695
    CHARGE:  cpu time      0.1180: real time      0.1180
    --------------------------------------------
      LOOP:  cpu time     12.5110: real time     12.5273

 eigenvalue-minimisations  :     0
 total energy-change (2. order) :-0.8426648E+00  (-0.3137335E+00)
 number of electron      44.0000013 magnetization 
 augmentation part       28.5068763 magnetization 

 Free energy of the ion-electron system (eV)
  ---------------------------------------------------
  alpha Z        PSCENC =         1.18414354
  Ewald energy   TEWEN  =      2311.80305605
  -Hartree energ DENC   =     -7405.90341428
  -exchange      EXHF   =         0.00000000
  -V(xc)+E(xc)   XCENC  =        78.84734972
  PAW double counting   =      5409.71189358    -5751.49024071
  entropy T*S    EENTRO =        -0.00000000
  eigenvalues    EBANDS =      -237.65642530
  atomic energy  EATOM  =      5563.90821598
  ---------------------------------------------------
  free energy    TOTEN  =       -29.59542142 eV

  energy without entropy =      -29.59542142  energy(sigma->0) =      -29.59542142


--------------------------------------------------------------------------------------------------------




--------------------------------------- Iteration      1(   5)  ---------------------------------------


    POTLOK:  cpu time      1.0687: real time      1.0691
    SETDIJ:  cpu time      4.8533: real time      4.8564
    TRIAL :  cpu time      0.3675: real time      0.3682
    CORREC:  cpu time      6.1670: real time      6.1712
    CHARGE:  cpu time      0.1197: real time      0.1197
    --------------------------------------------
      LOOP:  cpu time     12.5795: real time     12.5954

 eigenvalue-minimisations  :     0
 total energy-change (2. order) :-0.3094549E+00  (-0.1312644E+00)
 number of electron      44.0000013 magnetization 
 augmentation part       28.5253189 magnetization 

 Free energy of the ion-electron system (eV)
  ---------------------------------------------------
  alpha Z        PSCENC =         1.18414354
  Ewald energy   TEWEN  =      2311.80305605
  -Hartree energ DENC   =     -7387.13339757
  -exchange      EXHF   =         0.00000000
  -V(xc)+E(xc)   XCENC  =        78.54833895
  PAW double counting   =      5464.10168715    -5800.27201350
  entropy T*S    EENTRO =        -0.00000000
  eigenvalues    EBANDS =      -262.04490693
  atomic energy  EATOM  =      5563.90821598
  ---------------------------------------------------
  free energy    TOTEN  =       -29.90487632 eV

  energy without entropy =      -29.90487632  energy(sigma->0) =      -29.90487632


--------------------------------------------------------------------------------------------------------




--------------------------------------- Iteration      1(   6)  ---------------------------------------


    POTLOK:  cpu time      1.0533: real time      1.0535
    SETDIJ:  cpu time      4.8493: real time      4.8523
    TRIAL :  cpu time      0.3727: real time      0.3734
    CORREC:  cpu time      6.1813: real time      6.1854
    CHARGE:  cpu time      0.1163: real time      0.1163
    --------------------------------------------
      LOOP:  cpu time     12.5750: real time     12.5920

 eigenvalue-minimisations  :     0
 total energy-change (2. order) :-0.9791409E-01  (-0.1196387E+00)
 number of electron      44.0000013 magnetization 
 augmentation part       28.5674240 magnetization 

 Free energy of the ion-electron system (eV)
  ---------------------------------------------------
  alpha Z        PSCENC =         1.18414354
  Ewald energy   TEWEN  =      2311.80305605
  -Hartree energ DENC   =     -7393.03254286
  -exchange      EXHF   =         0.00000000
  -V(xc)+E(xc)   XCENC  =        78.27833784
  PAW double counting   =      5505.95169065    -5842.86171197
  entropy T*S    EENTRO =        -0.00000000
  eigenvalues    EBANDS =      -255.23397964
  atomic energy  EATOM  =      5563.90821598
  ---------------------------------------------------
  free energy    TOTEN  =       -30.00279041 eV

  energy without entropy =      -30.00279041  energy(sigma->0) =      -30.00279041


--------------------------------------------------------------------------------------------------------




--------------------------------------- Iteration      1(   7)  ---------------------------------------


    POTLOK:  cpu time      0.9939: real time      0.9942
    SETDIJ:  cpu time      4.8505: real time      4.8535
    TRIAL :  cpu time      0.3659: real time      0.3665
    CORREC:  cpu time      6.1147: real time      6.1176
    CHARGE:  cpu time      0.1184: real time      0.1191
    --------------------------------------------
      LOOP:  cpu time     12.4474: real time     12.4625

 eigenvalue-minimisations  :     0
 total energy-change (2. order) : 0.9479094E-01  (-0.2874285E-01)
 number of electron      44.0000013 magnetization 
 augmentation part       28.5692382 magnetization 

 Free energy of the ion-electron system (eV)
  ---------------------------------------------------
  alpha Z        PSCENC =         1.18414354
  Ewald energy   TEWEN  =      2311.80305605
  -Hartree energ DENC   =     -7403.44913643
  -exchange      EXHF   =         0.00000000
  -V(xc)+E(xc)   XCENC  =        77.96708918
  PAW double counting   =      5555.57495887    -5894.05693779
  entropy T*S    EENTRO =        -0.00000000
  eigenvalues    EBANDS =      -242.83938888
  atomic energy  EATOM  =      5563.90821598
  ---------------------------------------------------
  free energy    TOTEN  =       -29.90799947 eV

  energy without entropy =      -29.90799947  energy(sigma->0) =      -29.90799947


--------------------------------------------------------------------------------------------------------




--------------------------------------- Iteration      1(   8)  ---------------------------------------


    POTLOK:  cpu time      0.9895: real time      0.9900
    SETDIJ:  cpu time      4.8388: real time      4.8417
    TRIAL :  cpu time      0.3691: real time      0.3689
    CORREC:  cpu time      6.1306: real time      6.1346
    CHARGE:  cpu time      0.1166: real time      0.1165
    --------------------------------------------
      LOOP:  cpu time     12.4484: real time     12.4627

 eigenvalue-minimisations  :     0
 total energy-change (2. order) :-0.2842545E-01  (-0.5780457E-01)
 number of electron      44.0000013 magnetization 
 augmentation part       28.5611280 magnetization 

 Free energy of the ion-electron system (eV)
  ---------------------------------------------------
  alpha Z        PSCENC =         1.18414354
  Ewald energy   TEWEN  =      2311.80305605
  -Hartree energ DENC   =     -7403.90340360
  -exchange      EXHF   =         0.00000000
  -V(xc)+E(xc)   XCENC  =        77.85770596
  PAW double counting   =      5576.73342173    -5915.38564482
  entropy T*S    EENTRO =        -0.00000000
  eigenvalues    EBANDS =      -242.13391976
  atomic energy  EATOM  =      5563.90821598
  ---------------------------------------------------
  free energy    TOTEN  =       -29.93642492 eV

  energy without entropy =      -29.93642492  energy(sigma->0) =      -29.93642492


--------------------------------------------------------------------------------------------------------




--------------------------------------- Iteration      1(   9)  ---------------------------------------


    POTLOK:  cpu time      0.9928: real time      0.9931
    SETDIJ:  cpu time      4.8493: real time      4.8530
    TRIAL :  cpu time      0.3663: real time      0.3662
    CORREC:  cpu time      6.1250: real time      6.1287
    CHARGE:  cpu time      0.1180: real time      0.1179
    --------------------------------------------
      LOOP:  cpu time     12.4542: real time     12.4704

 eigenvalue-minimisations  :     0
 total energy-change (2. order) : 0.1327482E-01  (-0.9892314E-01)
 number of electron      44.0000013 magnetization 
 augmentation part       28.5529225 magnetization 

 Free energy of the ion-electron system (eV)
  ---------------------------------------------------
  alpha Z        PSCENC =         1.18414354
  Ewald energy   TEWEN  =      2311.80305605
  -Hartree energ DENC   =     -7402.38315668
  -exchange      EXHF   =         0.00000000
  -V(xc)+E(xc)   XCENC  =        77.77045552
  PAW double counting   =      5599.51332766    -5938.04981206
  entropy T*S    EENTRO =        -0.00000000
  eigenvalues    EBANDS =      -243.66938011
  atomic energy  EATOM  =      5563.90821598
  ---------------------------------------------------
  free energy    TOTEN  =       -29.92315010 eV

  energy without entropy =      -29.92315010  energy(sigma->0) =      -29.92315010


--------------------------------------------------------------------------------------------------------




--------------------------------------- Iteration      1(  10)  ---------------------------------------


    POTLOK:  cpu time      1.0161: real time      1.0161
    SETDIJ:  cpu time      4.8409: real time      4.8445
    TRIAL :  cpu time      0.3709: real time      0.3708
    CORREC:  cpu time      6.1657: real time      6.1697
    CHARGE:  cpu time      0.1192: real time      0.1192
    --------------------------------------------
      LOOP:  cpu time     12.5165: real time     12.5319

 eigenvalue-minimisations  :     0
 total energy-change (2. order) :-0.6259408E-01  (-0.1567604E+00)
 number of electron      44.0000013 magnetization 
 augmentation part       28.5358541 magnetization 

 Free energy of the ion-electron system (eV)
  ---------------------------------------------------
  alpha Z        PSCENC =         1.18414354
  Ewald energy   TEWEN  =      2311.80305605
  -Hartree energ DENC   =     -7400.59905931
  -exchange      EXHF   =         0.00000000
  -V(xc)+E(xc)   XCENC  =        77.81384425
  PAW double counting   =      5600.90980478    -5939.18519330
  entropy T*S    EENTRO =        -0.00000000
  eigenvalues    EBANDS =      -245.82055616
  atomic energy  EATOM  =      5563.90821598
  ---------------------------------------------------
  free energy    TOTEN  =       -29.98574418 eV

  energy without entropy =      -29.98574418  energy(sigma->0) =      -29.98574418


--------------------------------------------------------------------------------------------------------




--------------------------------------- Iteration      1(  11)  ---------------------------------------


    POTLOK:  cpu time      1.0070: real time      1.0075
    SETDIJ:  cpu time      4.8534: real time      4.8562
    TRIAL :  cpu time      0.3670: real time      0.3676
    CORREC:  cpu time      6.1410: real time      6.1451
    CHARGE:  cpu time      0.1175: real time      0.1175
    --------------------------------------------
      LOOP:  cpu time     12.4893: real time     12.5048

 eigenvalue-minimisations  :     0
 total energy-change (2. order) : 0.6249573E-01  (-0.6396340E-01)
 number of electron      44.0000013 magnetization 
 augmentation part       28.5441980 magnetization 

 Free energy of the ion-electron system (eV)
  ---------------------------------------------------
  alpha Z        PSCENC =         1.18414354
  Ewald energy   TEWEN  =      2311.80305605
  -Hartree energ DENC   =     -7396.44622516
  -exchange      EXHF   =         0.00000000
  -V(xc)+E(xc)   XCENC  =        77.89000223
  PAW double counting   =      5604.12670145    -5941.89296367
  entropy T*S    EENTRO =        -0.00000000
  eigenvalues    EBANDS =      -250.49617887
  atomic energy  EATOM  =      5563.90821598
  ---------------------------------------------------
  free energy    TOTEN  =       -29.92324844 eV

  energy without entropy =      -29.92324844  energy(sigma->0) =      -29.92324844


--------------------------------------------------------------------------------------------------------




--------------------------------------- Iteration      1(  12)  ---------------------------------------


    POTLOK:  cpu time      1.0029: real time      1.0032
    SETDIJ:  cpu time      4.8465: real time      4.8496
    TRIAL :  cpu time      0.3669: real time      0.3675
    CORREC:  cpu time      6.1329: real time      6.1369
    CHARGE:  cpu time      0.1175: real time      0.1175
    --------------------------------------------
      LOOP:  cpu time     12.4694: real time     12.4856

 eigenvalue-minimisations  :     0
 total energy-change (2. order) :-0.6260720E-01  (-0.3828355E-01)
 number of electron      44.0000013 magnetization 
 augmentation part       28.5532963 magnetization 

 Free energy of the ion-electron system (eV)
  ---------------------------------------------------
  alpha Z        PSCENC =         1.18414354
  Ewald energy   TEWEN  =      2311.80305605
  -Hartree energ DENC   =     -7397.08879280
  -exchange      EXHF   =         0.00000000
  -V(xc)+E(xc)   XCENC  =        77.89256723
  PAW double counting   =      5610.56021868    -5948.63888437
  entropy T*S    EENTRO =        -0.00000000
  eigenvalues    EBANDS =      -249.60637995
  atomic energy  EATOM  =      5563.90821598
  ---------------------------------------------------
  free energy    TOTEN  =       -29.98585564 eV

  energy without entropy =      -29.98585564  energy(sigma->0) =      -29.98585564


--------------------------------------------------------------------------------------------------------




--------------------------------------- Iteration      1(  13)  ---------------------------------------


    POTLOK:  cpu time      1.0079: real time      1.0083
    SETDIJ:  cpu time      4.8418: real time      4.8448
    TRIAL :  cpu time      0.3665: real time      0.3687
    CORREC:  cpu time      6.1661: real time      6.1694
    CHARGE:  cpu time      0.1170: real time      0.1178
    --------------------------------------------
      LOOP:  cpu time     12.5098: real time     12.5198

 eigenvalue-minimisations  :     0
 total energy-change (2. order) :-0.2537379E-01  (-0.4018500E-01)
 number of electron      44.0000013 magnetization 
 augmentation part       28.5655354 magnetization 

 Free energy of the ion-electron system (eV)
  ---------------------------------------------------
  alpha Z        PSCENC =         1.18414354
  Ewald energy   TEWEN  =      2311.80305605
  -Hartree energ DENC   =     -7398.24642095
  -exchange      EXHF   =         0.00000000
  -V(xc)+E(xc)   XCENC  =        77.89907755
  PAW double counting   =      5616.25438260    -5954.65978754
  entropy T*S    EENTRO =        -0.00000000
  eigenvalues    EBANDS =      -248.15389666
  atomic energy  EATOM  =      5563.90821598
  ---------------------------------------------------
  free energy    TOTEN  =       -30.01122943 eV

  energy without entropy =      -30.01122943  energy(sigma->0) =      -30.01122943


--------------------------------------------------------------------------------------------------------




--------------------------------------- Iteration      1(  14)  ---------------------------------------


    POTLOK:  cpu time      1.0182: real time      1.0187
    SETDIJ:  cpu time      4.8394: real time      4.8424
    TRIAL :  cpu time      0.3657: real time      0.3656
    CORREC:  cpu time      6.1487: real time      6.1530
    CHARGE:  cpu time      0.1172: real time      0.1172
    --------------------------------------------
      LOOP:  cpu time     12.4931: real time     12.5084

 eigenvalue-minimisations  :     0
 total energy-change (2. order) : 0.3627562E-01  (-0.8099285E-01)
 number of electron      44.0000013 magnetization 
 augmentation part       28.5595809 magnetization 

 Free energy of the ion-electron system (eV)
  ---------------------------------------------------
  alpha Z        PSCENC =         1.18414354
  Ewald energy   TEWEN  =      2311.80305605
  -Hartree energ DENC   =     -7399.75846040
  -exchange      EXHF   =         0.00000000
  -V(xc)+E(xc)   XCENC  =        77.91085710
  PAW double counting   =      5625.37999512    -5964.24689133
  entropy T*S    EENTRO =        -0.00000000
  eigenvalues    EBANDS =      -246.15586987
  atomic energy  EATOM  =      5563.90821598
  ---------------------------------------------------
  free energy    TOTEN  =       -29.97495381 eV

  energy without entropy =      -29.97495381  energy(sigma->0) =      -29.97495381


--------------------------------------------------------------------------------------------------------




--------------------------------------- Iteration      1(  15)  ---------------------------------------


    POTLOK:  cpu time      1.0112: real time      1.0125
    SETDIJ:  cpu time      4.8511: real time      4.8540
    TRIAL :  cpu time      0.3682: real time      0.3682
    CORREC:  cpu time      6.1556: real time      6.1597
    CHARGE:  cpu time      0.1193: real time      0.1193
    --------------------------------------------
      LOOP:  cpu time     12.5085: real time     12.5258

 eigenvalue-minimisations  :     0
 total energy-change (2. order) :-0.8154307E-01  (-0.5663780E-01)
 number of electron      44.0000013 magnetization 
 augmentation part       28.5524135 magnetization 

 Free energy of the ion-electron system (eV)
  ---------------------------------------------------
  alpha Z        PSCENC =         1.18414354
  Ewald energy   TEWEN  =      2311.80305605
  -Hartree energ DENC   =     -7398.99925165
  -exchange      EXHF   =         0.00000000
  -V(xc)+E(xc)   XCENC  =        77.97833401
  PAW double counting   =      5629.74808320    -5968.34606261
  entropy T*S    EENTRO =        -0.00000000
  eigenvalues    EBANDS =      -247.33301540
  atomic energy  EATOM  =      5563.90821598
  ---------------------------------------------------
  free energy    TOTEN  =       -30.05649687 eV

  energy without entropy =      -30.05649687  energy(sigma->0) =      -30.05649687


--------------------------------------------------------------------------------------------------------




--------------------------------------- Iteration      1(  16)  ---------------------------------------


    POTLOK:  cpu time      1.0057: real time      1.0061
    SETDIJ:  cpu time      4.8432: real time      4.8470
    TRIAL :  cpu time      0.3683: real time      0.3682
    CORREC:  cpu time      6.1384: real time      6.1421
    CHARGE:  cpu time      0.1177: real time      0.1177
    --------------------------------------------
      LOOP:  cpu time     12.4763: real time     12.4917

 eigenvalue-minimisations  :     0
 total energy-change (2. order) : 0.2194692E-02  (-0.1351828E+00)
 number of electron      44.0000013 magnetization 
 augmentation part       28.5522781 magnetization 

 Free energy of the ion-electron system (eV)
  ---------------------------------------------------
  alpha Z        PSCENC =         1.18414354
  Ewald energy   TEWEN  =      2311.80305605
  -Hartree energ DENC   =     -7397.88888329
  -exchange      EXHF   =         0.00000000
  -V(xc)+E(xc)   XCENC  =        78.03919101
  PAW double counting   =      5633.90717546    -5972.24530719
  entropy T*S    EENTRO =        -0.00000000
  eigenvalues    EBANDS =      -248.76189375
  atomic energy  EATOM  =      5563.90821598
  ---------------------------------------------------
  free energy    TOTEN  =       -30.05430218 eV

  energy without entropy =      -30.05430218  energy(sigma->0) =      -30.05430218


--------------------------------------------------------------------------------------------------------




--------------------------------------- Iteration      1(  17)  ---------------------------------------


    POTLOK:  cpu time      1.0201: real time      1.0203
    SETDIJ:  cpu time      4.8418: real time      4.8456
    TRIAL :  cpu time      0.3674: real time      0.3673
    CORREC:  cpu time      6.1447: real time      6.1485
    CHARGE:  cpu time      0.1215: real time      0.1214
    --------------------------------------------
      LOOP:  cpu time     12.4992: real time     12.5150

 eigenvalue-minimisations  :     0
 total energy-change (2. order) :-0.3463566E-01  (-0.1304748E+00)
 number of electron      44.0000013 magnetization 
 augmentation part       28.5515566 magnetization 

 Free energy of the ion-electron system (eV)
  ---------------------------------------------------
  alpha Z        PSCENC =         1.18414354
  Ewald energy   TEWEN  =      2311.80305605
  -Hartree energ DENC   =     -7398.13072897
  -exchange      EXHF   =         0.00000000
  -V(xc)+E(xc)   XCENC  =        78.04301576
  PAW double counting   =      5635.61370267    -5973.96098762
  entropy T*S    EENTRO =        -0.00000000
  eigenvalues    EBANDS =      -248.54935525
  atomic energy  EATOM  =      5563.90821598
  ---------------------------------------------------
  free energy    TOTEN  =       -30.08893784 eV

  energy without entropy =      -30.08893784  energy(sigma->0) =      -30.08893784


--------------------------------------------------------------------------------------------------------




--------------------------------------- Iteration      1(  18)  ---------------------------------------


    POTLOK:  cpu time      1.0233: real time      1.0237
    SETDIJ:  cpu time      4.8357: real time      4.8385
    TRIAL :  cpu time      0.3662: real time      0.3670
    CORREC:  cpu time      6.1384: real time      6.1423
    CHARGE:  cpu time      0.1246: real time      0.1246
    --------------------------------------------
      LOOP:  cpu time     12.4910: real time     12.5072

 eigenvalue-minimisations  :     0
 total energy-change (2. order) : 0.3029350E-01  (-0.3349667E-01)
 number of electron      44.0000013 magnetization 
 augmentation part       28.5533616 magnetization 

 Free energy of the ion-electron system (eV)
  ---------------------------------------------------
  alpha Z        PSCENC =         1.18414354
  Ewald energy   TEWEN  =      2311.80305605
  -Hartree energ DENC   =     -7398.56312797
  -exchange      EXHF   =         0.00000000
  -V(xc)+E(xc)   XCENC  =        78.04707979
  PAW double counting   =      5638.93584163    -5977.31119599
  entropy T*S    EENTRO =        -0.00000000
  eigenvalues    EBANDS =      -248.06265736
  atomic energy  EATOM  =      5563.90821598
  ---------------------------------------------------
  free energy    TOTEN  =       -30.05864433 eV

  energy without entropy =      -30.05864433  energy(sigma->0) =      -30.05864433


--------------------------------------------------------------------------------------------------------




--------------------------------------- Iteration      1(  19)  ---------------------------------------


    POTLOK:  cpu time      1.1315: real time      1.1317
    SETDIJ:  cpu time      4.8329: real time      4.8360
    TRIAL :  cpu time      0.3688: real time      0.3695
    CORREC:  cpu time      6.1715: real time      6.1755
    CHARGE:  cpu time      0.1244: real time      0.1244
    --------------------------------------------
      LOOP:  cpu time     12.6321: real time     12.6477

 eigenvalue-minimisations  :     0
 total energy-change (2. order) :-0.2405231E-01  (-0.8923950E-01)
 number of electron      44.0000013 magnetization 
 augmentation part       28.5583337 magnetization 

 Free energy of the ion-electron system (eV)
  ---------------------------------------------------
  alpha Z        PSCENC =         1.18414354
  Ewald energy   TEWEN  =      2311.80305605
  -Hartree energ DENC   =     -7398.83314781
  -exchange      EXHF   =         0.00000000
  -V(xc)+E(xc)   XCENC  =        78.05495035
  PAW double counting   =      5641.42056330    -5979.85489372
  entropy T*S    EENTRO =        -0.00000000
  eigenvalues    EBANDS =      -247.76558435
  atomic energy  EATOM  =      5563.90821598
  ---------------------------------------------------
  free energy    TOTEN  =       -30.08269665 eV

  energy without entropy =      -30.08269665  energy(sigma->0) =      -30.08269665


--------------------------------------------------------------------------------------------------------




--------------------------------------- Iteration      1(  20)  ---------------------------------------


    POTLOK:  cpu time      1.0225: real time      1.0228
    SETDIJ:  cpu time      4.8425: real time      4.8455
    TRIAL :  cpu time      0.3667: real time      0.3674
    CORREC:  cpu time      6.1403: real time      6.1434
    CHARGE:  cpu time      0.1175: real time      0.1174
    --------------------------------------------
      LOOP:  cpu time     12.4931: real time     12.5087

 eigenvalue-minimisations  :     0
 total energy-change (2. order) : 0.5288665E-01  (-0.2683492E-01)
 number of electron      44.0000013 magnetization 
 augmentation part       28.5609180 magnetization 

 Free energy of the ion-electron system (eV)
  ---------------------------------------------------
  alpha Z        PSCENC =         1.18414354
  Ewald energy   TEWEN  =      2311.80305605
  -Hartree energ DENC   =     -7399.36789754
  -exchange      EXHF   =         0.00000000
  -V(xc)+E(xc)   XCENC  =        78.05527049
  PAW double counting   =      5647.77136925    -5986.35335196
  entropy T*S    EENTRO =        -0.00000000
  eigenvalues    EBANDS =      -247.03061581
  atomic energy  EATOM  =      5563.90821598
  ---------------------------------------------------
  free energy    TOTEN  =       -30.02980999 eV

  energy without entropy =      -30.02980999  energy(sigma->0) =      -30.02980999


--------------------------------------------------------------------------------------------------------




--------------------------------------- Iteration      1(  21)  ---------------------------------------


    POTLOK:  cpu time      1.0220: real time      1.0224
    SETDIJ:  cpu time      4.8348: real time      4.8378
    TRIAL :  cpu time      0.3640: real time      0.3648
    CORREC:  cpu time      6.1470: real time      6.1499
    CHARGE:  cpu time      0.1204: real time      0.1203
    --------------------------------------------
      LOOP:  cpu time     12.4915: real time     12.5071

 eigenvalue-minimisations  :     0
 total energy-change (2. order) :-0.2574562E-01  (-0.4327347E-01)
 number of electron      44.0000013 magnetization 
 augmentation part       28.5633558 magnetization 

 Free energy of the ion-electron system (eV)
  ---------------------------------------------------
  alpha Z        PSCENC =         1.18414354
  Ewald energy   TEWEN  =      2311.80305605
  -Hartree energ DENC   =     -7399.50739080
  -exchange      EXHF   =         0.00000000
  -V(xc)+E(xc)   XCENC  =        78.06863540
  PAW double counting   =      5651.92401893    -5990.55324523
  entropy T*S    EENTRO =        -0.00000000
  eigenvalues    EBANDS =      -246.88298948
  atomic energy  EATOM  =      5563.90821598
  ---------------------------------------------------
  free energy    TOTEN  =       -30.05555561 eV

  energy without entropy =      -30.05555561  energy(sigma->0) =      -30.05555561


--------------------------------------------------------------------------------------------------------




--------------------------------------- Iteration      1(  22)  ---------------------------------------


    POTLOK:  cpu time      1.0303: real time      1.0314
    SETDIJ:  cpu time      4.8407: real time      4.8438
    TRIAL :  cpu time      0.3673: real time      0.3672
    CORREC:  cpu time      6.1481: real time      6.1520
    CHARGE:  cpu time      0.1286: real time      0.1286
    --------------------------------------------
      LOOP:  cpu time     12.5218: real time     12.5404

 eigenvalue-minimisations  :     0
 total energy-change (2. order) :-0.1022406E-01  (-0.2049177E-01)
 number of electron      44.0000013 magnetization 
 augmentation part       28.5633135 magnetization 

 Free energy of the ion-electron system (eV)
  ---------------------------------------------------
  alpha Z        PSCENC =         1.18414354
  Ewald energy   TEWEN  =      2311.80305605
  -Hartree energ DENC   =     -7399.41672990
  -exchange      EXHF   =         0.00000000
  -V(xc)+E(xc)   XCENC  =        78.08557377
  PAW double counting   =      5657.98340316    -5996.64004519
  entropy T*S    EENTRO =        -0.00000000
  eigenvalues    EBANDS =      -246.97339707
  atomic energy  EATOM  =      5563.90821598
  ---------------------------------------------------
  free energy    TOTEN  =       -30.06577967 eV

  energy without entropy =      -30.06577967  energy(sigma->0) =      -30.06577967


--------------------------------------------------------------------------------------------------------




--------------------------------------- Iteration      1(  23)  ---------------------------------------


    POTLOK:  cpu time      1.0340: real time      1.0349
    SETDIJ:  cpu time      4.8409: real time      4.8440
    TRIAL :  cpu time      0.3647: real time      0.3646
    CORREC:  cpu time      6.1532: real time      6.1571
    CHARGE:  cpu time      0.1190: real time      0.1190
    --------------------------------------------
      LOOP:  cpu time     12.5157: real time     12.5311

 eigenvalue-minimisations  :     0
 total energy-change (2. order) :-0.1314105E-01  (-0.2501781E-01)
 number of electron      44.0000013 magnetization 
 augmentation part       28.5619700 magnetization 

 Free energy of the ion-electron system (eV)
  ---------------------------------------------------
  alpha Z        PSCENC =         1.18414354
  Ewald energy   TEWEN  =      2311.80305605
  -Hartree energ DENC   =     -7399.15857234
  -exchange      EXHF   =         0.00000000
  -V(xc)+E(xc)   XCENC  =        78.10244519
  PAW double counting   =      5662.44063468    -6001.07164155
  entropy T*S    EENTRO =        -0.00000000
  eigenvalues    EBANDS =      -247.28720227
  atomic energy  EATOM  =      5563.90821598
  ---------------------------------------------------
  free energy    TOTEN  =       -30.07892072 eV

  energy without entropy =      -30.07892072  energy(sigma->0) =      -30.07892072


--------------------------------------------------------------------------------------------------------




--------------------------------------- Iteration      1(  24)  ---------------------------------------


    POTLOK:  cpu time      1.0272: real time      1.0272
    SETDIJ:  cpu time      4.8302: real time      4.8340
    TRIAL :  cpu time      0.3641: real time      0.3640
    CORREC:  cpu time      6.1712: real time      6.1752
    CHARGE:  cpu time      0.1184: real time      0.1184
    --------------------------------------------
      LOOP:  cpu time     12.5134: real time     12.5296

 eigenvalue-minimisations  :     0
 total energy-change (2. order) :-0.6228888E-02  (-0.1925733E-01)
 number of electron      44.0000013 magnetization 
 augmentation part       28.5596776 magnetization 

 Free energy of the ion-electron system (eV)
  ---------------------------------------------------
  alpha Z        PSCENC =         1.18414354
  Ewald energy   TEWEN  =      2311.80305605
  -Hartree energ DENC   =     -7398.77442581
  -exchange      EXHF   =         0.00000000
  -V(xc)+E(xc)   XCENC  =        78.12123207
  PAW double counting   =      5667.30344454    -6005.87671860
  entropy T*S    EENTRO =        -0.00000000
  eigenvalues    EBANDS =      -247.75409739
  atomic energy  EATOM  =      5563.90821598
  ---------------------------------------------------
  free energy    TOTEN  =       -30.08514961 eV

  energy without entropy =      -30.08514961  energy(sigma->0) =      -30.08514961


--------------------------------------------------------------------------------------------------------




--------------------------------------- Iteration      1(  25)  ---------------------------------------


    POTLOK:  cpu time      1.0248: real time      1.0251
    SETDIJ:  cpu time      4.8550: real time      4.8586
    TRIAL :  cpu time      0.3666: real time      0.3665
    CORREC:  cpu time      6.1792: real time      6.1833
    CHARGE:  cpu time      0.1200: real time      0.1200
    --------------------------------------------
      LOOP:  cpu time     12.5492: real time     12.5653

 eigenvalue-minimisations  :     0
 total energy-change (2. order) : 0.2298412E-01  (-0.1215135E-01)
 number of electron      44.0000013 magnetization 
 augmentation part       28.5576872 magnetization 

 Free energy of the ion-electron system (eV)
  ---------------------------------------------------
  alpha Z        PSCENC =         1.18414354
  Ewald energy   TEWEN  =      2311.80305605
  -Hartree energ DENC   =     -7398.30486077
  -exchange      EXHF   =         0.00000000
  -V(xc)+E(xc)   XCENC  =        78.13879262
  PAW double counting   =      5672.74800063    -6011.24050963
  entropy T*S    EENTRO =        -0.00000000
  eigenvalues    EBANDS =      -248.29900391
  atomic energy  EATOM  =      5563.90821598
  ---------------------------------------------------
  free energy    TOTEN  =       -30.06216549 eV

  energy without entropy =      -30.06216549  energy(sigma->0) =      -30.06216549


--------------------------------------------------------------------------------------------------------




--------------------------------------- Iteration      1(  26)  ---------------------------------------


    POTLOK:  cpu time      1.0328: real time      1.0331
    SETDIJ:  cpu time      4.8400: real time      4.8437
    TRIAL :  cpu time      0.3670: real time      0.3669
    CORREC:  cpu time      6.1669: real time      6.1709
    CHARGE:  cpu time      0.1183: real time      0.1183
    --------------------------------------------
      LOOP:  cpu time     12.5286: real time     12.5442

 eigenvalue-minimisations  :     0
 total energy-change (2. order) : 0.1373607E-02  (-0.2242169E-01)
 number of electron      44.0000013 magnetization 
 augmentation part       28.5550744 magnetization 

 Free energy of the ion-electron system (eV)
  ---------------------------------------------------
  alpha Z        PSCENC =         1.18414354
  Ewald energy   TEWEN  =      2311.80305605
  -Hartree energ DENC   =     -7398.02527449
  -exchange      EXHF   =         0.00000000
  -V(xc)+E(xc)   XCENC  =        78.15211915
  PAW double counting   =      5676.45618609    -6014.88795454
  entropy T*S    EENTRO =        -0.00000000
  eigenvalues    EBANDS =      -248.65128368
  atomic energy  EATOM  =      5563.90821598
  ---------------------------------------------------
  free energy    TOTEN  =       -30.06079188 eV

  energy without entropy =      -30.06079188  energy(sigma->0) =      -30.06079188


--------------------------------------------------------------------------------------------------------




--------------------------------------- Iteration      1(  27)  ---------------------------------------


    POTLOK:  cpu time      1.0404: real time      1.0408
    SETDIJ:  cpu time      4.8520: real time      4.8548
    TRIAL :  cpu time      0.3656: real time      0.3663
    CORREC:  cpu time      6.1904: real time      6.1944
    CHARGE:  cpu time      0.1199: real time      0.1199
    --------------------------------------------
      LOOP:  cpu time     12.5711: real time     12.5873

 eigenvalue-minimisations  :     0
 total energy-change (2. order) : 0.5609615E-02  (-0.1763133E-01)
 number of electron      44.0000013 magnetization 
 augmentation part       28.5527218 magnetization 

 Free energy of the ion-electron system (eV)
  ---------------------------------------------------
  alpha Z        PSCENC =         1.18414354
  Ewald energy   TEWEN  =      2311.80305605
  -Hartree energ DENC   =     -7397.72309800
  -exchange      EXHF   =         0.00000000
  -V(xc)+E(xc)   XCENC  =        78.16617763
  PAW double counting   =      5681.00985094    -6019.36834636
  entropy T*S    EENTRO =        -0.00000000
  eigenvalues    EBANDS =      -249.03518204
  atomic energy  EATOM  =      5563.90821598
  ---------------------------------------------------
  free energy    TOTEN  =       -30.05518227 eV

  energy without entropy =      -30.05518227  energy(sigma->0) =      -30.05518227


--------------------------------------------------------------------------------------------------------




--------------------------------------- Iteration      1(  28)  ---------------------------------------


    POTLOK:  cpu time      1.0464: real time      1.0465
    SETDIJ:  cpu time      4.8486: real time      4.8515
    TRIAL :  cpu time      0.3653: real time      0.3661
    CORREC:  cpu time      6.1765: real time      6.1805
    CHARGE:  cpu time      0.1184: real time      0.1184
    --------------------------------------------
      LOOP:  cpu time     12.5590: real time     12.5743

 eigenvalue-minimisations  :     0
 total energy-change (2. order) : 0.1776541E-01  (-0.1475349E-01)
 number of electron      44.0000013 magnetization 
 augmentation part       28.5513760 magnetization 

 Free energy of the ion-electron system (eV)
  ---------------------------------------------------
  alpha Z        PSCENC =         1.18414354
  Ewald energy   TEWEN  =      2311.80305605
  -Hartree energ DENC   =     -7397.47814501
  -exchange      EXHF   =         0.00000000
  -V(xc)+E(xc)   XCENC  =        78.17645287
  PAW double counting   =      5685.32235144    -6023.61926764
  entropy T*S    EENTRO =        -0.00000000
  eigenvalues    EBANDS =      -249.33422410
  atomic energy  EATOM  =      5563.90821598
  ---------------------------------------------------
  free energy    TOTEN  =       -30.03741686 eV

  energy without entropy =      -30.03741686  energy(sigma->0) =      -30.03741686


--------------------------------------------------------------------------------------------------------




--------------------------------------- Iteration      1(  29)  ---------------------------------------


    POTLOK:  cpu time      1.0421: real time      1.0422
    SETDIJ:  cpu time      4.8531: real time      4.8560
    TRIAL :  cpu time      0.3687: real time      0.3693
    CORREC:  cpu time      6.2837: real time      6.2878
    CHARGE:  cpu time      0.1253: real time      0.1253
    --------------------------------------------
      LOOP:  cpu time     12.6760: real time     12.6914

 eigenvalue-minimisations  :     0
 total energy-change (2. order) : 0.4768192E-02  (-0.1978562E-01)
 number of electron      44.0000013 magnetization 
 augmentation part       28.5503809 magnetization 

 Free energy of the ion-electron system (eV)
  ---------------------------------------------------
  alpha Z        PSCENC =         1.18414354
  Ewald energy   TEWEN  =      2311.80305605
  -Hartree energ DENC   =     -7397.36508803
  -exchange      EXHF   =         0.00000000
  -V(xc)+E(xc)   XCENC  =        78.18411621
  PAW double counting   =      5688.77589428    -6027.04021657
  entropy T*S    EENTRO =        -0.00000000
  eigenvalues    EBANDS =      -249.48277012
  atomic energy  EATOM  =      5563.90821598
  ---------------------------------------------------
  free energy    TOTEN  =       -30.03264867 eV

  energy without entropy =      -30.03264867  energy(sigma->0) =      -30.03264867


--------------------------------------------------------------------------------------------------------




--------------------------------------- Iteration      1(  30)  ---------------------------------------


    POTLOK:  cpu time      1.0551: real time      1.0554
    SETDIJ:  cpu time      4.8436: real time      4.8466
    TRIAL :  cpu time      0.3717: real time      0.3725
    CORREC:  cpu time      6.1906: real time      6.1948
    CHARGE:  cpu time      0.1188: real time      0.1188
    --------------------------------------------
      LOOP:  cpu time     12.5836: real time     12.6001

 eigenvalue-minimisations  :     0
 total energy-change (2. order) : 0.1574696E-01  (-0.1500636E-01)
 number of electron      44.0000013 magnetization 
 augmentation part       28.5503267 magnetization 

 Free energy of the ion-electron system (eV)
  ---------------------------------------------------
  alpha Z        PSCENC =         1.18414354
  Ewald energy   TEWEN  =      2311.80305605
  -Hartree energ DENC   =     -7397.30890504
  -exchange      EXHF   =         0.00000000
  -V(xc)+E(xc)   XCENC  =        78.19082277
  PAW double counting   =      5692.86732993    -6031.11078703
  entropy T*S    EENTRO =        -0.00000000
  eigenvalues    EBANDS =      -249.55077790
  atomic energy  EATOM  =      5563.90821598
  ---------------------------------------------------
  free energy    TOTEN  =       -30.01690171 eV

  energy without entropy =      -30.01690171  energy(sigma->0) =      -30.01690171


--------------------------------------------------------------------------------------------------------




--------------------------------------- Iteration      1(  31)  ---------------------------------------


    POTLOK:  cpu time      1.0489: real time      1.0492
    SETDIJ:  cpu time      4.8466: real time      4.8496
    TRIAL :  cpu time      0.3688: real time      0.3695
    CORREC:  cpu time      6.1817: real time      6.1854
    CHARGE:  cpu time      0.1195: real time      0.1194
    --------------------------------------------
      LOOP:  cpu time     12.5710: real time     12.5861

 eigenvalue-minimisations  :     0
 total energy-change (2. order) : 0.9947895E-02  (-0.2120797E-01)
 number of electron      44.0000013 magnetization 
 augmentation part       28.5522608 magnetization 

 Free energy of the ion-electron system (eV)
  ---------------------------------------------------
  alpha Z        PSCENC =         1.18414354
  Ewald energy   TEWEN  =      2311.80305605
  -Hartree energ DENC   =     -7397.35271129
  -exchange      EXHF   =         0.00000000
  -V(xc)+E(xc)   XCENC  =        78.19558136
  PAW double counting   =      5696.41961584    -6034.66550641
  entropy T*S    EENTRO =        -0.00000000
  eigenvalues    EBANDS =      -249.49934890
  atomic energy  EATOM  =      5563.90821598
  ---------------------------------------------------
  free energy    TOTEN  =       -30.00695382 eV

  energy without entropy =      -30.00695382  energy(sigma->0) =      -30.00695382


--------------------------------------------------------------------------------------------------------




--------------------------------------- Iteration      1(  32)  ---------------------------------------


    POTLOK:  cpu time      1.0598: real time      1.0602
    SETDIJ:  cpu time      4.8468: real time      4.8497
    TRIAL :  cpu time      0.3665: real time      0.3672
    CORREC:  cpu time      6.1846: real time      6.1885
    CHARGE:  cpu time      0.1198: real time      0.1197
    --------------------------------------------
      LOOP:  cpu time     12.5824: real time     12.5976

 eigenvalue-minimisations  :     0
 total energy-change (2. order) :-0.1322629E-01  (-0.2969703E-01)
 number of electron      44.0000013 magnetization 
 augmentation part       28.5558996 magnetization 

 Free energy of the ion-electron system (eV)
  ---------------------------------------------------
  alpha Z        PSCENC =         1.18414354
  Ewald energy   TEWEN  =      2311.80305605
  -Hartree energ DENC   =     -7397.58809130
  -exchange      EXHF   =         0.00000000
  -V(xc)+E(xc)   XCENC  =        78.19836535
  PAW double counting   =      5696.86740967    -6035.15761443
  entropy T*S    EENTRO =        -0.00000000
  eigenvalues    EBANDS =      -249.23566497
  atomic energy  EATOM  =      5563.90821598
  ---------------------------------------------------
  free energy    TOTEN  =       -30.02018011 eV

  energy without entropy =      -30.02018011  energy(sigma->0) =      -30.02018011


--------------------------------------------------------------------------------------------------------




--------------------------------------- Iteration      1(  33)  ---------------------------------------


    POTLOK:  cpu time      1.0483: real time      1.0487
    SETDIJ:  cpu time      4.8436: real time      4.8466
    TRIAL :  cpu time      0.3688: real time      0.3695
    CORREC:  cpu time      6.1855: real time      6.1886
    CHARGE:  cpu time      0.1199: real time      0.1208
    --------------------------------------------
      LOOP:  cpu time     12.5701: real time     12.5867

 eigenvalue-minimisations  :     0
 total energy-change (2. order) :-0.2464516E-01  (-0.3772212E-01)
 number of electron      44.0000013 magnetization 
 augmentation part       28.5614019 magnetization 

 Free energy of the ion-electron system (eV)
  ---------------------------------------------------
  alpha Z        PSCENC =         1.18414354
  Ewald energy   TEWEN  =      2311.80305605
  -Hartree energ DENC   =     -7398.02247369
  -exchange      EXHF   =         0.00000000
  -V(xc)+E(xc)   XCENC  =        78.19825156
  PAW double counting   =      5697.78020986    -6036.15430998
  entropy T*S    EENTRO =        -0.00000000
  eigenvalues    EBANDS =      -248.74191859
  atomic energy  EATOM  =      5563.90821598
  ---------------------------------------------------
  free energy    TOTEN  =       -30.04482526 eV

  energy without entropy =      -30.04482526  energy(sigma->0) =      -30.04482526


--------------------------------------------------------------------------------------------------------




--------------------------------------- Iteration      1(  34)  ---------------------------------------


    POTLOK:  cpu time      1.0439: real time      1.0442
    SETDIJ:  cpu time      4.8496: real time      4.8527
    TRIAL :  cpu time      0.3683: real time      0.3689
    CORREC:  cpu time      6.2079: real time      6.2112
    CHARGE:  cpu time      0.1301: real time      0.1309
    --------------------------------------------
      LOOP:  cpu time     12.6037: real time     12.6191

 eigenvalue-minimisations  :     0
 total energy-change (2. order) :-0.2360931E-01  (-0.1649210E-01)
 number of electron      44.0000013 magnetization 
 augmentation part       28.5658667 magnetization 

 Free energy of the ion-electron system (eV)
  ---------------------------------------------------
  alpha Z        PSCENC =         1.18414354
  Ewald energy   TEWEN  =      2311.80305605
  -Hartree energ DENC   =     -7398.67334864
  -exchange      EXHF   =         0.00000000
  -V(xc)+E(xc)   XCENC  =        78.19435141
  PAW double counting   =      5699.32707186    -6037.83024591
  entropy T*S    EENTRO =        -0.00000000
  eigenvalues    EBANDS =      -247.98167886
  atomic energy  EATOM  =      5563.90821598
  ---------------------------------------------------
  free energy    TOTEN  =       -30.06843457 eV

  energy without entropy =      -30.06843457  energy(sigma->0) =      -30.06843457


--------------------------------------------------------------------------------------------------------




--------------------------------------- Iteration      1(  35)  ---------------------------------------


    POTLOK:  cpu time      1.0563: real time      1.0567
    SETDIJ:  cpu time      4.8533: real time      4.8564
    TRIAL :  cpu time      0.3741: real time      0.3747
    CORREC:  cpu time      6.1778: real time      6.1808
    CHARGE:  cpu time      0.1235: real time      0.1242
    --------------------------------------------
      LOOP:  cpu time     12.5895: real time     12.6049

 eigenvalue-minimisations  :     0
 total energy-change (2. order) :-0.1344358E-01  (-0.2182689E-01)
 number of electron      44.0000013 magnetization 
 augmentation part       28.5689465 magnetization 

 Free energy of the ion-electron system (eV)
  ---------------------------------------------------
  alpha Z        PSCENC =         1.18414354
  Ewald energy   TEWEN  =      2311.80305605
  -Hartree energ DENC   =     -7399.19864202
  -exchange      EXHF   =         0.00000000
  -V(xc)+E(xc)   XCENC  =        78.19105291
  PAW double counting   =      5700.88640762    -6039.49713385
  entropy T*S    EENTRO =        -0.00000000
  eigenvalues    EBANDS =      -247.35897839
  atomic energy  EATOM  =      5563.90821598
  ---------------------------------------------------
  free energy    TOTEN  =       -30.08187816 eV

  energy without entropy =      -30.08187816  energy(sigma->0) =      -30.08187816


--------------------------------------------------------------------------------------------------------




--------------------------------------- Iteration      1(  36)  ---------------------------------------


    POTLOK:  cpu time      1.0454: real time      1.0457
    SETDIJ:  cpu time      4.8443: real time      4.8473
    TRIAL :  cpu time      0.3679: real time      0.3678
    CORREC:  cpu time      6.1827: real time      6.1866
    CHARGE:  cpu time      0.1219: real time      0.1219
    --------------------------------------------
      LOOP:  cpu time     12.5649: real time     12.5805

 eigenvalue-minimisations  :     0
 total energy-change (2. order) :-0.1502402E-01  (-0.2157483E-01)
 number of electron      44.0000013 magnetization 
 augmentation part       28.5713093 magnetization 

 Free energy of the ion-electron system (eV)
  ---------------------------------------------------
  alpha Z        PSCENC =         1.18414354
  Ewald energy   TEWEN  =      2311.80305605
  -Hartree energ DENC   =     -7399.55964765
  -exchange      EXHF   =         0.00000000
  -V(xc)+E(xc)   XCENC  =        78.18892629
  PAW double counting   =      5702.35715931    -6041.04476322
  entropy T*S    EENTRO =        -0.00000000
  eigenvalues    EBANDS =      -246.93399248
  atomic energy  EATOM  =      5563.90821598
  ---------------------------------------------------
  free energy    TOTEN  =       -30.09690217 eV

  energy without entropy =      -30.09690217  energy(sigma->0) =      -30.09690217


--------------------------------------------------------------------------------------------------------




--------------------------------------- Iteration      1(  37)  ---------------------------------------


    POTLOK:  cpu time      1.0539: real time      1.0551
    SETDIJ:  cpu time      4.8427: real time      4.8458
    TRIAL :  cpu time      0.3674: real time      0.3672
    CORREC:  cpu time      6.1914: real time      6.1954
    CHARGE:  cpu time      0.1178: real time      0.1177
    --------------------------------------------
      LOOP:  cpu time     12.5767: real time     12.5925

 eigenvalue-minimisations  :     0
 total energy-change (2. order) :-0.6377654E-02  (-0.1775070E-01)
 number of electron      44.0000013 magnetization 
 augmentation part       28.5724520 magnetization 

 Free energy of the ion-electron system (eV)
  ---------------------------------------------------
  alpha Z        PSCENC =         1.18414354
  Ewald energy   TEWEN  =      2311.80305605
  -Hartree energ DENC   =     -7399.84174201
  -exchange      EXHF   =         0.00000000
  -V(xc)+E(xc)   XCENC  =        78.18536667
  PAW double counting   =      5703.92964205    -6042.67954592
  entropy T*S    EENTRO =        -0.00000000
  eigenvalues    EBANDS =      -246.59241619
  atomic energy  EATOM  =      5563.90821598
  ---------------------------------------------------
  free energy    TOTEN  =       -30.10327983 eV

  energy without entropy =      -30.10327983  energy(sigma->0) =      -30.10327983


--------------------------------------------------------------------------------------------------------




--------------------------------------- Iteration      1(  38)  ---------------------------------------


    POTLOK:  cpu time      1.0545: real time      1.0555
    SETDIJ:  cpu time      4.8373: real time      4.8403
    TRIAL :  cpu time      0.3657: real time      0.3655
    CORREC:  cpu time      6.1806: real time      6.1843
    CHARGE:  cpu time      0.1178: real time      0.1178
    --------------------------------------------
      LOOP:  cpu time     12.5588: real time     12.5740

 eigenvalue-minimisations  :     0
 total energy-change (2. order) :-0.5320516E-02  (-0.1499307E-01)
 number of electron      44.0000013 magnetization 
[...]


    POTLOK:  cpu time      1.0511: real time      1.0511
    SETDIJ:  cpu time      4.3756: real time      4.3788
    TRIAL :  cpu time      0.3668: real time      0.3668
    CORREC:  cpu time      5.6874: real time      5.6907
    CHARGE:  cpu time      0.1153: real time      0.1153
    --------------------------------------------
      LOOP:  cpu time     11.5988: real time     11.6053

 eigenvalue-minimisations  :     0
 total energy-change (2. order) : 0.1261837E-04  (-0.1298609E-08)
 number of electron      44.0000013 magnetization 
 augmentation part       28.5622024 magnetization 

 Free energy of the ion-electron system (eV)
  ---------------------------------------------------
  alpha Z        PSCENC =         1.18414354
  Ewald energy   TEWEN  =      2311.80305605
  -Hartree energ DENC   =     -7398.35223151
  -exchange      EXHF   =         0.00000000
  -V(xc)+E(xc)   XCENC  =        78.23752946
  PAW double counting   =      5717.96636045    -6056.56212533
  entropy T*S    EENTRO =        -0.00000000
  eigenvalues    EBANDS =      -248.35253974
  atomic energy  EATOM  =      5563.90821598
  ---------------------------------------------------
  free energy    TOTEN  =       -30.16759110 eV

  energy without entropy =      -30.16759110  energy(sigma->0) =      -30.16759110


--------------------------------------------------------------------------------------------------------




--------------------------------------- Iteration      1( 708)  ---------------------------------------


    POTLOK:  cpu time      1.0566: real time      1.0578
    SETDIJ:  cpu time      4.3734: real time      4.3757
    TRIAL :  cpu time      0.3597: real time      0.3605
    CORREC:  cpu time      5.6505: real time      5.6539
    CHARGE:  cpu time      0.1150: real time      0.1150
    --------------------------------------------
      LOOP:  cpu time     11.5574: real time     11.5651

 eigenvalue-minimisations  :     0
 total energy-change (2. order) : 0.5115459E-04  ( 0.6807122E-09)
 number of electron      44.0000013 magnetization 
 augmentation part       28.5622024 magnetization 

 Free energy of the ion-electron system (eV)
  ---------------------------------------------------
  alpha Z        PSCENC =         1.18414354
  Ewald energy   TEWEN  =      2311.80305605
  -Hartree energ DENC   =     -7398.35223151
  -exchange      EXHF   =         0.00000000
  -V(xc)+E(xc)   XCENC  =        78.23759311
  PAW double counting   =      5717.96636047    -6056.56212535
  entropy T*S    EENTRO =        -0.00000000
  eigenvalues    EBANDS =      -248.35255224
  atomic energy  EATOM  =      5563.90821598
  ---------------------------------------------------
  free energy    TOTEN  =       -30.16753994 eV

  energy without entropy =      -30.16753994  energy(sigma->0) =      -30.16753994


--------------------------------------------------------------------------------------------------------




--------------------------------------- Iteration      1( 709)  ---------------------------------------


    POTLOK:  cpu time      1.0610: real time      1.0612
    SETDIJ:  cpu time      4.3811: real time      4.3841
    TRIAL :  cpu time      0.3670: real time      0.3677
    CORREC:  cpu time      5.6922: real time      5.6957
    CHARGE:  cpu time      0.1156: real time      0.1156
    --------------------------------------------
      LOOP:  cpu time     11.6186: real time     11.6259

 eigenvalue-minimisations  :     0
 total energy-change (2. order) :-0.6987927E-04  (-0.6987226E-09)
 number of electron      44.0000013 magnetization 
 augmentation part       28.5622024 magnetization 

 Free energy of the ion-electron system (eV)
  ---------------------------------------------------
  alpha Z        PSCENC =         1.18414354
  Ewald energy   TEWEN  =      2311.80305605
  -Hartree energ DENC   =     -7398.35223095
  -exchange      EXHF   =         0.00000000
  -V(xc)+E(xc)   XCENC  =        78.23755077
  PAW double counting   =      5717.96636368    -6056.56212849
  entropy T*S    EENTRO =        -0.00000000
  eigenvalues    EBANDS =      -248.35258040
  atomic energy  EATOM  =      5563.90821598
  ---------------------------------------------------
  free energy    TOTEN  =       -30.16760982 eV

  energy without entropy =      -30.16760982  energy(sigma->0) =      -30.16760982


--------------------------------------------------------------------------------------------------------




--------------------------------------- Iteration      1( 710)  ---------------------------------------


    POTLOK:  cpu time      1.0529: real time      1.0531
    SETDIJ:  cpu time      4.3504: real time      4.3534
    TRIAL :  cpu time      0.3633: real time      0.3631
    CORREC:  cpu time      5.6901: real time      5.6940
    CHARGE:  cpu time      0.1216: real time      0.1216
    --------------------------------------------
      LOOP:  cpu time     11.5809: real time     11.5879

 eigenvalue-minimisations  :     0
 total energy-change (2. order) : 0.7447692E-05  (-0.7653509E-09)
 number of electron      44.0000013 magnetization 
 augmentation part       28.5622024 magnetization 

 Free energy of the ion-electron system (eV)
  ---------------------------------------------------
  alpha Z        PSCENC =         1.18414354
  Ewald energy   TEWEN  =      2311.80305605
  -Hartree energ DENC   =     -7398.35223095
  -exchange      EXHF   =         0.00000000
  -V(xc)+E(xc)   XCENC  =        78.23754777
  PAW double counting   =      5717.96636369    -6056.56212850
  entropy T*S    EENTRO =        -0.00000000
  eigenvalues    EBANDS =      -248.35256996
  atomic energy  EATOM  =      5563.90821598
  ---------------------------------------------------
  free energy    TOTEN  =       -30.16760237 eV

  energy without entropy =      -30.16760237  energy(sigma->0) =      -30.16760237


--------------------------------------------------------------------------------------------------------




--------------------------------------- Iteration      1( 711)  ---------------------------------------


    POTLOK:  cpu time      1.0708: real time      1.0710
    SETDIJ:  cpu time      4.3623: real time      4.3654
    TRIAL :  cpu time      0.3600: real time      0.3599
    CORREC:  cpu time      5.6830: real time      5.6870
    CHARGE:  cpu time      0.1235: real time      0.1235
    --------------------------------------------
      LOOP:  cpu time     11.6016: real time     11.6086

 eigenvalue-minimisations  :     0
 total energy-change (2. order) :-0.7450608E-05  (-0.4852190E-09)
 number of electron      44.0000013 magnetization 
 augmentation part       28.5622024 magnetization 

 Free energy of the ion-electron system (eV)
  ---------------------------------------------------
  alpha Z        PSCENC =         1.18414354
  Ewald energy   TEWEN  =      2311.80305605
  -Hartree energ DENC   =     -7398.35223094
  -exchange      EXHF   =         0.00000000
  -V(xc)+E(xc)   XCENC  =        78.23755077
  PAW double counting   =      5717.96636370    -6056.56212851
  entropy T*S    EENTRO =        -0.00000000
  eigenvalues    EBANDS =      -248.35258041
  atomic energy  EATOM  =      5563.90821598
  ---------------------------------------------------
  free energy    TOTEN  =       -30.16760982 eV

  energy without entropy =      -30.16760982  energy(sigma->0) =      -30.16760982


--------------------------------------------------------------------------------------------------------




--------------------------------------- Iteration      1( 712)  ---------------------------------------


    POTLOK:  cpu time      1.0489: real time      1.0493
    SETDIJ:  cpu time      4.3710: real time      4.3740
    TRIAL :  cpu time      0.3624: real time      0.3624
    CORREC:  cpu time      5.7237: real time      5.7265
    EDDIAG:  cpu time      0.1509: real time      0.1518
    CHARGE:  cpu time      0.1174: real time      0.1174
    --------------------------------------------
      LOOP:  cpu time     11.7760: real time     11.7830

 eigenvalue-minimisations  :     0
 total energy-change (2. order) :-0.9995347E-09  (-0.4671918E-09)
 number of electron      44.0000013 magnetization 
 augmentation part       28.5622024 magnetization 

 Free energy of the ion-electron system (eV)
  ---------------------------------------------------
  alpha Z        PSCENC =         1.18414354
  Ewald energy   TEWEN  =      2311.80305605
  -Hartree energ DENC   =     -7398.35223094
  -exchange      EXHF   =         0.00000000
  -V(xc)+E(xc)   XCENC  =        78.23755077
  PAW double counting   =      5717.96636371    -6056.56212851
  entropy T*S    EENTRO =        -0.00000000
  eigenvalues    EBANDS =      -248.35258041
  atomic energy  EATOM  =      5563.90821598
  ---------------------------------------------------
  free energy    TOTEN  =       -30.16760982 eV

  energy without entropy =      -30.16760982  energy(sigma->0) =      -30.16760982


--------------------------------------------------------------------------------------------------------


  average scaling for gradient   0.0110


 average (electrostatic) potential at core
  the test charge radii are     0.9430
  (the norm of the test charge is              1.0000)
       1 -79.9590       2 -79.3798       3 -79.3873       4 -79.9580
 
 
 
 E-fermi :  -3.4917     XC(G=0):  -0.9257     alpha+bet : -0.0642

 Fermi energy:        -3.4916653655

 k-point     1 :       0.0000    0.0000    0.0000
  band No.  band energies     occupation 
      1      -8.0416      2.00000
      2      -6.9576      2.00000
      3      -6.5894      2.00000
      4      -6.5157      2.00000
      5      -6.2691      2.00000
      6      -6.1515      2.00000
      7      -6.0563      2.00000
      8      -6.0050      2.00000
      9      -5.6718      2.00000
     10      -5.5221      2.00000
     11      -5.4405      2.00000
     12      -5.2799      2.00000
     13      -5.2652      2.00000
     14      -5.1873      2.00000
     15      -5.1016      2.00000
     16      -5.0861      2.00000
     17      -5.0144      2.00000
     18      -4.9920      2.00000
     19      -4.9816      2.00000
     20      -4.8873      2.00000
     21      -4.8434      2.00000
     22      -4.3166      2.00000
     23      -3.6467      0.00000
     24      -3.2419      0.00000
     25      -2.8012      0.00000
     26       0.6305      0.00000
     27      12.0445      0.00000
     28      22.6000      0.00000
     29      55.4409      0.00000
     30      68.5539      0.00000
     31      87.5062      0.00000
     32     109.1250      0.00000


--------------------------------------------------------------------------------------------------------


 soft charge-density along one line, spin component           1
         0         1         2         3         4         5         6         7         8         9
 total charge-density along one line
 
 pseudopotential strength for first ion, spin component:           1
 -9.586   0.001   0.001  -0.043   0.000   0.974  -0.001  -0.000
  0.001  -9.626  -0.022  -0.000   0.040  -0.001   0.998   0.015
  0.001  -0.022  -9.618   0.001  -0.018  -0.000   0.015   0.994
 -0.043  -0.000   0.001  -9.591   0.001   0.030   0.000  -0.001
  0.000   0.040  -0.018   0.001  -9.578  -0.000  -0.029   0.011
  0.974  -0.001  -0.000   0.030  -0.000   6.608   0.001   0.000
 -0.001   0.998   0.015   0.000  -0.029   0.001   6.596  -0.010
 -0.000   0.015   0.994  -0.001   0.011   0.000  -0.010   6.595
  0.030   0.000  -0.001   0.977  -0.000  -0.020  -0.000   0.000
 -0.000  -0.029   0.011  -0.000   0.972   0.000   0.018  -0.005
  0.000   0.013  -0.004  -0.000   0.004  -0.000   0.000  -0.002
  0.000   0.024  -0.007  -0.000   0.006  -0.000   0.001  -0.005
  0.001  -0.019   0.020   0.000   0.040  -0.001   0.006  -0.010
  0.000  -0.036  -0.018   0.001   0.001   0.000   0.021   0.011
 -0.031   0.000  -0.000  -0.017   0.001   0.024   0.000   0.000
  0.001  -0.028   0.028   0.000   0.056  -0.001   0.008  -0.014
  0.000  -0.053  -0.030   0.001   0.002   0.000   0.029   0.016
 -0.047   0.000  -0.000  -0.025   0.001   0.033   0.000   0.000
 total augmentation occupancy for first ion, spin component:           1
  1.943   0.000  -0.000  -0.001  -0.000  -0.036  -0.000  -0.000   0.003   0.000  -0.001   0.000  -0.000  -0.000   0.006   0.000
  0.000   1.931  -0.010  -0.001   0.015  -0.000  -0.033   0.008  -0.000  -0.008  -0.182   0.053   0.034   0.055   0.000  -0.009
 -0.000  -0.010   1.931  -0.002   0.009   0.000   0.008  -0.035   0.000  -0.002   0.073  -0.015  -0.023   0.026  -0.002   0.013
 -0.001  -0.001  -0.002   1.936   0.001   0.004   0.000   0.000  -0.044  -0.000  -0.002   0.001   0.001   0.002  -0.007  -0.000
 -0.000   0.015   0.009   0.001   1.927   0.000  -0.008  -0.002  -0.000  -0.035   0.019  -0.008  -0.033  -0.021   0.001   0.025
 -0.036  -0.000   0.000   0.004   0.000   0.012   0.000  -0.000   0.003  -0.000   0.000  -0.000   0.000   0.000   0.038  -0.000
 -0.000  -0.033   0.008   0.000  -0.008   0.000   0.008   0.001  -0.000  -0.003   0.090  -0.022   0.015   0.018   0.000  -0.002
 -0.000   0.008  -0.035   0.000  -0.002  -0.000   0.001   0.006  -0.000  -0.000  -0.036   0.009  -0.007   0.008   0.000   0.001
  0.003  -0.000   0.000  -0.044  -0.000   0.003  -0.000  -0.000   0.005  -0.000   0.001  -0.000   0.000  -0.000   0.011  -0.000
  0.000  -0.008  -0.002  -0.000  -0.035  -0.000  -0.003  -0.000  -0.000   0.007  -0.002   0.001  -0.012  -0.004   0.000   0.001
 -0.001  -0.182   0.073  -0.002   0.019   0.000   0.090  -0.036   0.001  -0.002   3.538  -0.858   0.408   0.214  -0.004  -0.051
  0.000   0.053  -0.015   0.001  -0.008  -0.000  -0.022   0.009  -0.000   0.001  -0.858   0.208  -0.100  -0.053   0.001   0.012
 -0.000   0.034  -0.023   0.001  -0.033   0.000   0.015  -0.007   0.000  -0.012   0.408  -0.100   0.078   0.028  -0.001  -0.010
 -0.000   0.055   0.026   0.002  -0.021   0.000   0.018   0.008  -0.000  -0.004   0.214  -0.053   0.028   0.060   0.000  -0.004
  0.006   0.000  -0.002  -0.007   0.001   0.038   0.000   0.000   0.011   0.000  -0.004   0.001  -0.001   0.000   0.168   0.000
  0.000  -0.009   0.013  -0.000   0.025  -0.000  -0.002   0.001  -0.000   0.001  -0.051   0.012  -0.010  -0.004   0.000   0.001
  0.000  -0.022  -0.007   0.000   0.001  -0.000  -0.001  -0.001   0.000   0.000  -0.024   0.006  -0.004  -0.006  -0.000   0.000
 -0.018   0.000  -0.000  -0.008   0.000  -0.003  -0.000   0.000  -0.001  -0.000   0.000  -0.000   0.000  -0.000  -0.014   0.000


------------------------ aborting loop because EDIFF is reached ----------------------------------------


    FORLOC:  cpu time      0.0080: real time      0.0081
    FORNL :  cpu time      0.0522: real time      0.0522
    STRESS:  cpu time      1.6928: real time      1.6936
    FORCOR:  cpu time      0.9618: real time      0.9621
    OFIELD:  cpu time      0.0003: real time      0.0003

  FORCE on cell =-STRESS in cart. coord.  units (eV):
  Direction    XX          YY          ZZ          XY          YZ          ZX
  --------------------------------------------------------------------------------------
  Alpha Z     1.18414     1.18414     1.18414
  Ewald    1723.66131   329.45754   258.68382     0.00411   492.34150     0.00498
  Hartree  3291.47961  2092.90461  2013.96801     0.38405   369.07441     0.14197
  E(xc)    -188.64309  -189.66301  -189.31002     0.02427     0.38002     0.00653
  Local   -5384.82179 -2791.86325 -2641.60809    -0.46743  -853.53385    -0.17125
  n-local   -36.47996   -39.65117   -39.44357     0.05079    -0.75702     0.02051
  augment   231.06343   233.42660   233.20998    -0.04171    -3.78121    -0.01311
  Kinetic   356.55076   357.70070   357.56448    -0.03085    -3.66551    -0.01821
  Fock        0.00000     0.00000     0.00000     0.00000     0.00000     0.00000
  -------------------------------------------------------------------------------------
  Total      -6.00560    -6.50385    -5.75125    -0.07677     0.05835    -0.02859
  in kB      -0.97373    -1.05452    -0.93249    -0.01245     0.00946    -0.00463
  external pressure =       -0.99 kB  Pullay stress =        0.00 kB


 VOLUME and BASIS-vectors are now :
 -----------------------------------------------------------------------------
  energy-cutoff  :      520.00
  volume of cell :     9881.61
      direct lattice vectors                 reciprocal lattice vectors
    21.138852197  0.000000000  0.000000000     0.047306258  0.000000000  0.000000000
     0.000000000 21.138852197  0.000000000     0.000000000  0.047306258  0.000000000
     0.000000000  0.000000000 22.113885220     0.000000000  0.000000000  0.045220457

  length of vectors
    21.138852197 21.138852197 22.113885220     0.047306258  0.047306258  0.045220457


 FORCES acting on ions:
    Electron-Ion                     Ewald-Force                    Non-Local-Force
 -----------------------------------------------------------------------------------------------
   -.110E+00 0.609E+03 0.301E+03   -.596E-02 -.597E+03 -.296E+03   0.112E+00 -.948E+01 -.532E+01
   -.603E+03 -.173E+03 0.162E+03   0.596E+03 0.169E+03 -.158E+03   0.755E+01 0.232E+01 -.264E+01
   0.603E+03 -.174E+03 0.162E+03   -.596E+03 0.169E+03 -.158E+03   -.762E+01 0.303E+01 -.231E+01
   0.188E+00 -.262E+03 -.622E+03   0.269E-02 0.258E+03 0.611E+03   -.169E+00 0.344E+01 0.908E+01
 -----------------------------------------------------------------------------------------------
   -.994E-02 -.892E+00 0.259E+01   0.853E-13 0.568E-13 0.000E+00   -.131E+00 -.691E+00 -.119E+01
 
 
 POSITION                                       TOTAL-FORCE (eV/Angst)
 -----------------------------------------------------------------------------------
      8.45555      8.82382     13.06192         0.005336      1.737369     -0.711747
     10.35658     10.31213     13.27893         0.924539     -1.037293      1.059490
      6.55462     10.31214     13.27893        -0.951542     -0.829481      1.246383
      8.45565     10.40011     14.68777         0.021667      0.129405     -1.594126
 -----------------------------------------------------------------------------------
    total drift:                               -0.140928     -1.583091      1.396606


--------------------------------------------------------------------------------------------------------



  FREE ENERGIE OF THE ION-ELECTRON SYSTEM (eV)
  ---------------------------------------------------
  free  energy   TOTEN  =       -30.16760982 eV

  energy  without entropy=      -30.16760982  energy(sigma->0) =      -30.16760982
 


--------------------------------------------------------------------------------------------------------


    POTLOK:  cpu time      5.4569: real time      5.4603


--------------------------------------------------------------------------------------------------------


     LOOP+:  cpu time   8813.1691: real time   8821.1560
    4ORBIT:  cpu time      0.0000: real time      0.0000

 total amount of memory used by VASP MPI-rank0    68455. kBytes
=======================================================================

   base      :      30000. kBytes
   nonlr-proj:        735. kBytes
   fftplans  :      11482. kBytes
   grid      :      25425. kBytes
   one-center:         15. kBytes
   wavefun   :        798. kBytes
 
  
  
 General timing and accounting informations for this job:
 ========================================================
  
                  Total CPU time used (sec):     8827.271
                            User time (sec):     8819.068
                          System time (sec):        8.202
                         Elapsed time (sec):     8835.806
  
                   Maximum memory used (kb):      730476.
                   Average memory used (kb):          N/A
  
                          Minor page faults:        61951
                          Major page faults:            0
                 Voluntary context switches:        52381
