 vasp.6.4.0 14Feb23 (build Jul 14 2023 13:46:40) complex                        
  
 executed on             LinuxIFC date 2023.07.16  13:45:16
 running   64 mpi-ranks, with    1 threads/rank, on    2 nodes
 distrk:  each k-point on   64 cores,    1 groups
 distr:  one band on NCORE=   1 cores,   64 groups


--------------------------------------------------------------------------------------------------------


 INCAR:
   SYSTEM = MgO-rocksalt
   ISMEAR = 0
   SIGMA = 0.05
   EDIFF = 1E-6
   ALGO = ALL
   ISTART = 0
   IBRION = -1
   NSW = 0
   ISYM = 2
   GGA = RE
   IVDW = 11
   ENCUT = 520
   PREC = Accurate
   LASPH = .TRUE.
   LREAL = Auto
   ISPIN = 1
   NELM = 200
   NELMIN = 8
   NCORE = 1
   KPAR = 1
   LWAVE = .FALSE.
   LCHARG = .FALSE.

 POTCAR:    PAW_PBE Au 04Oct2007                  
 POTCAR:    PAW_PBE Au 04Oct2007                  
   SHA256 =  d0044ae04e2bdce24051b198fc5c053d722a5bc6fe3c3b100514a13fc5d2db88 Au/POTCAR             
   COPYR  = (c) Copyright 04Oct2007 Georg Kresse                                                    
   COPYR  = This file is part of the software VASP. Any use, copying, and all other rights are regul
   COPYR  = If you do not have a valid VASP license, you may not use, copy or distribute this file. 
   VRHFIN =Au: s1d10                                                                                
   LEXCH  = PE                                                                                      
   EATOM  =   926.0867 eV,   68.0654 Ry                                                             
                                                                                                    
   TITEL  = PAW_PBE Au 04Oct2007                                                                    
   LULTRA =        F    use ultrasoft PP ?                                                          
   IUNSCR =        1    unscreen: 0-lin 1-nonlin 2-no                                               
   RPACOR =    2.330    partial core radius                                                         
   POMASS =  196.966; ZVAL   =   11.000    mass and valenz                                          
   RCORE  =    2.500    outmost cutoff radius                                                       
   RWIGS  =    2.840; RWIGS  =    1.503    wigner-seitz radius (au A)                               
   ENMAX  =  229.943; ENMIN  =  172.457 eV                                                          
   ICORE  =        3    local potential                                                             
   LCOR   =        T    correct aug charges                                                         
   LPAW   =        T    paw PP                                                                      
   EAUG   =  356.670                                                                                
   DEXC   =    0.000                                                                                
   RMAX   =    2.562    core radius for proj-oper                                                   
   RAUG   =    1.300    factor for augmentation sphere                                              
   RDEP   =    2.598    radius for radial grids                                                     
   RDEPT  =    2.193    core radius for aug-charge                                                  
                                                                                                    
   Atomic configuration                                                                             
   16 entries                                                                                       
     n  l   j            E        occ.                                                              
     1  0  0.50    -80748.5001   2.0000                                                             
     2  0  0.50    -14244.7466   2.0000                                                             
     2  1  1.50    -12310.9591   6.0000                                                             
     3  0  0.50     -3362.1768   2.0000                                                             
     3  1  1.50     -2801.5463   6.0000                                                             
     3  2  2.50     -2203.8206  10.0000                                                             
     4  0  0.50      -729.8168   2.0000                                                             
     4  1  1.50      -546.0527   6.0000                                                             
     4  2  2.50      -325.7302  10.0000                                                             
     4  3  3.50       -81.1472  14.0000                                                             
     5  0  0.50      -108.3201   2.0000                                                             
     5  1  1.50       -59.7479   6.0000                                                             
     5  2  2.50        -6.8783  10.0000                                                             
     6  0  0.50        -5.7602   1.0000                                                             
     6  1  1.50        -6.8029   0.0000                                                             
     5  3  2.50        -1.3606   0.0000                                                             
   Description                                                                                      
     l       E           TYP  RCUT    TYP  RCUT                                                     
     2     -6.8782861     23  2.500                                                                 
     2     -8.2388687     23  2.500                                                                 
     0     -5.7601759     23  2.500                                                                 
     0     -0.8493231     23  2.500                                                                 
     1     -2.7211652     23  2.500                                                                 
     1     27.2116520     23  2.500                                                                 
     3     -1.3605826     23  2.500                                                                 
  local pseudopotential read in
  partial core-charges read in
  partial kinetic energy density read in
  atomic valenz-charges read in
  non local Contribution for L=           2  read in
    real space projection operators read in
  non local Contribution for L=           2  read in
    real space projection operators read in
  non local Contribution for L=           0  read in
    real space projection operators read in
  non local Contribution for L=           0  read in
    real space projection operators read in
  non local Contribution for L=           1  read in
    real space projection operators read in
  non local Contribution for L=           1  read in
    real space projection operators read in
    PAW grid and wavefunctions read in
 
   number of l-projection  operators is LMAX  =           6
   number of lm-projection operators is LMMAX =          18
 
 -----------------------------------------------------------------------------
|                                                                             |
|               ----> ADVICE to this user running VASP <----                  |
|                                                                             |
|     You have a (more or less) 'small supercell' and for smaller cells       |
|     it is recommended to use the reciprocal-space projection scheme!        |
|     The real-space optimization is not efficient for small cells and it     |
|     is also less accurate ...                                               |
|     Therefore, set LREAL=.FALSE. in the INCAR file.                         |
|                                                                             |
 -----------------------------------------------------------------------------

 Optimization of the real space projectors (new method)

 maximal supplied QI-value         = 15.12
 optimisation between [QCUT,QGAM] = [ 11.64, 23.28] = [ 37.95,151.78] Ry 
 Optimized for a Real-space Cutoff    1.49 Angstroem

   l    n(q)    QCUT    max X(q) W(low)/X(q) W(high)/X(q)  e(spline) 
   2      9    11.641    60.898    0.24E-03    0.10E-03    0.19E-06
   2      9    11.641    58.894    0.25E-03    0.10E-03    0.19E-06
   0     10    11.641   109.617    0.73E-04    0.33E-04    0.11E-06
   0     10    11.641    75.026    0.71E-04    0.32E-04    0.11E-06
   1     10    11.641    16.344    0.27E-04    0.97E-04    0.16E-06
   1     10    11.641    10.160    0.23E-04    0.77E-04    0.13E-06
 -----------------------------------------------------------------------------
|                                                                             |
|               ----> ADVICE to this user running VASP <----                  |
|                                                                             |
|     You enforced a specific xc type in the INCAR file but a different       |
|     type was found in the POTCAR file.                                      |
|     I HOPE YOU KNOW WHAT YOU ARE DOING!                                     |
|                                                                             |
 -----------------------------------------------------------------------------

  PAW_PBE Au 04Oct2007                  :
 energy of atom  1       EATOM= -926.0867
 kinetic energy error for atom=    0.0034 (will be added to EATOM!!)
 
 
 POSCAR: Au
  positions in direct lattice
  velocities in cartesian coordinates
 exchange correlation table for  LEXCH =       40
   RHO(1)=    0.500       N(1)  =     2000
   RHO(2)=  100.500       N(2)  =     4000
 


--------------------------------------------------------------------------------------------------------


 ion  position               nearest neighbor table
   1  0.587  0.521  0.535-   7 2.61   2 2.61   6 2.73   8 2.74
   2  0.594  0.450  0.644-   8 2.60   1 2.61
   3  0.406  0.551  0.356-   6 2.60   5 2.61
   4  0.365  0.394  0.551-   8 2.60   5 2.61
   5  0.413  0.479  0.464-   4 2.61   3 2.61   8 2.74   6 2.74
   6  0.516  0.560  0.425-   7 2.60   3 2.60   1 2.73   5 2.74
   7  0.635  0.606  0.449-   6 2.60   1 2.61
   8  0.484  0.440  0.574-   2 2.60   4 2.60   5 2.74   1 2.74
 
  LATTYP: Found a simple cubic cell.
 ALAT       =    20.0000000000
  
  Lattice vectors:
  
 A1 = (  20.0000000000,   0.0000000000,   0.0000000000)
 A2 = (   0.0000000000,  20.0000000000,   0.0000000000)
 A3 = (   0.0000000000,   0.0000000000,  20.0000000000)


Analysis of symmetry for initial positions (statically):
=====================================================================
 Subroutine PRICEL returns:
 Original cell was already a primitive cell.
 

 Routine SETGRP: Setting up the symmetry group for a 
 simple cubic supercell.


 Subroutine GETGRP returns: Found  1 space group operations
 (whereof  1 operations were pure point group operations)
 out of a pool of 48 trial point group operations.


The static configuration has the point symmetry C_1 .


Analysis of symmetry for dynamics (positions and initial velocities):
=====================================================================
 Subroutine PRICEL returns:
 Original cell was already a primitive cell.
 

 Routine SETGRP: Setting up the symmetry group for a 
 simple cubic supercell.


 Subroutine GETGRP returns: Found  1 space group operations
 (whereof  1 operations were pure point group operations)
 out of a pool of 48 trial point group operations.


The dynamic configuration has the point symmetry C_1 .


 Subroutine INISYM returns: Found  1 space group operations
 (whereof  1 operations are pure point group operations),
 and found     1 'primitive' translations


----------------------------------------------------------------------------------------

                                     Primitive cell                                     

  volume of cell :    8000.0000

  direct lattice vectors                    reciprocal lattice vectors
    20.000000000  0.000000000  0.000000000     0.050000000  0.000000000  0.000000000
     0.000000000 20.000000000  0.000000000     0.000000000  0.050000000  0.000000000
     0.000000000  0.000000000 20.000000000     0.000000000  0.000000000  0.050000000

  length of vectors
    20.000000000 20.000000000 20.000000000     0.050000000  0.050000000  0.050000000

  position of ions in fractional coordinates (direct lattice)
     0.587314935  0.521251269  0.535086162
     0.594007259  0.449839138  0.643821918
     0.405557416  0.551000013  0.356164294
     0.364833830  0.393996639  0.550915378
     0.412584551  0.478914525  0.464440067
     0.515554183  0.559973808  0.425327799
     0.635169049  0.605989959  0.448503784
     0.484296247  0.440300765  0.574297230

  ion indices of the primitive-cell ions
   primitive index   ion index
                 1           1
                 2           2
                 3           3
                 4           4
                 5           5
                 6           6
                 7           7
                 8           8

----------------------------------------------------------------------------------------

 
 
 KPOINTS: KPOINTS created by Atomic Simulation Env

Automatic generation of k-mesh.
 Grid dimensions read from file:
 generate k-points for:    1    1    1

 Generating k-lattice:

  Cartesian coordinates                     Fractional coordinates (reciprocal lattice)
     0.050000000  0.000000000  0.000000000     1.000000000  0.000000000  0.000000000
     0.000000000  0.050000000  0.000000000     0.000000000  1.000000000  0.000000000
     0.000000000  0.000000000  0.050000000     0.000000000  0.000000000  1.000000000

  Length of vectors
     0.050000000  0.050000000  0.050000000

  Shift w.r.t. Gamma in fractional coordinates (k-lattice)
     0.000000000  0.000000000  0.000000000

 
 Subroutine IBZKPT returns following result:
 ===========================================
 
 Found      1 irreducible k-points:
 
 Following reciprocal coordinates:
            Coordinates               Weight
  0.000000  0.000000  0.000000      1.000000
 
 Following cartesian coordinates:
            Coordinates               Weight
  0.000000  0.000000  0.000000      1.000000
 


--------------------------------------------------------------------------------------------------------




 Dimension of arrays:
   k-points           NKPTS =      1   k-points in BZ     NKDIM =      1   number of bands    NBANDS=     64
   number of dos      NEDOS =    301   number of ions     NIONS =      8
   non local maximal  LDIM  =      6   non local SUM 2l+1 LMDIM =     18
   total plane-waves  NPLWV = ******
   max r-space proj   IRMAX =   5885   max aug-charges    IRDMAX=  25995
   dimension x,y,z NGX =   150 NGY =  150 NGZ =  150
   dimension x,y,z NGXF=   300 NGYF=  300 NGZF=  300
   support grid    NGXF=   300 NGYF=  300 NGZF=  300
   ions per type =               8
   NGX,Y,Z   is equivalent  to a cutoff of  12.47, 12.47, 12.47 a.u.
   NGXF,Y,Z  is equivalent  to a cutoff of  24.94, 24.94, 24.94 a.u.

 SYSTEM =  MgO-rocksalt                            
 POSCAR =  Au                                      

 Startparameter for this run:
   NWRITE =      2    write-flag & timer
   PREC   = accura    normal or accurate (medium, high low for compatibility)
   ISTART =      0    job   : 0-new  1-cont  2-samecut
   ICHARG =      2    charge: 1-file 2-atom 10-const
   ISPIN  =      1    spin polarized calculation?
   LNONCOLLINEAR =      F non collinear calculations
   LSORBIT =      F    spin-orbit coupling
   INIWAV =      1    electr: 0-lowe 1-rand  2-diag
   LASPH  =      T    aspherical Exc in radial PAW
 Electronic Relaxation 1
   ENCUT  =  520.0 eV  38.22 Ry    6.18 a.u.  37.19 37.19 37.19*2*pi/ulx,y,z
   ENINI  =  520.0     initial cutoff
   ENAUG  =  356.7 eV  augmentation charge cutoff
   NELM   =    200;   NELMIN=  8; NELMDL= -5     # of ELM steps 
   EDIFF  = 0.1E-05   stopping-criterion for ELM
   LREAL  =      T    real-space projection
   NLSPLINE    = F    spline interpolate recip. space projectors
   LCOMPAT=      F    compatible to vasp.4.4
   GGA_COMPAT  = T    GGA compatible to vasp.4.4-vasp.4.6
   LMAXPAW     = -100 max onsite density
   LMAXMIX     =    2 max onsite mixed and CHGCAR
   VOSKOWN=      0    Vosko Wilk Nusair interpolation
   ROPT   =   -0.00025
 Ionic relaxation
   EDIFFG = 0.1E-04   stopping-criterion for IOM
   NSW    =      0    number of steps for IOM
   NBLOCK =      1;   KBLOCK =      1    inner block; outer block 
   IBRION =     -1    ionic relax: 0-MD 1-quasi-New 2-CG
   NFREE  =      0    steps in history (QN), initial steepest desc. (CG)
   ISIF   =      2    stress and relaxation
   IWAVPR =     10    prediction:  0-non 1-charg 2-wave 3-comb
   ISYM   =      2    0-nonsym 1-usesym 2-fastsym
   LCORR  =      T    Harris-Foulkes like correction to forces

   POTIM  = 0.5000    time-step for ionic-motion
   TEIN   =    0.0    initial temperature
   TEBEG  =    0.0;   TEEND  =   0.0 temperature during run
   SMASS  =  -3.00    Nose mass-parameter (am)
   estimated Nose-frequenzy (Omega)   =  0.10E-29 period in steps = 0.13E+47 mass=  -0.914E-26a.u.
   SCALEE = 1.0000    scale energy and forces
   NPACO  =    256;   APACO  = 10.0  distance and # of slots for P.C.
   PSTRESS=    0.0 pullay stress

  Mass of Ions in am
   POMASS = 196.97
  Ionic Valenz
   ZVAL   =  11.00
  Atomic Wigner-Seitz radii
   RWIGS  =  -1.00
  virtual crystal weights 
   VCA    =   1.00
   NELECT =      88.0000    total number of electrons
   NUPDOWN=      -1.0000    fix difference up-down

 DOS related values:
   EMIN   =  10.00;   EMAX   =-10.00  energy-range for DOS
   EFERMI =   0.00;   METHOD = LEGACY      
   ISMEAR =     0;   SIGMA  =   0.05  broadening in eV -4-tet -1-fermi 0-gaus

 Electronic relaxation 2 (details)
   IALGO  =     58    algorithm
   LDIAG  =      T    sub-space diagonalisation (order eigenvalues)
   LSUBROT=      F    optimize rotation matrix (better conditioning)
   TURBO    =      0    0=normal 1=particle mesh
   IRESTART =      0    0=no restart 2=restart with 2 vectors
   NREBOOT  =      0    no. of reboots
   NMIN     =      0    reboot dimension
   EREF     =   0.00    reference energy to select bands
   IMIX   =      4    mixing-type and parameters
     AMIX     =   0.40;   BMIX     =  1.00
     AMIX_MAG =   1.60;   BMIX_MAG =  1.00
     AMIN     =   0.10
     WC   =   100.;   INIMIX=   1;  MIXPRE=   1;  MAXMIX= -45

 Intra band minimization:
   WEIMIN = 0.0000     energy-eigenvalue tresh-hold
   EBREAK =  0.39E-08  absolut break condition
   DEPER  =   0.30     relativ break condition  

   TIME   =   0.40     timestep for ELM

  volume/ion in A,a.u.               =    1000.00      6748.33
  Fermi-wavevector in a.u.,A,eV,Ry     =   0.364087  0.688026  1.803584  0.132560
  Thomas-Fermi vector in A             =   1.286639
 
 Write flags
   LWAVE        =      F    write WAVECAR
   LDOWNSAMPLE  =      F    k-point downsampling of WAVECAR
   LCHARG       =      F    write CHGCAR
   LVTOT        =      F    write LOCPOT, total local potential
   LVHAR        =      F    write LOCPOT, Hartree potential only
   LELF         =      F    write electronic localiz. function (ELF)
   LORBIT       =      0    0 simple, 1 ext, 2 COOP (PROOUT), +10 PAW based schemes


 Dipole corrections
   LMONO  =      F    monopole corrections only (constant potential shift)
   LDIPOL =      F    correct potential (dipole corrections)
   IDIPOL =      0    1-x, 2-y, 3-z, 4-all directions 
   EPSILON=  1.0000000 bulk dielectric constant

 Exchange correlation treatment:
   GGA     =    RE    GGA type
   LEXCH   =    40    internal setting for exchange type
   LIBXC   =     F    Libxc                    
   VOSKOWN =     0    Vosko Wilk Nusair interpolation
   LHFCALC =     F    Hartree Fock is set to
   LHFONE  =     F    Hartree Fock one center treatment
   AEXX    =    0.0000 exact exchange contribution

 Linear response parameters
   LEPSILON=     F    determine dielectric tensor
   LRPA    =     F    only Hartree local field effects (RPA)
   LNABLA  =     F    use nabla operator in PAW spheres
   LVEL    =     F    velocity operator in full k-point grid
   CSHIFT  =0.1000    complex shift for real part using Kramers Kronig
   OMEGAMAX=  -1.0    maximum frequency
   DEG_THRESHOLD= 0.2000000E-02 threshold for treating states as degnerate
   RTIME   =   -0.100 relaxation time in fs
  (WPLASMAI=    0.000 imaginary part of plasma frequency in eV, 0.658/RTIME)
   DFIELD  = 0.0000000 0.0000000 0.0000000 field for delta impulse in time
 
  Optional k-point grid parameters
   LKPOINTS_OPT  =     F    use optional k-point grid
   KPOINTS_OPT_MODE=     1    mode for optional k-point grid
 
 Orbital magnetization related:
   ORBITALMAG=     F  switch on orbital magnetization
   LCHIMAG   =     F  perturbation theory with respect to B field
   DQ        =  0.001000  dq finite difference perturbation B field
   LLRAUG    =     F  two centre corrections for induced B field
   LBONE     =     F  B-component reconstruction in AE one-centre
   LVGVCALC  =     T  calculate vGv susceptibility
   LVGVAPPL  =     F  apply vGv susceptibility instead of pGv for G=0

 Random number generation:
   RANDOM_GENERATOR = DEFAULT
   PCG_SEED         = not used


--------------------------------------------------------------------------------------------------------


 Static calculation
 charge density and potential will be updated during run
 non-spin polarized calculation
 Conjugate gradient for all bands (Freysoldt, et al. PRB 79, 241103 (2009))
 preconditioned conjugated gradient                                        
 perform sub-space diagonalisation
    before iterative eigenvector-optimisation
 modified Broyden-mixing scheme, WC =      100.0
 initial mixing is a Kerker type mixing with AMIX =  0.4000 and BMIX =      1.0000
 Hartree-type preconditioning will be used
 using additional bands           20
 real space projection scheme for non local part
 use partial core corrections
 no Harris-corrections to forces 
 use gradient corrections 
 use of overlap-Matrix (Vanderbilt PP)
 Gauss-broadening in eV      SIGMA  =   0.05


--------------------------------------------------------------------------------------------------------


  energy-cutoff  :      520.00
  volume of cell :     8000.00
      direct lattice vectors                 reciprocal lattice vectors
    20.000000000  0.000000000  0.000000000     0.050000000  0.000000000  0.000000000
     0.000000000 20.000000000  0.000000000     0.000000000  0.050000000  0.000000000
     0.000000000  0.000000000 20.000000000     0.000000000  0.000000000  0.050000000

  length of vectors
    20.000000000 20.000000000 20.000000000     0.050000000  0.050000000  0.050000000


 
 k-points in units of 2pi/SCALE and weight: KPOINTS created by Atomic Simulation Env
   0.00000000  0.00000000  0.00000000       1.000
 
 k-points in reciprocal lattice and weights: KPOINTS created by Atomic Simulation Env
   0.00000000  0.00000000  0.00000000       1.000
 
 position of ions in fractional coordinates (direct lattice) 
   0.58731494  0.52125127  0.53508616
   0.59400726  0.44983914  0.64382192
   0.40555742  0.55100001  0.35616429
   0.36483383  0.39399664  0.55091538
   0.41258455  0.47891453  0.46444007
   0.51555418  0.55997381  0.42532780
   0.63516905  0.60598996  0.44850378
   0.48429625  0.44030077  0.57429723
 
 position of ions in cartesian coordinates  (Angst):
  11.74629870 10.42502538 10.70172324
  11.88014518  8.99678275 12.87643836
   8.11114833 11.02000025  7.12328589
   7.29667661  7.87993278 11.01830756
   8.25169102  9.57829051  9.28880133
  10.31108365 11.19947616  8.50655598
  12.70338098 12.11979918  8.97007569
   9.68592494  8.80601531 11.48594460
 


--------------------------------------------------------------------------------------------------------


 k-point   1 :   0.0000 0.0000 0.0000  plane waves:  215503

 maximum and minimum number of plane-waves per node :    215503   215503

 maximum number of plane-waves:    215503
 maximum index in each direction: 
   IXMAX=   37   IYMAX=   37   IZMAX=   37
   IXMIN=  -37   IYMIN=  -37   IZMIN=  -37


 serial   3D FFT for wavefunctions
 parallel 3D FFT for charge:
    minimum data exchange during FFTs selected (reduces bandwidth)


 total amount of memory used by VASP MPI-rank0   234222. kBytes
=======================================================================

   base      :      30000. kBytes
   nonlr-proj:       7968. kBytes
   fftplans  :      28721. kBytes
   grid      :     157056. kBytes
   one-center:        124. kBytes
   wavefun   :      10353. kBytes
 
     INWAV:  cpu time      0.0003: real time      0.0005
 Broyden mixing: mesh for mixing (old mesh)
   NGX = 75   NGY = 75   NGZ = 75
  (NGX  =300   NGY  =300   NGZ  =300)
  gives a total of 421875 points

 initial charge density was supplied:
 charge density of overlapping atoms calculated
 number of electron      88.0000000 magnetization 
 keeping initial charge density in first step


--------------------------------------------------------------------------------------------------------


 Maximum index for non-local projection operator         5670
 Maximum index for augmentation-charges         1029 (set IRDMAX)


--------------------------------------------------------------------------------------------------------


 First call to EWALD:  gamma=   0.089
 Maximum number of real-space cells 3x 3x 3
 Maximum number of reciprocal cells 3x 3x 3

    FEWALD:  cpu time      0.0075: real time      0.0083


--------------------------------------- Ionic step        1  -------------------------------------------




--------------------------------------- Iteration      1(   1)  ---------------------------------------


    POTLOK:  cpu time      1.0331: real time      1.0444
    SETDIJ:  cpu time      0.7486: real time      0.7493
    TRIAL :  cpu time      1.5577: real time      1.6292
    CORREC:  cpu time      0.0010: real time      0.0010
    --------------------------------------------
      LOOP:  cpu time      3.3494: real time      3.4344

 eigenvalue-minimisations  :   128
 total energy-change (2. order) : 0.6790801E+03  (-0.1687649E+04)
 number of electron      88.0000000 magnetization 
 augmentation part       88.0000000 magnetization 

 Free energy of the ion-electron system (eV)
  ---------------------------------------------------
  alpha Z        PSCENC =         9.31836840
  Ewald energy   TEWEN  =      5700.99075705
  -Hartree energ DENC   =    -12800.92555211
  -exchange      EXHF   =         0.00000000
  -V(xc)+E(xc)   XCENC  =       112.99702881
  PAW double counting   =      6996.65316917    -6804.19380968
  entropy T*S    EENTRO =        -0.00969557
  eigenvalues    EBANDS =        61.72608898
  atomic energy  EATOM  =      7402.52374884
  ---------------------------------------------------
  free energy    TOTEN  =       679.08010389 eV

  energy without entropy =      679.08979946  energy(sigma->0) =      679.08495167


--------------------------------------------------------------------------------------------------------




--------------------------------------- Iteration      1(   2)  ---------------------------------------


    TRIAL :  cpu time      2.6582: real time      2.6629
    CORREC:  cpu time      0.0010: real time      0.0010
    --------------------------------------------
      LOOP:  cpu time      2.6616: real time      2.6804

 eigenvalue-minimisations  :   256
 total energy-change (2. order) :-0.5148218E+03  (-0.5148028E+03)
 number of electron      88.0000000 magnetization 
 augmentation part       88.0000000 magnetization 

 Free energy of the ion-electron system (eV)
  ---------------------------------------------------
  alpha Z        PSCENC =         9.31836840
  Ewald energy   TEWEN  =      5700.99075705
  -Hartree energ DENC   =    -12800.92555211
  -exchange      EXHF   =         0.00000000
  -V(xc)+E(xc)   XCENC  =       112.99702881
  PAW double counting   =      6996.65316917    -6804.19380968
  entropy T*S    EENTRO =        -0.04882719
  eigenvalues    EBANDS =      -453.05654971
  atomic energy  EATOM  =      7402.52374884
  ---------------------------------------------------
  free energy    TOTEN  =       164.25833359 eV

  energy without entropy =      164.30716077  energy(sigma->0) =      164.28274718


--------------------------------------------------------------------------------------------------------




--------------------------------------- Iteration      1(   3)  ---------------------------------------


    TRIAL :  cpu time      2.5657: real time      2.5671
    CORREC:  cpu time      0.0003: real time      0.0003
    --------------------------------------------
      LOOP:  cpu time      2.5825: real time      2.5840

 eigenvalue-minimisations  :   256
 total energy-change (2. order) :-0.1788070E+03  (-0.1781297E+03)
 number of electron      88.0000000 magnetization 
 augmentation part       88.0000000 magnetization 

 Free energy of the ion-electron system (eV)
  ---------------------------------------------------
  alpha Z        PSCENC =         9.31836840
  Ewald energy   TEWEN  =      5700.99075705
  -Hartree energ DENC   =    -12800.92555211
  -exchange      EXHF   =         0.00000000
  -V(xc)+E(xc)   XCENC  =       112.99702881
  PAW double counting   =      6996.65316917    -6804.19380968
  entropy T*S    EENTRO =        -0.00000000
  eigenvalues    EBANDS =      -631.91234124
  atomic energy  EATOM  =      7402.52374884
  ---------------------------------------------------
  free energy    TOTEN  =       -14.54863076 eV

  energy without entropy =      -14.54863076  energy(sigma->0) =      -14.54863076


--------------------------------------------------------------------------------------------------------




--------------------------------------- Iteration      1(   4)  ---------------------------------------


    TRIAL :  cpu time      1.3392: real time      1.3402
    CORREC:  cpu time      0.0005: real time      0.0005
    --------------------------------------------
      LOOP:  cpu time      1.3411: real time      1.3565

 eigenvalue-minimisations  :   128
 total energy-change (2. order) :-0.2306514E+01  (-0.2306514E+01)
 number of electron      88.0000000 magnetization 
 augmentation part       88.0000000 magnetization 

 Free energy of the ion-electron system (eV)
  ---------------------------------------------------
  alpha Z        PSCENC =         9.31836840
  Ewald energy   TEWEN  =      5700.99075705
  -Hartree energ DENC   =    -12800.92555211
  -exchange      EXHF   =         0.00000000
  -V(xc)+E(xc)   XCENC  =       112.99702881
  PAW double counting   =      6996.65316917    -6804.19380968
  entropy T*S    EENTRO =        -0.00000000
  eigenvalues    EBANDS =      -634.21885559
  atomic energy  EATOM  =      7402.52374884
  ---------------------------------------------------
  free energy    TOTEN  =       -16.85514511 eV

  energy without entropy =      -16.85514511  energy(sigma->0) =      -16.85514511


--------------------------------------------------------------------------------------------------------




--------------------------------------- Iteration      1(   5)  ---------------------------------------


    TRIAL :  cpu time      1.8992: real time      1.9001
    CORREC:  cpu time      0.0004: real time      0.0004
    CHARGE:  cpu time      0.4575: real time      0.4581
    --------------------------------------------
      LOOP:  cpu time      2.3587: real time      2.3750

 eigenvalue-minimisations  :   192
 total energy-change (2. order) :-0.2863969E-01  (-0.2863969E-01)
 number of electron      87.9999998 magnetization 
 augmentation part       31.4390392 magnetization 

 Free energy of the ion-electron system (eV)
  ---------------------------------------------------
  alpha Z        PSCENC =         9.31836840
  Ewald energy   TEWEN  =      5700.99075705
  -Hartree energ DENC   =    -12800.92555211
  -exchange      EXHF   =         0.00000000
  -V(xc)+E(xc)   XCENC  =       112.99702881
  PAW double counting   =      6996.65316917    -6804.19380968
  entropy T*S    EENTRO =        -0.00000000
  eigenvalues    EBANDS =      -634.24749528
  atomic energy  EATOM  =      7402.52374884
  ---------------------------------------------------
  free energy    TOTEN  =       -16.88378480 eV

  energy without entropy =      -16.88378480  energy(sigma->0) =      -16.88378480


--------------------------------------------------------------------------------------------------------




--------------------------------------- Iteration      1(   6)  ---------------------------------------


    POTLOK:  cpu time      0.9925: real time      1.0009
    SETDIJ:  cpu time      0.7301: real time      0.7299
    TRIAL :  cpu time      0.9833: real time      1.0372
    CORREC:  cpu time      2.3515: real time      2.3523
    CHARGE:  cpu time      0.4104: real time      0.4110
    --------------------------------------------
      LOOP:  cpu time      5.4830: real time      5.5476

 eigenvalue-minimisations  :     0
 total energy-change (2. order) : 0.3081328E+01  (-0.1556416E+01)
 number of electron      87.9999998 magnetization 
 augmentation part       32.1530387 magnetization 

 Free energy of the ion-electron system (eV)
  ---------------------------------------------------
  alpha Z        PSCENC =         9.31836840
  Ewald energy   TEWEN  =      5700.99075705
  -Hartree energ DENC   =    -12753.69553145
  -exchange      EXHF   =         0.00000000
  -V(xc)+E(xc)   XCENC  =       109.14184238
  PAW double counting   =      7836.13324440    -7660.83197450
  entropy T*S    EENTRO =        -0.00000000
  eigenvalues    EBANDS =      -657.38291222
  atomic energy  EATOM  =      7402.52374884
  ---------------------------------------------------
  free energy    TOTEN  =       -13.80245711 eV

  energy without entropy =      -13.80245711  energy(sigma->0) =      -13.80245711


--------------------------------------------------------------------------------------------------------




--------------------------------------- Iteration      1(   7)  ---------------------------------------


    POTLOK:  cpu time      0.9743: real time      0.9747
    SETDIJ:  cpu time      0.7358: real time      0.7364
    TRIAL :  cpu time      0.8429: real time      0.8432
    CORREC:  cpu time      2.3420: real time      2.3429
    CHARGE:  cpu time      0.3902: real time      0.3908
    --------------------------------------------
      LOOP:  cpu time      5.2879: real time      5.3069

 eigenvalue-minimisations  :     0
 total energy-change (2. order) :-0.1554207E+01  (-0.1779535E+00)
 number of electron      87.9999998 magnetization 
 augmentation part       32.1748402 magnetization 

 Free energy of the ion-electron system (eV)
  ---------------------------------------------------
  alpha Z        PSCENC =         9.31836840
  Ewald energy   TEWEN  =      5700.99075705
  -Hartree energ DENC   =    -12797.32538156
  -exchange      EXHF   =         0.00000000
  -V(xc)+E(xc)   XCENC  =       111.64123391
  PAW double counting   =      7903.84111252    -7726.91656344
  entropy T*S    EENTRO =        -0.00000000
  eigenvalues    EBANDS =      -619.42994026
  atomic energy  EATOM  =      7402.52374884
  ---------------------------------------------------
  free energy    TOTEN  =       -15.35666453 eV

  energy without entropy =      -15.35666453  energy(sigma->0) =      -15.35666453


--------------------------------------------------------------------------------------------------------




--------------------------------------- Iteration      1(   8)  ---------------------------------------


    POTLOK:  cpu time      0.9724: real time      0.9728
    SETDIJ:  cpu time      0.7270: real time      0.7269
    TRIAL :  cpu time      0.8054: real time      0.8059
    CORREC:  cpu time      2.3458: real time      2.3475
    CHARGE:  cpu time      0.4306: real time      0.4304
    --------------------------------------------
      LOOP:  cpu time      5.2837: real time      5.3008

 eigenvalue-minimisations  :     0
 total energy-change (2. order) :-0.1774891E+00  (-0.6884611E-01)
 number of electron      87.9999998 magnetization 
 augmentation part       32.1895883 magnetization 

 Free energy of the ion-electron system (eV)
  ---------------------------------------------------
  alpha Z        PSCENC =         9.31836840
  Ewald energy   TEWEN  =      5700.99075705
  -Hartree energ DENC   =    -12779.06532012
  -exchange      EXHF   =         0.00000000
  -V(xc)+E(xc)   XCENC  =       111.33285332
  PAW double counting   =      7871.55475108    -7694.34592230
  entropy T*S    EENTRO =        -0.00000000
  eigenvalues    EBANDS =      -637.84338987
  atomic energy  EATOM  =      7402.52374884
  ---------------------------------------------------
  free energy    TOTEN  =       -15.53415360 eV

  energy without entropy =      -15.53415360  energy(sigma->0) =      -15.53415360


--------------------------------------------------------------------------------------------------------




--------------------------------------- Iteration      1(   9)  ---------------------------------------


    POTLOK:  cpu time      0.9753: real time      0.9762
    SETDIJ:  cpu time      0.7322: real time      0.7321
    TRIAL :  cpu time      0.8335: real time      0.8340
    CORREC:  cpu time      2.3099: real time      2.3115
    CHARGE:  cpu time      0.3857: real time      0.3855
    --------------------------------------------
      LOOP:  cpu time      5.2394: real time      5.2562

 eigenvalue-minimisations  :     0
 total energy-change (2. order) :-0.6878863E-01  (-0.1835135E-01)
 number of electron      87.9999998 magnetization 
 augmentation part       32.2321646 magnetization 

 Free energy of the ion-electron system (eV)
  ---------------------------------------------------
  alpha Z        PSCENC =         9.31836840
  Ewald energy   TEWEN  =      5700.99075705
  -Hartree energ DENC   =    -12772.17904063
  -exchange      EXHF   =         0.00000000
  -V(xc)+E(xc)   XCENC  =       111.27490588
  PAW double counting   =      7855.68804628    -7678.18654766
  entropy T*S    EENTRO =        -0.00000000
  eigenvalues    EBANDS =      -645.03318040
  atomic energy  EATOM  =      7402.52374884
  ---------------------------------------------------
  free energy    TOTEN  =       -15.60294223 eV

  energy without entropy =      -15.60294223  energy(sigma->0) =      -15.60294223


--------------------------------------------------------------------------------------------------------




--------------------------------------- Iteration      1(  10)  ---------------------------------------


    POTLOK:  cpu time      0.9670: real time      0.9675
    SETDIJ:  cpu time      0.7278: real time      0.7284
    TRIAL :  cpu time      0.8051: real time      0.8049
    CORREC:  cpu time      2.2877: real time      2.2893
    CHARGE:  cpu time      0.3863: real time      0.3862
    --------------------------------------------
      LOOP:  cpu time      5.1766: real time      5.1931

 eigenvalue-minimisations  :     0
 total energy-change (2. order) :-0.1838656E-01  (-0.5509751E-02)
 number of electron      87.9999998 magnetization 
 augmentation part       32.2249372 magnetization 

 Free energy of the ion-electron system (eV)
  ---------------------------------------------------
  alpha Z        PSCENC =         9.31836840
  Ewald energy   TEWEN  =      5700.99075705
  -Hartree energ DENC   =    -12782.57057280
  -exchange      EXHF   =         0.00000000
  -V(xc)+E(xc)   XCENC  =       111.47346351
  PAW double counting   =      7860.61776308    -7682.87375608
  entropy T*S    EENTRO =        -0.00000000
  eigenvalues    EBANDS =      -635.10110080
  atomic energy  EATOM  =      7402.52374884
  ---------------------------------------------------
  free energy    TOTEN  =       -15.62132879 eV

  energy without entropy =      -15.62132879  energy(sigma->0) =      -15.62132879


--------------------------------------------------------------------------------------------------------




--------------------------------------- Iteration      1(  11)  ---------------------------------------


    POTLOK:  cpu time      0.9281: real time      0.9284
    SETDIJ:  cpu time      0.7266: real time      0.7272
    TRIAL :  cpu time      0.8030: real time      0.8033
    CORREC:  cpu time      2.2550: real time      2.2555
    CHARGE:  cpu time      0.3867: real time      0.3873
    --------------------------------------------
      LOOP:  cpu time      5.1020: real time      5.1195

 eigenvalue-minimisations  :     0
 total energy-change (2. order) :-0.5518025E-02  (-0.1445339E-02)
 number of electron      87.9999998 magnetization 
 augmentation part       32.2319730 magnetization 

 Free energy of the ion-electron system (eV)
  ---------------------------------------------------
  alpha Z        PSCENC =         9.31836840
  Ewald energy   TEWEN  =      5700.99075705
  -Hartree energ DENC   =    -12778.80879049
  -exchange      EXHF   =         0.00000000
  -V(xc)+E(xc)   XCENC  =       111.41878903
  PAW double counting   =      7851.79829456    -7673.91643969
  entropy T*S    EENTRO =        -0.00000000
  eigenvalues    EBANDS =      -638.95157451
  atomic energy  EATOM  =      7402.52374884
  ---------------------------------------------------
  free energy    TOTEN  =       -15.62684681 eV

  energy without entropy =      -15.62684681  energy(sigma->0) =      -15.62684681


--------------------------------------------------------------------------------------------------------




--------------------------------------- Iteration      1(  12)  ---------------------------------------


    POTLOK:  cpu time      0.9082: real time      0.9076
    SETDIJ:  cpu time      0.7269: real time      0.7276
    TRIAL :  cpu time      0.7998: real time      0.8002
    CORREC:  cpu time      2.2414: real time      2.2422
    CHARGE:  cpu time      0.3877: real time      0.3875
    --------------------------------------------
      LOOP:  cpu time      5.0666: real time      5.0818

 eigenvalue-minimisations  :     0
 total energy-change (2. order) :-0.1443983E-02  (-0.2835273E-03)
 number of electron      87.9999998 magnetization 
 augmentation part       32.2321303 magnetization 

 Free energy of the ion-electron system (eV)
  ---------------------------------------------------
  alpha Z        PSCENC =         9.31836840
  Ewald energy   TEWEN  =      5700.99075705
  -Hartree energ DENC   =    -12780.59223277
  -exchange      EXHF   =         0.00000000
  -V(xc)+E(xc)   XCENC  =       111.45563079
  PAW double counting   =      7849.77250065    -7671.82963988
  entropy T*S    EENTRO =        -0.00000000
  eigenvalues    EBANDS =      -637.26742389
  atomic energy  EATOM  =      7402.52374884
  ---------------------------------------------------
  free energy    TOTEN  =       -15.62829080 eV

  energy without entropy =      -15.62829080  energy(sigma->0) =      -15.62829080


--------------------------------------------------------------------------------------------------------




--------------------------------------- Iteration      1(  13)  ---------------------------------------


    POTLOK:  cpu time      0.8971: real time      0.8976
    SETDIJ:  cpu time      0.7281: real time      0.7287
    TRIAL :  cpu time      0.7997: real time      0.7998
    CORREC:  cpu time      2.2426: real time      2.2439
    CHARGE:  cpu time      0.3950: real time      0.3948
    --------------------------------------------
      LOOP:  cpu time      5.0649: real time      5.0833

 eigenvalue-minimisations  :     0
 total energy-change (2. order) :-0.2839686E-03  (-0.3918500E-04)
 number of electron      87.9999998 magnetization 
 augmentation part       32.2327797 magnetization 

 Free energy of the ion-electron system (eV)
  ---------------------------------------------------
  alpha Z        PSCENC =         9.31836840
  Ewald energy   TEWEN  =      5700.99075705
  -Hartree energ DENC   =    -12780.68536309
  -exchange      EXHF   =         0.00000000
  -V(xc)+E(xc)   XCENC  =       111.45551867
  PAW double counting   =      7848.34317469    -7670.39246812
  entropy T*S    EENTRO =        -0.00000000
  eigenvalues    EBANDS =      -637.18231121
  atomic energy  EATOM  =      7402.52374884
  ---------------------------------------------------
  free energy    TOTEN  =       -15.62857477 eV

  energy without entropy =      -15.62857477  energy(sigma->0) =      -15.62857477


--------------------------------------------------------------------------------------------------------




--------------------------------------- Iteration      1(  14)  ---------------------------------------


    POTLOK:  cpu time      0.8956: real time      0.8960
    SETDIJ:  cpu time      0.7267: real time      0.7273
    TRIAL :  cpu time      0.8025: real time      0.8027
    CORREC:  cpu time      2.2905: real time      2.2911
    CHARGE:  cpu time      0.3907: real time      0.3914
    --------------------------------------------
      LOOP:  cpu time      5.1102: real time      5.1266

 eigenvalue-minimisations  :     0
 total energy-change (2. order) :-0.3905677E-04  (-0.9575836E-05)
 number of electron      87.9999998 magnetization 
 augmentation part       32.2328458 magnetization 

 Free energy of the ion-electron system (eV)
  ---------------------------------------------------
  alpha Z        PSCENC =         9.31836840
  Ewald energy   TEWEN  =      5700.99075705
  -Hartree energ DENC   =    -12780.65878722
  -exchange      EXHF   =         0.00000000
  -V(xc)+E(xc)   XCENC  =       111.45721750
  PAW double counting   =      7848.19853537    -7670.24434657
  entropy T*S    EENTRO =        -0.00000000
  eigenvalues    EBANDS =      -637.21410719
  atomic energy  EATOM  =      7402.52374884
  ---------------------------------------------------
  free energy    TOTEN  =       -15.62861382 eV

  energy without entropy =      -15.62861382  energy(sigma->0) =      -15.62861382


--------------------------------------------------------------------------------------------------------




--------------------------------------- Iteration      1(  15)  ---------------------------------------


    POTLOK:  cpu time      0.8964: real time      0.8968
    SETDIJ:  cpu time      0.7271: real time      0.7277
    TRIAL :  cpu time      0.8051: real time      0.8055
    CORREC:  cpu time      2.2357: real time      2.2365
    CHARGE:  cpu time      0.3865: real time      0.3863
    --------------------------------------------
      LOOP:  cpu time      5.0530: real time      5.0697

 eigenvalue-minimisations  :     0
 total energy-change (2. order) :-0.9571268E-05  (-0.2356485E-05)
 number of electron      87.9999998 magnetization 
 augmentation part       32.2326903 magnetization 

 Free energy of the ion-electron system (eV)
  ---------------------------------------------------
  alpha Z        PSCENC =         9.31836840
  Ewald energy   TEWEN  =      5700.99075705
  -Hartree energ DENC   =    -12780.73926254
  -exchange      EXHF   =         0.00000000
  -V(xc)+E(xc)   XCENC  =       111.45695485
  PAW double counting   =      7848.18774878    -7670.23297558
  entropy T*S    EENTRO =        -0.00000000
  eigenvalues    EBANDS =      -637.13396320
  atomic energy  EATOM  =      7402.52374884
  ---------------------------------------------------
  free energy    TOTEN  =       -15.62862339 eV

  energy without entropy =      -15.62862339  energy(sigma->0) =      -15.62862339


--------------------------------------------------------------------------------------------------------




--------------------------------------- Iteration      1(  16)  ---------------------------------------


    POTLOK:  cpu time      0.8949: real time      0.8955
    SETDIJ:  cpu time      0.7300: real time      0.7306
    TRIAL :  cpu time      0.8014: real time      0.8020
    CORREC:  cpu time      2.2358: real time      2.2363
    CHARGE:  cpu time      0.3863: real time      0.3862
    --------------------------------------------
      LOOP:  cpu time      5.0510: real time      5.0679

 eigenvalue-minimisations  :     0
 total energy-change (2. order) :-0.2463396E-05  (-0.7859157E-06)
 number of electron      87.9999998 magnetization 
 augmentation part       32.2328006 magnetization 

 Free energy of the ion-electron system (eV)
  ---------------------------------------------------
  alpha Z        PSCENC =         9.31836840
  Ewald energy   TEWEN  =      5700.99075705
  -Hartree energ DENC   =    -12780.68678812
  -exchange      EXHF   =         0.00000000
  -V(xc)+E(xc)   XCENC  =       111.45604492
  PAW double counting   =      7848.12586537    -7670.17113349
  entropy T*S    EENTRO =        -0.00000000
  eigenvalues    EBANDS =      -637.18548883
  atomic energy  EATOM  =      7402.52374884
  ---------------------------------------------------
  free energy    TOTEN  =       -15.62862586 eV

  energy without entropy =      -15.62862586  energy(sigma->0) =      -15.62862586


--------------------------------------------------------------------------------------------------------




--------------------------------------- Iteration      1(  17)  ---------------------------------------


    POTLOK:  cpu time      0.8956: real time      0.8961
    SETDIJ:  cpu time      0.7267: real time      0.7273
    TRIAL :  cpu time      0.8036: real time      0.8041
    CORREC:  cpu time      2.2356: real time      2.2364
    EDDIAG:  cpu time      0.3561: real time      0.3568
    CHARGE:  cpu time      0.3868: real time      0.3867
    --------------------------------------------
      LOOP:  cpu time      5.4208: real time      5.4238

 eigenvalue-minimisations  :     0
 total energy-change (2. order) :-0.5650581E-06  (-0.1466793E-06)
 number of electron      87.9999998 magnetization 
 augmentation part       32.2326973 magnetization 

 Free energy of the ion-electron system (eV)
  ---------------------------------------------------
  alpha Z        PSCENC =         9.31836840
  Ewald energy   TEWEN  =      5700.99075705
  -Hartree energ DENC   =    -12780.70849887
  -exchange      EXHF   =         0.00000000
  -V(xc)+E(xc)   XCENC  =       111.45687354
  PAW double counting   =      7848.11545902    -7670.16088901
  entropy T*S    EENTRO =        -0.00000000
  eigenvalues    EBANDS =      -637.16444539
  atomic energy  EATOM  =      7402.52374884
  ---------------------------------------------------
  free energy    TOTEN  =       -15.62862642 eV

  energy without entropy =      -15.62862642  energy(sigma->0) =      -15.62862642


--------------------------------------------------------------------------------------------------------


  average scaling for gradient   1.0681


 average (electrostatic) potential at core
  the test charge radii are     1.2098
  (the norm of the test charge is              1.0000)
       1 -76.8717       2 -76.7085       3 -76.7082       4 -76.7084       5 -76.8715
       6 -76.8739       7 -76.7083       8 -76.8739
 
 
 
 E-fermi :  -5.1240     XC(G=0):  -0.5069     alpha+bet : -0.2375

 Fermi energy:        -5.1239852410

 k-point     1 :       0.0000    0.0000    0.0000
  band No.  band energies     occupation 
      1     -10.6463      2.00000
      2      -9.9274      2.00000
      3      -9.9262      2.00000
      4      -9.0425      2.00000
      5      -8.6939      2.00000
      6      -8.5489      2.00000
      7      -8.5164      2.00000
      8      -8.2420      2.00000
      9      -8.2335      2.00000
     10      -8.1409      2.00000
     11      -8.1280      2.00000
     12      -8.1274      2.00000
     13      -7.6359      2.00000
     14      -7.5259      2.00000
     15      -7.3880      2.00000
     16      -7.3863      2.00000
     17      -7.3574      2.00000
     18      -7.2166      2.00000
     19      -7.2164      2.00000
     20      -7.1758      2.00000
     21      -7.1360      2.00000
     22      -7.1305      2.00000
     23      -7.1193      2.00000
     24      -7.1059      2.00000
     25      -6.9658      2.00000
     26      -6.6603      2.00000
     27      -6.6251      2.00000
     28      -6.6227      2.00000
     29      -6.6098      2.00000
     30      -6.6081      2.00000
     31      -6.4432      2.00000
     32      -6.3569      2.00000
     33      -6.3436      2.00000
     34      -6.3431      2.00000
     35      -6.2511      2.00000
     36      -6.1623      2.00000
     37      -6.0929      2.00000
     38      -6.0928      2.00000
     39      -6.0190      2.00000
     40      -5.9637      2.00000
     41      -5.8803      2.00000
     42      -5.8079      2.00000
     43      -5.8038      2.00000
     44      -5.3756      2.00000
     45      -4.0084      0.00000
     46      -3.2327      0.00000
     47      -2.7702      0.00000
     48      -2.7687      0.00000
     49      -1.9699      0.00000
     50      -1.0118      0.00000
     51      -0.9523      0.00000
     52      -0.9495      0.00000
     53      -0.7614      0.00000
     54      -0.7601      0.00000
     55      -0.0995      0.00000
     56       0.0907      0.00000
     57       0.1452      0.00000
     58       0.4546      0.00000
     59       0.4958      0.00000
     60       0.5033      0.00000
     61       0.5130      0.00000
     62       0.5361      0.00000
     63       0.5420      0.00000
     64       0.5606      0.00000


--------------------------------------------------------------------------------------------------------


 soft charge-density along one line, spin component           1
         0         1         2         3         4         5         6         7         8         9
 total charge-density along one line
 
 pseudopotential strength for first ion, spin component:           1
 -9.208   0.000   0.028   0.051   0.000  -9.328   0.000   0.027
  0.000  -9.236   0.032  -0.020  -0.046   0.000  -9.355   0.031
  0.028   0.032  -9.239  -0.008   0.003   0.027   0.031  -9.358
  0.051  -0.020  -0.008  -9.234  -0.005   0.050  -0.020  -0.008
  0.000  -0.046   0.003  -0.005  -9.200   0.000  -0.045   0.003
 -9.328   0.000   0.027   0.050   0.000  -9.433   0.000   0.026
  0.000  -9.355   0.031  -0.020  -0.045   0.000  -9.459   0.030
  0.027   0.031  -9.358  -0.008   0.003   0.026   0.030  -9.461
  0.050  -0.020  -0.008  -9.354  -0.005   0.049  -0.019  -0.008
  0.000  -0.045   0.003  -0.005  -9.321   0.000  -0.044   0.003
  0.019  -0.050   0.018  -0.000  -0.004   0.019  -0.050   0.018
  0.028  -0.073   0.027  -0.001  -0.006   0.028  -0.073   0.027
  0.003   0.001  -0.000   0.000  -0.001   0.003   0.001  -0.000
  0.000   0.001   0.001   0.003   0.000   0.000   0.001   0.001
  0.001   0.000  -0.002   0.001   0.003   0.001   0.000  -0.002
  0.003   0.001  -0.000   0.000  -0.001   0.003   0.001  -0.000
  0.000   0.001   0.001   0.003   0.000   0.000   0.001   0.001
  0.001   0.000  -0.002   0.001   0.003   0.001   0.000  -0.002
 total augmentation occupancy for first ion, spin component:           1
  3.412  -0.162  -0.136  -0.413   0.009  -1.372   0.228   0.266   0.648  -0.006  -0.710   0.139   0.029   0.008   0.036   0.001
 -0.162   4.140  -0.439   0.211   0.525   0.229  -2.221   0.599  -0.253  -0.646   1.935  -0.337   0.016   0.017   0.034   0.002
 -0.136  -0.439   3.807  -0.055  -0.005   0.266   0.600  -1.784  -0.065   0.033  -0.728   0.117  -0.015  -0.005  -0.051   0.001
 -0.413   0.211  -0.055   3.630   0.050   0.648  -0.254  -0.065  -1.635  -0.071   0.072   0.010   0.012   0.048   0.071   0.001
  0.009   0.525  -0.005   0.050   3.428  -0.005  -0.648   0.034  -0.071  -1.227   0.220  -0.013   0.014   0.031   0.094  -0.001
 -1.372   0.229   0.266   0.648  -0.005   1.285  -0.284  -0.366  -0.832   0.001   0.646  -0.149  -0.035  -0.008  -0.041   0.002
  0.228  -2.221   0.600  -0.254  -0.648  -0.284   2.238  -0.728   0.286   0.741  -1.780   0.390  -0.017  -0.017  -0.032   0.000
  0.266   0.599  -1.784  -0.065   0.034  -0.366  -0.728   1.710   0.160  -0.056   0.674  -0.143   0.016   0.002   0.055  -0.001
  0.648  -0.253  -0.065  -1.635  -0.071  -0.832   0.286   0.160   1.582   0.085  -0.076   0.006  -0.011  -0.056  -0.076  -0.001
 -0.006  -0.646   0.033  -0.071  -1.227   0.001   0.741  -0.056   0.085   1.012  -0.214   0.034  -0.014  -0.032  -0.102   0.001
 -0.710   1.935  -0.728   0.072   0.220   0.646  -1.780   0.674  -0.076  -0.214   2.378  -0.485  -0.016  -0.027  -0.066   0.001
  0.139  -0.337   0.117   0.010  -0.013  -0.149   0.390  -0.143   0.006   0.034  -0.485   0.113   0.006   0.011   0.027  -0.000
  0.029   0.016  -0.015   0.012   0.014  -0.035  -0.017   0.016  -0.011  -0.014  -0.016   0.006   0.107  -0.095   0.031  -0.004
  0.008   0.017  -0.005   0.048   0.031  -0.008  -0.017   0.002  -0.056  -0.032  -0.027   0.011  -0.095   0.156  -0.009   0.003
  0.036   0.034  -0.051   0.071   0.094  -0.041  -0.032   0.055  -0.076  -0.102  -0.066   0.027   0.031  -0.009   0.073  -0.001
  0.001   0.002   0.001   0.001  -0.001   0.002   0.000  -0.001  -0.001   0.001   0.001  -0.000  -0.004   0.003  -0.001   0.000
  0.001   0.002  -0.000   0.001  -0.001  -0.001  -0.000   0.001   0.003   0.001   0.002  -0.001   0.003  -0.005   0.000  -0.000
 -0.001   0.002  -0.002   0.000   0.002   0.002  -0.001  -0.001   0.002   0.003   0.005  -0.001  -0.001   0.000  -0.003   0.000


------------------------ aborting loop because EDIFF is reached ----------------------------------------


    FORLOC:  cpu time      0.0738: real time      0.0738
    FORNL :  cpu time      0.5700: real time      0.5706
    STRESS:  cpu time      1.6196: real time      1.6199
    FORCOR:  cpu time      0.7876: real time      0.7880
    OFIELD:  cpu time      0.0026: real time      0.0026

 ---------------------------------------------------------------------------------------------

         DFTD3 V3.0 Rev 1        
 IVDW         = 11
 DF revpbe    
 parameters
 VDW_S6       =    1.0000
 VDW_S8       =    1.0100
 VDW_SR       =    0.9230
 rs18     =    1.0000
 alpha6   =   14.0000
 alpha8   =   16.0000
 k1-k3    =   16.0000    1.3333   -4.0000
 VDW_RADIUS   =   50.2022 A
 VDW_CNRADIUS =   21.1671 A
 Edisp (eV)   -0.85688

 E6    (eV) :    -0.4105
 E8    (eV) :    -0.4464
 % E8        : 52.09
    FORVDW:  cpu time      0.0181: real time      0.0182

  FORCE on cell =-STRESS in cart. coord.  units (eV):
  Direction    XX          YY          ZZ          XY          YZ          ZX
  --------------------------------------------------------------------------------------
  Alpha Z     9.31837     9.31837     9.31837
  Ewald    3139.86093   250.68105  2310.44516  1883.96329 -2510.10911  1303.98451
  Hartree  5250.15673  2942.67729  4587.86064  1471.59325 -1962.07589  1017.99295
  E(xc)    -395.43208  -398.07746  -396.19181     1.89510    -2.51735     1.31469
  Local   -9741.80632 -4582.41797 -8260.82463 -3328.88652  4436.77003 -2303.46531
  n-local   -20.06504    -6.28149   -16.07956    -9.86283    13.09561    -6.84740
  augment   533.35198   540.34884   535.36385    -5.00957     6.65344    -3.47684
  Kinetic  1227.37522  1245.08625  1232.46655   -12.67860    16.84018    -8.79724
  Fock        0.00000     0.00000     0.00000     0.00000     0.00000     0.00000
  vdW        -0.04500    -0.02569    -0.04221    -0.01544     0.02243    -0.00999
  -------------------------------------------------------------------------------------
  Total       2.71479     1.30918     2.31637     0.99868    -1.32066     0.69537
  in kB       0.54370     0.26219     0.46390     0.20001    -0.26449     0.13926
  external pressure =        0.42 kB  Pullay stress =        0.00 kB


 VOLUME and BASIS-vectors are now :
 -----------------------------------------------------------------------------
  energy-cutoff  :      520.00
  volume of cell :     8000.00
      direct lattice vectors                 reciprocal lattice vectors
    20.000000000  0.000000000  0.000000000     0.050000000  0.000000000  0.000000000
     0.000000000 20.000000000  0.000000000     0.000000000  0.050000000  0.000000000
     0.000000000  0.000000000 20.000000000     0.000000000  0.000000000  0.050000000

  length of vectors
    20.000000000 20.000000000 20.000000000     0.050000000  0.050000000  0.050000000


 FORCES acting on ions:
    Electron-Ion                     Ewald-Force                    Non-Local-Force
 -----------------------------------------------------------------------------------------------
   -.387E+03 -.937E+02 -.157E+03   0.387E+03 0.936E+02 0.156E+03   0.826E+00 0.198E+00 0.336E+00
   -.356E+03 0.190E+03 -.543E+03   0.352E+03 -.188E+03 0.537E+03   0.422E+01 -.224E+01 0.646E+01
   0.357E+03 -.193E+03 0.541E+03   -.353E+03 0.191E+03 -.535E+03   -.424E+01 0.228E+01 -.642E+01
   0.509E+03 0.402E+03 -.193E+03   -.504E+03 -.398E+03 0.191E+03   -.606E+01 -.475E+01 0.228E+01
   0.387E+03 0.953E+02 0.158E+03   -.386E+03 -.951E+02 -.157E+03   -.822E+00 -.209E+00 -.340E+00
   -.693E+02 -.266E+03 0.331E+03   0.692E+02 0.266E+03 -.330E+03   0.149E+00 0.581E+00 -.724E+00
   -.510E+03 -.401E+03 0.194E+03   0.504E+03 0.396E+03 -.192E+03   0.607E+01 0.474E+01 -.229E+01
   0.693E+02 0.266E+03 -.330E+03   -.691E+02 -.266E+03 0.330E+03   -.151E+00 -.582E+00 0.722E+00
 -----------------------------------------------------------------------------------------------
   0.145E-01 -.257E-01 -.185E-01   -.853E-13 0.568E-13 0.568E-13   -.142E-01 0.226E-01 0.179E-01
 
 
 POSITION                                       TOTAL-FORCE (eV/Angst)
 -----------------------------------------------------------------------------------
     11.74630     10.42503     10.70172         0.109232      0.027385      0.046352
     11.88015      8.99678     12.87644         0.210153     -0.112054      0.324891
      8.11115     11.02000      7.12329        -0.210403      0.112892     -0.323542
      7.29668      7.87993     11.01831        -0.304633     -0.242776      0.113942
      8.25169      9.57829      9.28880        -0.109557     -0.026424     -0.044453
     10.31108     11.19948      8.50656         0.019233      0.075361     -0.096270
     12.70338     12.11980      8.97008         0.306315      0.241134     -0.116044
      9.68592      8.80602     11.48594        -0.020341     -0.075519      0.095123
 -----------------------------------------------------------------------------------
    total drift:                                0.000341     -0.003064     -0.000594


--------------------------------------------------------------------------------------------------------



  FREE ENERGIE OF THE ION-ELECTRON SYSTEM (eV)
  ---------------------------------------------------
  free  energy   TOTEN  =       -16.48550151 eV

  energy  without entropy=      -16.48550151  energy(sigma->0) =      -16.48550151
 


--------------------------------------------------------------------------------------------------------


    POTLOK:  cpu time      1.6446: real time      1.6441


--------------------------------------------------------------------------------------------------------


     LOOP+:  cpu time     80.1193: real time     80.5104
    4ORBIT:  cpu time      0.0000: real time      0.0000

 total amount of memory used by VASP MPI-rank0   234222. kBytes
=======================================================================

   base      :      30000. kBytes
   nonlr-proj:       7968. kBytes
   fftplans  :      28721. kBytes
   grid      :     157056. kBytes
   one-center:        124. kBytes
   wavefun   :      10353. kBytes
 
  
  
 General timing and accounting informations for this job:
 ========================================================
  
                  Total CPU time used (sec):       93.952
                            User time (sec):       91.201
                          System time (sec):        2.751
                         Elapsed time (sec):       95.421
  
                   Maximum memory used (kb):     1183812.
                   Average memory used (kb):          N/A
  
                          Minor page faults:       114978
                          Major page faults:            0
                 Voluntary context switches:         5336
