 **********************************************************************
                          MRCC program system
 **********************************************************************
 
                              Written by
     Mihaly Kallay, Peter R. Nagy, David Mester, Laszlo Gyevi-Nagy,
        Jozsef Csoka, P. Bernat Szabo, Zoltan Rolik, Gyula Samu,
     Jozsef Csontos, Bence Hegely, Adam Ganyecz, Istvan Ladjanszki,
       Lorant Szegedy, Bence Ladoczki, Klara Petrov, Mate Farkas,
                    Pal D. Mezei, and Reka A. Horvath
 
        Department of Physical Chemistry and Materials Science
            Budapest University of Technology and Economics
                  Budapest P.O.Box 91, H-1521 Hungary
 
                              www.mrcc.hu
 
                      Release date: March 18, 2022

 ************************ 2022-12-22 19:35:09 *************************
 Executing minp...

 Reading input from MINP...
 
 Input file:
 
calc=LNO-CCSD(T)
verbosity=3
mem=220GB
symm=off
unit=angs
scfiguess=small
scfalg=locfit1
lcorthr=normal
bpedo=0.99999
usedisk=0
ccmaxit=400
ccsdalg=dfdirect
ccsdthreads=4
ccsdmkl=thr
ptthreads=4
ECP=MCDHF-ECP-28
basis=bse_ACVTZ
basis_sm=def2-SVP
dfbasis_scf=def2-QZVPP-RI-JK
dfbasis_cor=bse_ACVTZ_mp2fit
core=0
unit=angs
geom=xyz
6
Ag6_1
Ag     0.48723644    -1.36694191    -0.65968643
Ag    -0.96141172    -0.02716050     1.27096255
Ag    -0.92764972    -2.68976596     1.17007618
Ag     0.47720537     1.39382281    -0.60904361
Ag     1.85991164     0.05219284    -2.44996021
Ag    -0.93529201     2.63785272     1.27765152

ghost=serialno


 
 
 Checking keyword combinations...
 
 Keywords:
 
 active=none
 agrid=ld0006-ld0590
 agrid_pssp=ld0006-ld0194
 agrid_pssp_sm=ld0006-ld0074
 basis=bse_acvtz
 basis_sm=def2-svp
 basopt=off
 bfbasis=none
 bfgsmem=10
 bfgstol=1.0d-3
 bpcompo=0.985
 bpcompv=0.98
 bpdfo=0.985
 bpocc=0.99999
 bppdo=0.999d0
 bppdv=0.98
 bpedo=0.99999
 bpedv=0.995d0
 calc=ccsd(t)
 ccmaxit=400
 ccprog=ccsd
 ccsdalg=dfdirect
 ccsdmkl=thr
 ccsdrest=off
 ccsdthreads=4
 cctol=5
 charge=0
 cialg=direct
 ciguess=off
 cmpgrp=auto
 comprest=off
 core=corr
 corembed=off
 csapprox=off
 cvs=off
 dboc=off
 delocsomofact=
 dendec=cholesky
 dens=0
 dfalg=lineq
 dfbasis_cab=none
 dfbasis_cor=bse_acvtz_mp2fit
 dfbasis_scf=def2-qzvpp-ri-jk
 dfbasis_scf_sm=def2-qzvpp-ri-jk
 dfintran=drpa
 dft=off
 dhexc=adc(2)
 diag=david
 docc=
 domrad=10.d0
 drpaalg=auto
 dual=off
 dual_df=off
 ecp=mcdhf-ecp-28
 edisp=off
 edisp_embed=off
 embed=off
 etemp=300
 epert=none
 eps=
 espcharge=off
 excrad=1.0
 excrad_fin=0.100000000D-02
 fitting=coulomb
 fmm=off
 fmmord=8
 freq=off
 gamma=1.d0
 gauss=spher
 geom=xyz
 gopt=off
 ghost=serialno
 gtol=7
 grdens=off
 gridbatch_cos=2000
 grtol=10
 guido_ct=off
 hamilton=dc
 iface=none
 intalg=auto
 itol=10
 laptol=1.d-2
 lccoporder=lccfirst
 lcorthr=normal
 lccrest=off
 lmp2dens=on
 lnoepso=1e-5
 lnoepsv=1e-6
 boysalg=jacobi
 localcc=2021
 localcorrsymm=off
 locintrf=direct
 mact=
 maxact=off
 maxdim=100
 maxex=0
 maxmicroit=100
 mcscfiguess=hf
 mem=220gb
 mmprog=
 molden=on
 mpitasks=1
 mulmet=3
 mult=
 nacto=0
 nactv=0
 naf_amp=1.d-2
 naf_cor=1e-2
 naf_scf=off
 nafalg=albe
 naftyp=jpq
 nchol=auto
 ndeps=1e-3
 nstate=1
 nsing=0
 nto=off
 ntrip=0
 occ=
 occri=off
 oniom=off
 oniom_eechg=off
 oniom_pcm=off
 oniom_qcorr=off
 optalg=
 optmaxit=50
 optetol=1e-6
 optex=0
 optgtol=1e-4
 optstol=1e-3
 orblocc=boys
 orbloce=off
 orbloco=boys
 orblocv=pao
 orblocguess=cholesky
 osveps=-1.d0
 ovirt=off
 ovltol=1e-7
 ovosnorb=80.0
 pcm=off
 popul=off
 pressure=100000
 pssp=off
 ptfreq=0.0
 ptthreads=4
 qro=off
 qscf=off
 qmmm=off
 redcost_exc=off
 redcost_tddft=0.985d0
 refdet=none
 rest=0
 rgrid=log3
 rism=off
 rohfcore=standard
 rohftype=semicanonical
 scfalg=locfit1
 scf_conv=difficult
 scfdamp=0.0d0
 scfdamp_mode=off
 scfdamp_end=50
 scfdamp_dampstep=0.d0
 scfdamp_dtol=0.0d0
 scfdamp_maxfact=0.0d0
 scfdamp_minfact=0.0d0
 scfdiis=on
 scfdiis_dtol=0.0d0
 scfdiis_end=50
 scfdiis_start=2
 scfdiis_step=1
 scfdiis_watch=off
 scfdiis_wrange=10
 scfdiis_wlimit=5
 scfdiis_delmax=2
 scfdtol=7
 scfext=10
 scfguessdens=
 scfiguess=small
 scfloc=pm
 scflshift=0.20
 scflshift_end=8
 scflshift_dtol=0.0
 scflshift_gaptol=0.20
 scfmaxit=50
 scftype=
 scftol=6
 scspe=1.d0
 scsph=1.d0
 scsps=1.2d0
 scsps_t=1.2d0
 scspt=0.33333333333333
 scspt_t=0.33333333333333
 scspv=1.d0
 spairtol=-1.d0
 sqmprog=
 subminp=top
 symm=0
 talg=lapl
 temp=298.15
 test=off
 theodore=off
 tlmo=0.999
 tpao=0.94
 tprint=off
 uncontract=off
 unit=angs
 usedisk=0
 verbosity=3
 wpairtol=1.d-5
 
 Calculating integrals for small-basis SCF...

 ************************ 2022-12-22 19:35:10 *************************
 Executing integ...

 Allocation of 220.0 Gbytes of memory...
 
 
 Number of atoms:                  6
 Charge:                           0
 Number of electrons:            114
 Number of core electrons:        48
 Spin multiplicity:                1
 
                 Cartesian coordinates [bohr]      Atomic mass [AMU]  Z
   1  Ag    0.92074343   -2.58314584   -1.24662668   106.905092      47
   2  Ag   -1.81680484   -0.05132591    2.40177114   106.905092      47
   3  Ag   -1.75300391   -5.08292101    2.21112353   106.905092      47
   4  Ag    0.90178745    2.63394338   -1.15092562   106.905092      47
   5  Ag    3.51472362    0.09863017   -4.62975382   106.905092      47
   6  Ag   -1.76744575    4.98481920    2.41441146   106.905092      47
 
 This molecule is an asymmetric top.
 
 Point group: C1  
 Computational point group: C1  
 
 Cartesian coordinates in standard orientation [bohr]
   1  Ag   -2.26733337   -1.98334158    0.00667328
   2  Ag   -0.58470435    2.95465879    0.00556882
   3  Ag   -5.50310168    1.87456892   -0.00625771
   4  Ag    2.85160899   -0.97149781   -0.00512529
   5  Ag    1.12824941   -5.70304157   -0.00071571
   6  Ag    4.37528100    3.82865326   -0.00014338
 
 Nuclear repulsion energy [au]:        867.938529659799
 
 
 Basis set information:
 
 Maximum angular momentum: i
 Maximum number of contracted Gaussians:   11
 Maximum number of primitive Gaussians:    13
 Spherical harmonic GTOs are used.
 
 
 Conventional basis set:
 
   1  Ag def2-svp [ 7s 6p 5d 1f | 5s 3p 2d 1f ]
   2  Ag def2-svp [ 7s 6p 5d 1f | 5s 3p 2d 1f ]
   3  Ag def2-svp [ 7s 6p 5d 1f | 5s 3p 2d 1f ]
   4  Ag def2-svp [ 7s 6p 5d 1f | 5s 3p 2d 1f ]
   5  Ag def2-svp [ 7s 6p 5d 1f | 5s 3p 2d 1f ]
   6  Ag def2-svp [ 7s 6p 5d 1f | 5s 3p 2d 1f ]
 
 Basis functions:
            1             2             3             4             5             6             7             8             9            10
    0    1Ag1s         1Ag2s         1Ag3s         1Ag4s         1Ag5s         1Ag1pz        1Ag1py        1Ag1px        1Ag2pz        1Ag2py    
    1    1Ag2px        1Ag3pz        1Ag3py        1Ag3px        1Ag1d-2       1Ag1d-1       1Ag1d0        1Ag1d+1       1Ag1d+2       1Ag2d-2   
    2    1Ag2d-1       1Ag2d0        1Ag2d+1       1Ag2d+2       1Ag1f-3       1Ag1f-2       1Ag1f-1       1Ag1f0        1Ag1f+1       1Ag1f+2   
    3    1Ag1f+3       2Ag1s         2Ag2s         2Ag3s         2Ag4s         2Ag5s         2Ag1pz        2Ag1py        2Ag1px        2Ag2pz    
    4    2Ag2py        2Ag2px        2Ag3pz        2Ag3py        2Ag3px        2Ag1d-2       2Ag1d-1       2Ag1d0        2Ag1d+1       2Ag1d+2   
    5    2Ag2d-2       2Ag2d-1       2Ag2d0        2Ag2d+1       2Ag2d+2       2Ag1f-3       2Ag1f-2       2Ag1f-1       2Ag1f0        2Ag1f+1   
    6    2Ag1f+2       2Ag1f+3       3Ag1s         3Ag2s         3Ag3s         3Ag4s         3Ag5s         3Ag1pz        3Ag1py        3Ag1px    
    7    3Ag2pz        3Ag2py        3Ag2px        3Ag3pz        3Ag3py        3Ag3px        3Ag1d-2       3Ag1d-1       3Ag1d0        3Ag1d+1   
    8    3Ag1d+2       3Ag2d-2       3Ag2d-1       3Ag2d0        3Ag2d+1       3Ag2d+2       3Ag1f-3       3Ag1f-2       3Ag1f-1       3Ag1f0    
    9    3Ag1f+1       3Ag1f+2       3Ag1f+3       4Ag1s         4Ag2s         4Ag3s         4Ag4s         4Ag5s         4Ag1pz        4Ag1py    
   10    4Ag1px        4Ag2pz        4Ag2py        4Ag2px        4Ag3pz        4Ag3py        4Ag3px        4Ag1d-2       4Ag1d-1       4Ag1d0    
   11    4Ag1d+1       4Ag1d+2       4Ag2d-2       4Ag2d-1       4Ag2d0        4Ag2d+1       4Ag2d+2       4Ag1f-3       4Ag1f-2       4Ag1f-1   
   12    4Ag1f0        4Ag1f+1       4Ag1f+2       4Ag1f+3       5Ag1s         5Ag2s         5Ag3s         5Ag4s         5Ag5s         5Ag1pz    
   13    5Ag1py        5Ag1px        5Ag2pz        5Ag2py        5Ag2px        5Ag3pz        5Ag3py        5Ag3px        5Ag1d-2       5Ag1d-1   
   14    5Ag1d0        5Ag1d+1       5Ag1d+2       5Ag2d-2       5Ag2d-1       5Ag2d0        5Ag2d+1       5Ag2d+2       5Ag1f-3       5Ag1f-2   
   15    5Ag1f-1       5Ag1f0        5Ag1f+1       5Ag1f+2       5Ag1f+3       6Ag1s         6Ag2s         6Ag3s         6Ag4s         6Ag5s     
   16    6Ag1pz        6Ag1py        6Ag1px        6Ag2pz        6Ag2py        6Ag2px        6Ag3pz        6Ag3py        6Ag3px        6Ag1d-2   
   17    6Ag1d-1       6Ag1d0        6Ag1d+1       6Ag1d+2       6Ag2d-2       6Ag2d-1       6Ag2d0        6Ag2d+1       6Ag2d+2       6Ag1f-3   
   18    6Ag1f-2       6Ag1f-1       6Ag1f0        6Ag1f+1       6Ag1f+2       6Ag1f+3   
 
 Maximum number of basis functions per shell:   10
 Total number of basis functions:    186
 
 
 Fitting basis set for the SCF calculation:
 
   1  Ag def2-qzvpp-ri-jk [ 13s 12p 10d 9f 6g 3h 2i | 11s 10p 9d 8f 6g 3h 2i ]
   2  Ag def2-qzvpp-ri-jk [ 13s 12p 10d 9f 6g 3h 2i | 11s 10p 9d 8f 6g 3h 2i ]
   3  Ag def2-qzvpp-ri-jk [ 13s 12p 10d 9f 6g 3h 2i | 11s 10p 9d 8f 6g 3h 2i ]
   4  Ag def2-qzvpp-ri-jk [ 13s 12p 10d 9f 6g 3h 2i | 11s 10p 9d 8f 6g 3h 2i ]
   5  Ag def2-qzvpp-ri-jk [ 13s 12p 10d 9f 6g 3h 2i | 11s 10p 9d 8f 6g 3h 2i ]
   6  Ag def2-qzvpp-ri-jk [ 13s 12p 10d 9f 6g 3h 2i | 11s 10p 9d 8f 6g 3h 2i ]
 
 Basis functions:
            1             2             3             4             5             6             7             8             9            10
    0    1Ag1s         1Ag2s         1Ag3s         1Ag4s         1Ag5s         1Ag6s         1Ag7s         1Ag8s         1Ag9s         1Ag10s    
    1    1Ag11s        1Ag1pz        1Ag1py        1Ag1px        1Ag2pz        1Ag2py        1Ag2px        1Ag3pz        1Ag3py        1Ag3px    
    2    1Ag4pz        1Ag4py        1Ag4px        1Ag5pz        1Ag5py        1Ag5px        1Ag6pz        1Ag6py        1Ag6px        1Ag7pz    
    3    1Ag7py        1Ag7px        1Ag8pz        1Ag8py        1Ag8px        1Ag9pz        1Ag9py        1Ag9px        1Ag10pz       1Ag10py   
    4    1Ag10px       1Ag1d-2       1Ag1d-1       1Ag1d0        1Ag1d+1       1Ag1d+2       1Ag2d-2       1Ag2d-1       1Ag2d0        1Ag2d+1   
    5    1Ag2d+2       1Ag3d-2       1Ag3d-1       1Ag3d0        1Ag3d+1       1Ag3d+2       1Ag4d-2       1Ag4d-1       1Ag4d0        1Ag4d+1   
    6    1Ag4d+2       1Ag5d-2       1Ag5d-1       1Ag5d0        1Ag5d+1       1Ag5d+2       1Ag6d-2       1Ag6d-1       1Ag6d0        1Ag6d+1   
    7    1Ag6d+2       1Ag7d-2       1Ag7d-1       1Ag7d0        1Ag7d+1       1Ag7d+2       1Ag8d-2       1Ag8d-1       1Ag8d0        1Ag8d+1   
    8    1Ag8d+2       1Ag9d-2       1Ag9d-1       1Ag9d0        1Ag9d+1       1Ag9d+2       1Ag1f-3       1Ag1f-2       1Ag1f-1       1Ag1f0    
    9    1Ag1f+1       1Ag1f+2       1Ag1f+3       1Ag2f-3       1Ag2f-2       1Ag2f-1       1Ag2f0        1Ag2f+1       1Ag2f+2       1Ag2f+3   
   10    1Ag3f-3       1Ag3f-2       1Ag3f-1       1Ag3f0        1Ag3f+1       1Ag3f+2       1Ag3f+3       1Ag4f-3       1Ag4f-2       1Ag4f-1   
   11    1Ag4f0        1Ag4f+1       1Ag4f+2       1Ag4f+3       1Ag5f-3       1Ag5f-2       1Ag5f-1       1Ag5f0        1Ag5f+1       1Ag5f+2   
   12    1Ag5f+3       1Ag6f-3       1Ag6f-2       1Ag6f-1       1Ag6f0        1Ag6f+1       1Ag6f+2       1Ag6f+3       1Ag7f-3       1Ag7f-2   
   13    1Ag7f-1       1Ag7f0        1Ag7f+1       1Ag7f+2       1Ag7f+3       1Ag8f-3       1Ag8f-2       1Ag8f-1       1Ag8f0        1Ag8f+1   
   14    1Ag8f+2       1Ag8f+3       1Ag1g-4       1Ag1g-3       1Ag1g-2       1Ag1g-1       1Ag1g0        1Ag1g+1       1Ag1g+2       1Ag1g+3   
   15    1Ag1g+4       1Ag2g-4       1Ag2g-3       1Ag2g-2       1Ag2g-1       1Ag2g0        1Ag2g+1       1Ag2g+2       1Ag2g+3       1Ag2g+4   
   16    1Ag3g-4       1Ag3g-3       1Ag3g-2       1Ag3g-1       1Ag3g0        1Ag3g+1       1Ag3g+2       1Ag3g+3       1Ag3g+4       1Ag4g-4   
   17    1Ag4g-3       1Ag4g-2       1Ag4g-1       1Ag4g0        1Ag4g+1       1Ag4g+2       1Ag4g+3       1Ag4g+4       1Ag5g-4       1Ag5g-3   
   18    1Ag5g-2       1Ag5g-1       1Ag5g0        1Ag5g+1       1Ag5g+2       1Ag5g+3       1Ag5g+4       1Ag6g-4       1Ag6g-3       1Ag6g-2   
   19    1Ag6g-1       1Ag6g0        1Ag6g+1       1Ag6g+2       1Ag6g+3       1Ag6g+4       1Ag1h-5       1Ag1h-4       1Ag1h-3       1Ag1h-2   
   20    1Ag1h-1       1Ag1h0        1Ag1h+1       1Ag1h+2       1Ag1h+3       1Ag1h+4       1Ag1h+5       1Ag2h-5       1Ag2h-4       1Ag2h-3   
   21    1Ag2h-2       1Ag2h-1       1Ag2h0        1Ag2h+1       1Ag2h+2       1Ag2h+3       1Ag2h+4       1Ag2h+5       1Ag3h-5       1Ag3h-4   
   22    1Ag3h-3       1Ag3h-2       1Ag3h-1       1Ag3h0        1Ag3h+1       1Ag3h+2       1Ag3h+3       1Ag3h+4       1Ag3h+5       1Ag1i-6   
   23    1Ag1i-5       1Ag1i-4       1Ag1i-3       1Ag1i-2       1Ag1i-1       1Ag1i0        1Ag1i+1       1Ag1i+2       1Ag1i+3       1Ag1i+4   
   24    1Ag1i+5       1Ag1i+6       1Ag2i-6       1Ag2i-5       1Ag2i-4       1Ag2i-3       1Ag2i-2       1Ag2i-1       1Ag2i0        1Ag2i+1   
   25    1Ag2i+2       1Ag2i+3       1Ag2i+4       1Ag2i+5       1Ag2i+6       2Ag1s         2Ag2s         2Ag3s         2Ag4s         2Ag5s     
   26    2Ag6s         2Ag7s         2Ag8s         2Ag9s         2Ag10s        2Ag11s        2Ag1pz        2Ag1py        2Ag1px        2Ag2pz    
   27    2Ag2py        2Ag2px        2Ag3pz        2Ag3py        2Ag3px        2Ag4pz        2Ag4py        2Ag4px        2Ag5pz        2Ag5py    
   28    2Ag5px        2Ag6pz        2Ag6py        2Ag6px        2Ag7pz        2Ag7py        2Ag7px        2Ag8pz        2Ag8py        2Ag8px    
   29    2Ag9pz        2Ag9py        2Ag9px        2Ag10pz       2Ag10py       2Ag10px       2Ag1d-2       2Ag1d-1       2Ag1d0        2Ag1d+1   
   30    2Ag1d+2       2Ag2d-2       2Ag2d-1       2Ag2d0        2Ag2d+1       2Ag2d+2       2Ag3d-2       2Ag3d-1       2Ag3d0        2Ag3d+1   
   31    2Ag3d+2       2Ag4d-2       2Ag4d-1       2Ag4d0        2Ag4d+1       2Ag4d+2       2Ag5d-2       2Ag5d-1       2Ag5d0        2Ag5d+1   
   32    2Ag5d+2       2Ag6d-2       2Ag6d-1       2Ag6d0        2Ag6d+1       2Ag6d+2       2Ag7d-2       2Ag7d-1       2Ag7d0        2Ag7d+1   
   33    2Ag7d+2       2Ag8d-2       2Ag8d-1       2Ag8d0        2Ag8d+1       2Ag8d+2       2Ag9d-2       2Ag9d-1       2Ag9d0        2Ag9d+1   
   34    2Ag9d+2       2Ag1f-3       2Ag1f-2       2Ag1f-1       2Ag1f0        2Ag1f+1       2Ag1f+2       2Ag1f+3       2Ag2f-3       2Ag2f-2   
   35    2Ag2f-1       2Ag2f0        2Ag2f+1       2Ag2f+2       2Ag2f+3       2Ag3f-3       2Ag3f-2       2Ag3f-1       2Ag3f0        2Ag3f+1   
   36    2Ag3f+2       2Ag3f+3       2Ag4f-3       2Ag4f-2       2Ag4f-1       2Ag4f0        2Ag4f+1       2Ag4f+2       2Ag4f+3       2Ag5f-3   
   37    2Ag5f-2       2Ag5f-1       2Ag5f0        2Ag5f+1       2Ag5f+2       2Ag5f+3       2Ag6f-3       2Ag6f-2       2Ag6f-1       2Ag6f0    
   38    2Ag6f+1       2Ag6f+2       2Ag6f+3       2Ag7f-3       2Ag7f-2       2Ag7f-1       2Ag7f0        2Ag7f+1       2Ag7f+2       2Ag7f+3   
   39    2Ag8f-3       2Ag8f-2       2Ag8f-1       2Ag8f0        2Ag8f+1       2Ag8f+2       2Ag8f+3       2Ag1g-4       2Ag1g-3       2Ag1g-2   
   40    2Ag1g-1       2Ag1g0        2Ag1g+1       2Ag1g+2       2Ag1g+3       2Ag1g+4       2Ag2g-4       2Ag2g-3       2Ag2g-2       2Ag2g-1   
   41    2Ag2g0        2Ag2g+1       2Ag2g+2       2Ag2g+3       2Ag2g+4       2Ag3g-4       2Ag3g-3       2Ag3g-2       2Ag3g-1       2Ag3g0    
   42    2Ag3g+1       2Ag3g+2       2Ag3g+3       2Ag3g+4       2Ag4g-4       2Ag4g-3       2Ag4g-2       2Ag4g-1       2Ag4g0        2Ag4g+1   
   43    2Ag4g+2       2Ag4g+3       2Ag4g+4       2Ag5g-4       2Ag5g-3       2Ag5g-2       2Ag5g-1       2Ag5g0        2Ag5g+1       2Ag5g+2   
   44    2Ag5g+3       2Ag5g+4       2Ag6g-4       2Ag6g-3       2Ag6g-2       2Ag6g-1       2Ag6g0        2Ag6g+1       2Ag6g+2       2Ag6g+3   
   45    2Ag6g+4       2Ag1h-5       2Ag1h-4       2Ag1h-3       2Ag1h-2       2Ag1h-1       2Ag1h0        2Ag1h+1       2Ag1h+2       2Ag1h+3   
   46    2Ag1h+4       2Ag1h+5       2Ag2h-5       2Ag2h-4       2Ag2h-3       2Ag2h-2       2Ag2h-1       2Ag2h0        2Ag2h+1       2Ag2h+2   
   47    2Ag2h+3       2Ag2h+4       2Ag2h+5       2Ag3h-5       2Ag3h-4       2Ag3h-3       2Ag3h-2       2Ag3h-1       2Ag3h0        2Ag3h+1   
   48    2Ag3h+2       2Ag3h+3       2Ag3h+4       2Ag3h+5       2Ag1i-6       2Ag1i-5       2Ag1i-4       2Ag1i-3       2Ag1i-2       2Ag1i-1   
   49    2Ag1i0        2Ag1i+1       2Ag1i+2       2Ag1i+3       2Ag1i+4       2Ag1i+5       2Ag1i+6       2Ag2i-6       2Ag2i-5       2Ag2i-4   
   50    2Ag2i-3       2Ag2i-2       2Ag2i-1       2Ag2i0        2Ag2i+1       2Ag2i+2       2Ag2i+3       2Ag2i+4       2Ag2i+5       2Ag2i+6   
   51    3Ag1s         3Ag2s         3Ag3s         3Ag4s         3Ag5s         3Ag6s         3Ag7s         3Ag8s         3Ag9s         3Ag10s    
   52    3Ag11s        3Ag1pz        3Ag1py        3Ag1px        3Ag2pz        3Ag2py        3Ag2px        3Ag3pz        3Ag3py        3Ag3px    
   53    3Ag4pz        3Ag4py        3Ag4px        3Ag5pz        3Ag5py        3Ag5px        3Ag6pz        3Ag6py        3Ag6px        3Ag7pz    
   54    3Ag7py        3Ag7px        3Ag8pz        3Ag8py        3Ag8px        3Ag9pz        3Ag9py        3Ag9px        3Ag10pz       3Ag10py   
   55    3Ag10px       3Ag1d-2       3Ag1d-1       3Ag1d0        3Ag1d+1       3Ag1d+2       3Ag2d-2       3Ag2d-1       3Ag2d0        3Ag2d+1   
   56    3Ag2d+2       3Ag3d-2       3Ag3d-1       3Ag3d0        3Ag3d+1       3Ag3d+2       3Ag4d-2       3Ag4d-1       3Ag4d0        3Ag4d+1   
   57    3Ag4d+2       3Ag5d-2       3Ag5d-1       3Ag5d0        3Ag5d+1       3Ag5d+2       3Ag6d-2       3Ag6d-1       3Ag6d0        3Ag6d+1   
   58    3Ag6d+2       3Ag7d-2       3Ag7d-1       3Ag7d0        3Ag7d+1       3Ag7d+2       3Ag8d-2       3Ag8d-1       3Ag8d0        3Ag8d+1   
   59    3Ag8d+2       3Ag9d-2       3Ag9d-1       3Ag9d0        3Ag9d+1       3Ag9d+2       3Ag1f-3       3Ag1f-2       3Ag1f-1       3Ag1f0    
   60    3Ag1f+1       3Ag1f+2       3Ag1f+3       3Ag2f-3       3Ag2f-2       3Ag2f-1       3Ag2f0        3Ag2f+1       3Ag2f+2       3Ag2f+3   
   61    3Ag3f-3       3Ag3f-2       3Ag3f-1       3Ag3f0        3Ag3f+1       3Ag3f+2       3Ag3f+3       3Ag4f-3       3Ag4f-2       3Ag4f-1   
   62    3Ag4f0        3Ag4f+1       3Ag4f+2       3Ag4f+3       3Ag5f-3       3Ag5f-2       3Ag5f-1       3Ag5f0        3Ag5f+1       3Ag5f+2   
   63    3Ag5f+3       3Ag6f-3       3Ag6f-2       3Ag6f-1       3Ag6f0        3Ag6f+1       3Ag6f+2       3Ag6f+3       3Ag7f-3       3Ag7f-2   
   64    3Ag7f-1       3Ag7f0        3Ag7f+1       3Ag7f+2       3Ag7f+3       3Ag8f-3       3Ag8f-2       3Ag8f-1       3Ag8f0        3Ag8f+1   
   65    3Ag8f+2       3Ag8f+3       3Ag1g-4       3Ag1g-3       3Ag1g-2       3Ag1g-1       3Ag1g0        3Ag1g+1       3Ag1g+2       3Ag1g+3   
   66    3Ag1g+4       3Ag2g-4       3Ag2g-3       3Ag2g-2       3Ag2g-1       3Ag2g0        3Ag2g+1       3Ag2g+2       3Ag2g+3       3Ag2g+4   
   67    3Ag3g-4       3Ag3g-3       3Ag3g-2       3Ag3g-1       3Ag3g0        3Ag3g+1       3Ag3g+2       3Ag3g+3       3Ag3g+4       3Ag4g-4   
   68    3Ag4g-3       3Ag4g-2       3Ag4g-1       3Ag4g0        3Ag4g+1       3Ag4g+2       3Ag4g+3       3Ag4g+4       3Ag5g-4       3Ag5g-3   
   69    3Ag5g-2       3Ag5g-1       3Ag5g0        3Ag5g+1       3Ag5g+2       3Ag5g+3       3Ag5g+4       3Ag6g-4       3Ag6g-3       3Ag6g-2   
   70    3Ag6g-1       3Ag6g0        3Ag6g+1       3Ag6g+2       3Ag6g+3       3Ag6g+4       3Ag1h-5       3Ag1h-4       3Ag1h-3       3Ag1h-2   
   71    3Ag1h-1       3Ag1h0        3Ag1h+1       3Ag1h+2       3Ag1h+3       3Ag1h+4       3Ag1h+5       3Ag2h-5       3Ag2h-4       3Ag2h-3   
   72    3Ag2h-2       3Ag2h-1       3Ag2h0        3Ag2h+1       3Ag2h+2       3Ag2h+3       3Ag2h+4       3Ag2h+5       3Ag3h-5       3Ag3h-4   
   73    3Ag3h-3       3Ag3h-2       3Ag3h-1       3Ag3h0        3Ag3h+1       3Ag3h+2       3Ag3h+3       3Ag3h+4       3Ag3h+5       3Ag1i-6   
   74    3Ag1i-5       3Ag1i-4       3Ag1i-3       3Ag1i-2       3Ag1i-1       3Ag1i0        3Ag1i+1       3Ag1i+2       3Ag1i+3       3Ag1i+4   
   75    3Ag1i+5       3Ag1i+6       3Ag2i-6       3Ag2i-5       3Ag2i-4       3Ag2i-3       3Ag2i-2       3Ag2i-1       3Ag2i0        3Ag2i+1   
   76    3Ag2i+2       3Ag2i+3       3Ag2i+4       3Ag2i+5       3Ag2i+6       4Ag1s         4Ag2s         4Ag3s         4Ag4s         4Ag5s     
   77    4Ag6s         4Ag7s         4Ag8s         4Ag9s         4Ag10s        4Ag11s        4Ag1pz        4Ag1py        4Ag1px        4Ag2pz    
   78    4Ag2py        4Ag2px        4Ag3pz        4Ag3py        4Ag3px        4Ag4pz        4Ag4py        4Ag4px        4Ag5pz        4Ag5py    
   79    4Ag5px        4Ag6pz        4Ag6py        4Ag6px        4Ag7pz        4Ag7py        4Ag7px        4Ag8pz        4Ag8py        4Ag8px    
   80    4Ag9pz        4Ag9py        4Ag9px        4Ag10pz       4Ag10py       4Ag10px       4Ag1d-2       4Ag1d-1       4Ag1d0        4Ag1d+1   
   81    4Ag1d+2       4Ag2d-2       4Ag2d-1       4Ag2d0        4Ag2d+1       4Ag2d+2       4Ag3d-2       4Ag3d-1       4Ag3d0        4Ag3d+1   
   82    4Ag3d+2       4Ag4d-2       4Ag4d-1       4Ag4d0        4Ag4d+1       4Ag4d+2       4Ag5d-2       4Ag5d-1       4Ag5d0        4Ag5d+1   
   83    4Ag5d+2       4Ag6d-2       4Ag6d-1       4Ag6d0        4Ag6d+1       4Ag6d+2       4Ag7d-2       4Ag7d-1       4Ag7d0        4Ag7d+1   
   84    4Ag7d+2       4Ag8d-2       4Ag8d-1       4Ag8d0        4Ag8d+1       4Ag8d+2       4Ag9d-2       4Ag9d-1       4Ag9d0        4Ag9d+1   
   85    4Ag9d+2       4Ag1f-3       4Ag1f-2       4Ag1f-1       4Ag1f0        4Ag1f+1       4Ag1f+2       4Ag1f+3       4Ag2f-3       4Ag2f-2   
   86    4Ag2f-1       4Ag2f0        4Ag2f+1       4Ag2f+2       4Ag2f+3       4Ag3f-3       4Ag3f-2       4Ag3f-1       4Ag3f0        4Ag3f+1   
   87    4Ag3f+2       4Ag3f+3       4Ag4f-3       4Ag4f-2       4Ag4f-1       4Ag4f0        4Ag4f+1       4Ag4f+2       4Ag4f+3       4Ag5f-3   
   88    4Ag5f-2       4Ag5f-1       4Ag5f0        4Ag5f+1       4Ag5f+2       4Ag5f+3       4Ag6f-3       4Ag6f-2       4Ag6f-1       4Ag6f0    
   89    4Ag6f+1       4Ag6f+2       4Ag6f+3       4Ag7f-3       4Ag7f-2       4Ag7f-1       4Ag7f0        4Ag7f+1       4Ag7f+2       4Ag7f+3   
   90    4Ag8f-3       4Ag8f-2       4Ag8f-1       4Ag8f0        4Ag8f+1       4Ag8f+2       4Ag8f+3       4Ag1g-4       4Ag1g-3       4Ag1g-2   
   91    4Ag1g-1       4Ag1g0        4Ag1g+1       4Ag1g+2       4Ag1g+3       4Ag1g+4       4Ag2g-4       4Ag2g-3       4Ag2g-2       4Ag2g-1   
   92    4Ag2g0        4Ag2g+1       4Ag2g+2       4Ag2g+3       4Ag2g+4       4Ag3g-4       4Ag3g-3       4Ag3g-2       4Ag3g-1       4Ag3g0    
   93    4Ag3g+1       4Ag3g+2       4Ag3g+3       4Ag3g+4       4Ag4g-4       4Ag4g-3       4Ag4g-2       4Ag4g-1       4Ag4g0        4Ag4g+1   
   94    4Ag4g+2       4Ag4g+3       4Ag4g+4       4Ag5g-4       4Ag5g-3       4Ag5g-2       4Ag5g-1       4Ag5g0        4Ag5g+1       4Ag5g+2   
   95    4Ag5g+3       4Ag5g+4       4Ag6g-4       4Ag6g-3       4Ag6g-2       4Ag6g-1       4Ag6g0        4Ag6g+1       4Ag6g+2       4Ag6g+3   
   96    4Ag6g+4       4Ag1h-5       4Ag1h-4       4Ag1h-3       4Ag1h-2       4Ag1h-1       4Ag1h0        4Ag1h+1       4Ag1h+2       4Ag1h+3   
   97    4Ag1h+4       4Ag1h+5       4Ag2h-5       4Ag2h-4       4Ag2h-3       4Ag2h-2       4Ag2h-1       4Ag2h0        4Ag2h+1       4Ag2h+2   
   98    4Ag2h+3       4Ag2h+4       4Ag2h+5       4Ag3h-5       4Ag3h-4       4Ag3h-3       4Ag3h-2       4Ag3h-1       4Ag3h0        4Ag3h+1   
   99    4Ag3h+2       4Ag3h+3       4Ag3h+4       4Ag3h+5       4Ag1i-6       4Ag1i-5       4Ag1i-4       4Ag1i-3       4Ag1i-2       4Ag1i-1   
  100    4Ag1i0        4Ag1i+1       4Ag1i+2       4Ag1i+3       4Ag1i+4       4Ag1i+5       4Ag1i+6       4Ag2i-6       4Ag2i-5       4Ag2i-4   
  101    4Ag2i-3       4Ag2i-2       4Ag2i-1       4Ag2i0        4Ag2i+1       4Ag2i+2       4Ag2i+3       4Ag2i+4       4Ag2i+5       4Ag2i+6   
  102    5Ag1s         5Ag2s         5Ag3s         5Ag4s         5Ag5s         5Ag6s         5Ag7s         5Ag8s         5Ag9s         5Ag10s    
  103    5Ag11s        5Ag1pz        5Ag1py        5Ag1px        5Ag2pz        5Ag2py        5Ag2px        5Ag3pz        5Ag3py        5Ag3px    
  104    5Ag4pz        5Ag4py        5Ag4px        5Ag5pz        5Ag5py        5Ag5px        5Ag6pz        5Ag6py        5Ag6px        5Ag7pz    
  105    5Ag7py        5Ag7px        5Ag8pz        5Ag8py        5Ag8px        5Ag9pz        5Ag9py        5Ag9px        5Ag10pz       5Ag10py   
  106    5Ag10px       5Ag1d-2       5Ag1d-1       5Ag1d0        5Ag1d+1       5Ag1d+2       5Ag2d-2       5Ag2d-1       5Ag2d0        5Ag2d+1   
  107    5Ag2d+2       5Ag3d-2       5Ag3d-1       5Ag3d0        5Ag3d+1       5Ag3d+2       5Ag4d-2       5Ag4d-1       5Ag4d0        5Ag4d+1   
  108    5Ag4d+2       5Ag5d-2       5Ag5d-1       5Ag5d0        5Ag5d+1       5Ag5d+2       5Ag6d-2       5Ag6d-1       5Ag6d0        5Ag6d+1   
  109    5Ag6d+2       5Ag7d-2       5Ag7d-1       5Ag7d0        5Ag7d+1       5Ag7d+2       5Ag8d-2       5Ag8d-1       5Ag8d0        5Ag8d+1   
  110    5Ag8d+2       5Ag9d-2       5Ag9d-1       5Ag9d0        5Ag9d+1       5Ag9d+2       5Ag1f-3       5Ag1f-2       5Ag1f-1       5Ag1f0    
  111    5Ag1f+1       5Ag1f+2       5Ag1f+3       5Ag2f-3       5Ag2f-2       5Ag2f-1       5Ag2f0        5Ag2f+1       5Ag2f+2       5Ag2f+3   
  112    5Ag3f-3       5Ag3f-2       5Ag3f-1       5Ag3f0        5Ag3f+1       5Ag3f+2       5Ag3f+3       5Ag4f-3       5Ag4f-2       5Ag4f-1   
  113    5Ag4f0        5Ag4f+1       5Ag4f+2       5Ag4f+3       5Ag5f-3       5Ag5f-2       5Ag5f-1       5Ag5f0        5Ag5f+1       5Ag5f+2   
  114    5Ag5f+3       5Ag6f-3       5Ag6f-2       5Ag6f-1       5Ag6f0        5Ag6f+1       5Ag6f+2       5Ag6f+3       5Ag7f-3       5Ag7f-2   
  115    5Ag7f-1       5Ag7f0        5Ag7f+1       5Ag7f+2       5Ag7f+3       5Ag8f-3       5Ag8f-2       5Ag8f-1       5Ag8f0        5Ag8f+1   
  116    5Ag8f+2       5Ag8f+3       5Ag1g-4       5Ag1g-3       5Ag1g-2       5Ag1g-1       5Ag1g0        5Ag1g+1       5Ag1g+2       5Ag1g+3   
  117    5Ag1g+4       5Ag2g-4       5Ag2g-3       5Ag2g-2       5Ag2g-1       5Ag2g0        5Ag2g+1       5Ag2g+2       5Ag2g+3       5Ag2g+4   
  118    5Ag3g-4       5Ag3g-3       5Ag3g-2       5Ag3g-1       5Ag3g0        5Ag3g+1       5Ag3g+2       5Ag3g+3       5Ag3g+4       5Ag4g-4   
  119    5Ag4g-3       5Ag4g-2       5Ag4g-1       5Ag4g0        5Ag4g+1       5Ag4g+2       5Ag4g+3       5Ag4g+4       5Ag5g-4       5Ag5g-3   
  120    5Ag5g-2       5Ag5g-1       5Ag5g0        5Ag5g+1       5Ag5g+2       5Ag5g+3       5Ag5g+4       5Ag6g-4       5Ag6g-3       5Ag6g-2   
  121    5Ag6g-1       5Ag6g0        5Ag6g+1       5Ag6g+2       5Ag6g+3       5Ag6g+4       5Ag1h-5       5Ag1h-4       5Ag1h-3       5Ag1h-2   
  122    5Ag1h-1       5Ag1h0        5Ag1h+1       5Ag1h+2       5Ag1h+3       5Ag1h+4       5Ag1h+5       5Ag2h-5       5Ag2h-4       5Ag2h-3   
  123    5Ag2h-2       5Ag2h-1       5Ag2h0        5Ag2h+1       5Ag2h+2       5Ag2h+3       5Ag2h+4       5Ag2h+5       5Ag3h-5       5Ag3h-4   
  124    5Ag3h-3       5Ag3h-2       5Ag3h-1       5Ag3h0        5Ag3h+1       5Ag3h+2       5Ag3h+3       5Ag3h+4       5Ag3h+5       5Ag1i-6   
  125    5Ag1i-5       5Ag1i-4       5Ag1i-3       5Ag1i-2       5Ag1i-1       5Ag1i0        5Ag1i+1       5Ag1i+2       5Ag1i+3       5Ag1i+4   
  126    5Ag1i+5       5Ag1i+6       5Ag2i-6       5Ag2i-5       5Ag2i-4       5Ag2i-3       5Ag2i-2       5Ag2i-1       5Ag2i0        5Ag2i+1   
  127    5Ag2i+2       5Ag2i+3       5Ag2i+4       5Ag2i+5       5Ag2i+6       6Ag1s         6Ag2s         6Ag3s         6Ag4s         6Ag5s     
  128    6Ag6s         6Ag7s         6Ag8s         6Ag9s         6Ag10s        6Ag11s        6Ag1pz        6Ag1py        6Ag1px        6Ag2pz    
  129    6Ag2py        6Ag2px        6Ag3pz        6Ag3py        6Ag3px        6Ag4pz        6Ag4py        6Ag4px        6Ag5pz        6Ag5py    
  130    6Ag5px        6Ag6pz        6Ag6py        6Ag6px        6Ag7pz        6Ag7py        6Ag7px        6Ag8pz        6Ag8py        6Ag8px    
  131    6Ag9pz        6Ag9py        6Ag9px        6Ag10pz       6Ag10py       6Ag10px       6Ag1d-2       6Ag1d-1       6Ag1d0        6Ag1d+1   
  132    6Ag1d+2       6Ag2d-2       6Ag2d-1       6Ag2d0        6Ag2d+1       6Ag2d+2       6Ag3d-2       6Ag3d-1       6Ag3d0        6Ag3d+1   
  133    6Ag3d+2       6Ag4d-2       6Ag4d-1       6Ag4d0        6Ag4d+1       6Ag4d+2       6Ag5d-2       6Ag5d-1       6Ag5d0        6Ag5d+1   
  134    6Ag5d+2       6Ag6d-2       6Ag6d-1       6Ag6d0        6Ag6d+1       6Ag6d+2       6Ag7d-2       6Ag7d-1       6Ag7d0        6Ag7d+1   
  135    6Ag7d+2       6Ag8d-2       6Ag8d-1       6Ag8d0        6Ag8d+1       6Ag8d+2       6Ag9d-2       6Ag9d-1       6Ag9d0        6Ag9d+1   
  136    6Ag9d+2       6Ag1f-3       6Ag1f-2       6Ag1f-1       6Ag1f0        6Ag1f+1       6Ag1f+2       6Ag1f+3       6Ag2f-3       6Ag2f-2   
  137    6Ag2f-1       6Ag2f0        6Ag2f+1       6Ag2f+2       6Ag2f+3       6Ag3f-3       6Ag3f-2       6Ag3f-1       6Ag3f0        6Ag3f+1   
  138    6Ag3f+2       6Ag3f+3       6Ag4f-3       6Ag4f-2       6Ag4f-1       6Ag4f0        6Ag4f+1       6Ag4f+2       6Ag4f+3       6Ag5f-3   
  139    6Ag5f-2       6Ag5f-1       6Ag5f0        6Ag5f+1       6Ag5f+2       6Ag5f+3       6Ag6f-3       6Ag6f-2       6Ag6f-1       6Ag6f0    
  140    6Ag6f+1       6Ag6f+2       6Ag6f+3       6Ag7f-3       6Ag7f-2       6Ag7f-1       6Ag7f0        6Ag7f+1       6Ag7f+2       6Ag7f+3   
  141    6Ag8f-3       6Ag8f-2       6Ag8f-1       6Ag8f0        6Ag8f+1       6Ag8f+2       6Ag8f+3       6Ag1g-4       6Ag1g-3       6Ag1g-2   
  142    6Ag1g-1       6Ag1g0        6Ag1g+1       6Ag1g+2       6Ag1g+3       6Ag1g+4       6Ag2g-4       6Ag2g-3       6Ag2g-2       6Ag2g-1   
  143    6Ag2g0        6Ag2g+1       6Ag2g+2       6Ag2g+3       6Ag2g+4       6Ag3g-4       6Ag3g-3       6Ag3g-2       6Ag3g-1       6Ag3g0    
  144    6Ag3g+1       6Ag3g+2       6Ag3g+3       6Ag3g+4       6Ag4g-4       6Ag4g-3       6Ag4g-2       6Ag4g-1       6Ag4g0        6Ag4g+1   
  145    6Ag4g+2       6Ag4g+3       6Ag4g+4       6Ag5g-4       6Ag5g-3       6Ag5g-2       6Ag5g-1       6Ag5g0        6Ag5g+1       6Ag5g+2   
  146    6Ag5g+3       6Ag5g+4       6Ag6g-4       6Ag6g-3       6Ag6g-2       6Ag6g-1       6Ag6g0        6Ag6g+1       6Ag6g+2       6Ag6g+3   
  147    6Ag6g+4       6Ag1h-5       6Ag1h-4       6Ag1h-3       6Ag1h-2       6Ag1h-1       6Ag1h0        6Ag1h+1       6Ag1h+2       6Ag1h+3   
  148    6Ag1h+4       6Ag1h+5       6Ag2h-5       6Ag2h-4       6Ag2h-3       6Ag2h-2       6Ag2h-1       6Ag2h0        6Ag2h+1       6Ag2h+2   
  149    6Ag2h+3       6Ag2h+4       6Ag2h+5       6Ag3h-5       6Ag3h-4       6Ag3h-3       6Ag3h-2       6Ag3h-1       6Ag3h0        6Ag3h+1   
  150    6Ag3h+2       6Ag3h+3       6Ag3h+4       6Ag3h+5       6Ag1i-6       6Ag1i-5       6Ag1i-4       6Ag1i-3       6Ag1i-2       6Ag1i-1   
  151    6Ag1i0        6Ag1i+1       6Ag1i+2       6Ag1i+3       6Ag1i+4       6Ag1i+5       6Ag1i+6       6Ag2i-6       6Ag2i-5       6Ag2i-4   
  152    6Ag2i-3       6Ag2i-2       6Ag2i-1       6Ag2i0        6Ag2i+1       6Ag2i+2       6Ag2i+3       6Ag2i+4       6Ag2i+5       6Ag2i+6   
 
 Maximum number of basis functions per shell:   56
 Total number of basis functions:   1530
 
 
 Effective core potentials:
 
   1  Ag mcdhf-ecp-28        
   2  Ag mcdhf-ecp-28        
   3  Ag mcdhf-ecp-28        
   4  Ag mcdhf-ecp-28        
   5  Ag mcdhf-ecp-28        
   6  Ag mcdhf-ecp-28        
 
 Initializing the SAD routines for the initial guess...
 Checking the files required for the initial guess...
 Density files have not been found for the initial guess.
 Generating SCFDENSITIES.Ag.def2-svp.0
 CPU time [min]:     0.117                   Wall time [min]:     0.162
 
 Character table for point group C1:
 
          E  
    A     1
 
 Number of basis functions per irrep:
    A     186
 
 
 Calculation of overlap integrals...
 CPU time [min]:     0.119                   Wall time [min]:     0.163
 
 Calculation of the square root of the overlap matrix...
 Minimum eigenvalue of the overlap matrix: 0.874156E-03
 CPU time [min]:     0.142                   Wall time [min]:     0.164
 
 Calculation of kinetic energy integrals...
 CPU time [min]:     0.143                   Wall time [min]:     0.164
 Calculation of dipole moment integrals...
 CPU time [min]:     0.145                   Wall time [min]:     0.164
 Calculation of nuclear attraction integrals...
 CPU time [min]:     0.148                   Wall time [min]:     0.164
 Calculation of core potential integrals...
 CPU time [min]:     0.354                   Wall time [min]:     0.260
 
 Calculation of prescreening integrals...
 CPU time [min]:     0.677                   Wall time [min]:     0.270
 
 Calculation of two-center Coulomb integrals...
   1% done.
  12% done.
  23% done.
  35% done.
  48% done.
  63% done.
  74% done.
  86% done.
  97% done.
 100% done.
 CPU time [min]:     0.699                   Wall time [min]:     0.270
 
 Cholesky decomposition of the two-center matrix...
 Reciprocal of the condition number:  0.346530E-05
 CPU time [min]:     0.776                   Wall time [min]:     0.272
 
 
 Running small-basis SCF...

 ************************ 2022-12-22 19:35:26 *************************
 Executing scf...

 @scfsetup: integrals calculated directly
            mrcc/integ direct run
 @scfsetup: calculating on full matrices
            not using symmetry adapted basis
 @scfsetup: diis switched on
 @scfsetup: number of steps to extrapolate from  10
 @scfsetup: tolerance in energy deviation    0.100000E-05
            tolerance in density deviation    0.100000E-06
 @scfsetup: maximum number of iterations:  50
 @scfsetup: restricted closed shell hf calc
 @scfsetup: starting scf from superposition of atomic densities
 @scfsetup: occupation set:
            from initial orbitals
 @scfsetup: Parameter-set for SCF acceleration: difficult
 @scfsetup: diis runs from iteration:   2
 @scfsetup: diis runs to iteration:  50
 @scfsetup: diis runs in every iteration
 @scfsetup: diiswatch is disabled                   
 @scfsetup: diis dtol criteria to switch on:      0.0000E+00
           (or the iteration number below is reached)
 @scfsetup: damping is turned off.
 @scfsetup: dynamic level shifting
            tolarance in HOMO-LUMO gap:  0.200
            tolarance in density deviation:     0.0000E+00
            iteration step criteria to turn level shifting off: 8
 Allocation of 220.0 Gbytes of memory...
 ======================================================================
 ITERATION STEP   1
 CPU time [min]:     0.026                   Wall time [min]:     0.005
 

 SCF control                  : initial
 Damping factor/level shift   : 0.000/0.200
 DIIS [start/end/frequency]   :   2 / 50 /  1

 Constructing Fock-matrix...
 
 Pipek-Mezey localization...
 Step  Convergence
   1  36.131380272066
   2  10.860260013216
   3   1.945621917267
   4   0.180759854613
   5   0.000796251247
   6   0.000000222327
 CPU time [min]:     0.054                   Wall time [min]:     0.005
 
 Constructing local fitting domains...
 Maximum number of atoms in fitting domains:    6
 Average number of atoms in fitting domains:    6.0
 
 First step of Coulomb + first step of exchange...
 Exchange contribution is evaluated for MOs 1 to 57.
   1% done.
  13% done.
  25% done.
  40% done.
  55% done.
  70% done.
  83% done.
 100% done.
 CPU time [min]:     0.404                   Wall time [min]:     0.015
 
 Fitting and assembly step of exchange...
 CPU time [min]:     0.438                   Wall time [min]:     0.017
 
 Second step of Coulomb...
   1% done.
  13% done.
  25% done.
  40% done.
  55% done.
  70% done.
  83% done.
 100% done.
 CPU time [min]:     0.513                   Wall time [min]:     0.019
 
 Gradient norm:      1.8392E+00
 RMS of [F,P]:                                         0.02302771743754
 RMS of difference density:                            0.02206385948607
 Gap [au]:  0.18957719
 ALPHA OCC:  57
 BETA  OCC:  57
 
 ***HARTREE-FOCK ENERGY IN STEP   1 IS       -874.3604824959807047 [AU]
 ======================================================================
 ITERATION STEP   2
 CPU time [min]:     0.529                   Wall time [min]:     0.019
 

 SCF control                  : diis
 Damping factor/level shift   : 0.000/0.200
 DIIS [start/end/frequency]   :   2 / 50 /  1

 Constructing Fock-matrix...
 
 Pipek-Mezey localization...
 Step  Convergence
   1  13.222235763774
   2   4.249385241106
   3   0.061212199070
   4   0.000069465206
   5   0.000000004703
 CPU time [min]:     0.555                   Wall time [min]:     0.020
 
 Constructing local fitting domains...
 Maximum number of atoms in fitting domains:    6
 Average number of atoms in fitting domains:    6.0
 
 First step of Coulomb + first step of exchange...
 Exchange contribution is evaluated for MOs 1 to 57.
   1% done.
  13% done.
  25% done.
  40% done.
  55% done.
  70% done.
  83% done.
 100% done.
 CPU time [min]:     0.836                   Wall time [min]:     0.028
 
 Fitting and assembly step of exchange...
 CPU time [min]:     0.866                   Wall time [min]:     0.029
 
 Second step of Coulomb...
   1% done.
  13% done.
  25% done.
  40% done.
  55% done.
  70% done.
  83% done.
 100% done.
 CPU time [min]:     0.938                   Wall time [min]:     0.031
 
 Gradient norm:      4.3108E-01
 DIIS is running in this iteration step.
 RMS of [F,P]:                                         0.00999725041832
 RMS of difference density:                            0.01195576256934
 Gap [au]:  0.23155705
 ALPHA OCC:  57
 BETA  OCC:  57
 
 ***HARTREE-FOCK ENERGY IN STEP   2 IS       -875.7739850317529999 [AU]
 
 Step comparison  Energy Drift [au]  DIIS error drift  Gradient drift
        1            1.4135E+00         1.3030E-02       1.4081E+00
        2            8.7577E+02         1.0000E-07       1.4081E+00
 ======================================================================
 ITERATION STEP   3
 CPU time [min]:     0.951                   Wall time [min]:     0.031
 

 SCF control                  : diis
 Damping factor/level shift   : 0.000/0.000
 DIIS [start/end/frequency]   :   2 / 50 /  1

 Constructing Fock-matrix...
 
 Pipek-Mezey localization...
 Step  Convergence
   1  14.969911132551
   2   4.246911128112
   3   0.044146962078
   4   0.000015768190
   5   0.000000000485
 CPU time [min]:     0.976                   Wall time [min]:     0.032
 
 Constructing local fitting domains...
 Local fitting domains are unchanged.
 
 First step of Coulomb + first step of exchange...
 Exchange contribution is evaluated for MOs 1 to 57.
   1% done.
  13% done.
  25% done.
  40% done.
  55% done.
  70% done.
  83% done.
 100% done.
 CPU time [min]:     1.256                   Wall time [min]:     0.040
 
 Fitting and assembly step of exchange...
 CPU time [min]:     1.286                   Wall time [min]:     0.040
 
 Second step of Coulomb...
   1% done.
  13% done.
  25% done.
  40% done.
  55% done.
  70% done.
  83% done.
 100% done.
 CPU time [min]:     1.358                   Wall time [min]:     0.042
 
 Gradient norm:      1.1820E-01
 DIIS is running in this iteration step.
 RMS of [F,P]:                                         0.00315203112172
 RMS of difference density:                            0.00372436158837
 Gap [au]:  0.22521437
 ALPHA OCC:  57
 BETA  OCC:  57
 
 ***HARTREE-FOCK ENERGY IN STEP   3 IS       -876.0283210183333722 [AU]
 
 Step comparison  Energy Drift [au]  DIIS error drift  Gradient drift
        2            2.5434E-01         6.8452E-03       3.1288E-01
 ======================================================================
 ITERATION STEP   4
 CPU time [min]:     1.371                   Wall time [min]:     0.043
 

 SCF control                  : diis
 Damping factor/level shift   : 0.000/0.000
 DIIS [start/end/frequency]   :   2 / 50 /  1

 Constructing Fock-matrix...
 
 Pipek-Mezey localization...
 Step  Convergence
   1  18.390182704180
   2   5.200141026206
   3   0.091516893501
   4   0.000051028875
   5   0.000000002754
 CPU time [min]:     1.396                   Wall time [min]:     0.044
 
 Constructing local fitting domains...
 Local fitting domains are unchanged.
 
 First step of Coulomb + first step of exchange...
 Exchange contribution is evaluated for MOs 1 to 57.
   1% done.
  13% done.
  25% done.
  40% done.
  55% done.
  70% done.
  83% done.
 100% done.
 CPU time [min]:     1.675                   Wall time [min]:     0.051
 
 Fitting and assembly step of exchange...
 CPU time [min]:     1.707                   Wall time [min]:     0.052
 
 Second step of Coulomb...
   1% done.
  13% done.
  25% done.
  40% done.
  55% done.
  70% done.
  83% done.
 100% done.
 CPU time [min]:     1.779                   Wall time [min]:     0.054
 
 Gradient norm:      2.5040E-02
 DIIS is running in this iteration step.
 RMS of [F,P]:                                         0.00037579156413
 RMS of difference density:                            0.00203387779439
 Gap [au]:  0.23012590
 ALPHA OCC:  57
 BETA  OCC:  57
 
 ***HARTREE-FOCK ENERGY IN STEP   4 IS       -876.0668842792538271 [AU]
 
 Step comparison  Energy Drift [au]  DIIS error drift  Gradient drift
        3            3.8563E-02         2.7762E-03       9.3161E-02
 ======================================================================
 ITERATION STEP   5
 CPU time [min]:     1.790                   Wall time [min]:     0.055
 

 SCF control                  : diis
 Damping factor/level shift   : 0.000/0.000
 DIIS [start/end/frequency]   :   2 / 50 /  1

 Constructing Fock-matrix...
 
 Pipek-Mezey localization...
 Step  Convergence
   1  17.694589488222
   2   4.082801229342
   3   0.088389525947
   4   0.000150270318
   5   0.000000005663
 CPU time [min]:     1.814                   Wall time [min]:     0.055
 
 Constructing local fitting domains...
 Local fitting domains are unchanged.
 
 First step of Coulomb + first step of exchange...
 Exchange contribution is evaluated for MOs 1 to 57.
   1% done.
  13% done.
  25% done.
  40% done.
  55% done.
  70% done.
  83% done.
 100% done.
 CPU time [min]:     2.094                   Wall time [min]:     0.063
 
 Fitting and assembly step of exchange...
 CPU time [min]:     2.124                   Wall time [min]:     0.064
 
 Second step of Coulomb...
   1% done.
  13% done.
  25% done.
  40% done.
  55% done.
  70% done.
  83% done.
 100% done.
 CPU time [min]:     2.196                   Wall time [min]:     0.066
 
 Gradient norm:      7.4740E-03
 DIIS is running in this iteration step.
 RMS of [F,P]:                                         0.00022050249483
 RMS of difference density:                            0.00087602588180
 Gap [au]:  0.23123396
 ALPHA OCC:  57
 BETA  OCC:  57
 
 ***HARTREE-FOCK ENERGY IN STEP   5 IS       -876.0692653262221938 [AU]
 
 Step comparison  Energy Drift [au]  DIIS error drift  Gradient drift
        4            2.3810E-03         1.5529E-04       1.7566E-02
 ======================================================================
 ITERATION STEP   6
 CPU time [min]:     2.208                   Wall time [min]:     0.066
 

 SCF control                  : diis
 Damping factor/level shift   : 0.000/0.000
 DIIS [start/end/frequency]   :   2 / 50 /  1

 Constructing Fock-matrix...
 
 Pipek-Mezey localization...
 Step  Convergence
   1  19.022642354625
   2   4.112309931287
   3   0.066326976642
   4   0.000246417353
   5   0.000000005149
 CPU time [min]:     2.234                   Wall time [min]:     0.067
 
 Constructing local fitting domains...
 Local fitting domains are unchanged.
 
 First step of Coulomb + first step of exchange...
 Exchange contribution is evaluated for MOs 1 to 57.
   1% done.
  13% done.
  25% done.
  40% done.
  55% done.
  70% done.
  83% done.
 100% done.
 CPU time [min]:     2.513                   Wall time [min]:     0.075
 
 Fitting and assembly step of exchange...
 CPU time [min]:     2.543                   Wall time [min]:     0.076
 
 Second step of Coulomb...
   1% done.
  13% done.
  25% done.
  40% done.
  55% done.
  70% done.
  83% done.
 100% done.
 CPU time [min]:     2.615                   Wall time [min]:     0.078
 
 Gradient norm:      3.4218E-03
 DIIS is running in this iteration step.
 RMS of [F,P]:                                         0.00005050929315
 RMS of difference density:                            0.00035000290183
 Gap [au]:  0.23189726
 ALPHA OCC:  57
 BETA  OCC:  57
 
 ***HARTREE-FOCK ENERGY IN STEP   6 IS       -876.0697220239194394 [AU]
 
 Step comparison  Energy Drift [au]  DIIS error drift  Gradient drift
        5            4.5670E-04         1.6999E-04       4.0521E-03
 ======================================================================
 ITERATION STEP   7
 CPU time [min]:     2.626                   Wall time [min]:     0.078
 

 SCF control                  : diis
 Damping factor/level shift   : 0.000/0.000
 DIIS [start/end/frequency]   :   2 / 50 /  1

 Constructing Fock-matrix...
 
 Pipek-Mezey localization...
 Step  Convergence
   1  22.321787274457
   2  13.426138118174
   3  23.033614882982
   4   6.451369423567
   5   2.012989733752
   6   0.162946601408
   7   0.005838360325
   8   0.000613114724
   9   0.000103357970
  10   0.000017688462
  11   0.000003373553
  12   0.000000662971
  13   0.000000144903
  14   0.000000032887
  15   0.000000008065
  16   0.000000001764
  17   0.000000000428
  18   0.000000000112
  19   0.000000000027
  20   0.000000000006
  21   0.000000000001
  22   0.000000000000
 CPU time [min]:     2.672                   Wall time [min]:     0.079
 
 Constructing local fitting domains...
 Local fitting domains are unchanged.
 
 First step of Coulomb + first step of exchange...
 Exchange contribution is evaluated for MOs 1 to 57.
   1% done.
  13% done.
  25% done.
  40% done.
  55% done.
  70% done.
  83% done.
 100% done.
 CPU time [min]:     2.952                   Wall time [min]:     0.087
 
 Fitting and assembly step of exchange...
 CPU time [min]:     2.982                   Wall time [min]:     0.088
 
 Second step of Coulomb...
   1% done.
  13% done.
  25% done.
  40% done.
  55% done.
  70% done.
  83% done.
 100% done.
 CPU time [min]:     3.054                   Wall time [min]:     0.090
 
 Gradient norm:      1.0041E-03
 DIIS is running in this iteration step.
 RMS of [F,P]:                                         0.00002244409885
 RMS of difference density:                            0.00005752190608
 Gap [au]:  0.23200478
 ALPHA OCC:  57
 BETA  OCC:  57
 
 ***HARTREE-FOCK ENERGY IN STEP   7 IS       -876.0697884762398644 [AU]
 
 Step comparison  Energy Drift [au]  DIIS error drift  Gradient drift
        6            6.6452E-05         2.8065E-05       2.4178E-03
 ======================================================================
 ITERATION STEP   8
 CPU time [min]:     3.065                   Wall time [min]:     0.090
 

 SCF control                  : diis
 Damping factor/level shift   : 0.000/0.000
 DIIS [start/end/frequency]   :   2 / 50 /  1

 Constructing Fock-matrix...
 
 Pipek-Mezey localization...
 Step  Convergence
   1  23.807776054633
   2  12.907381941002
   3  17.673129569266
   4   6.465910227880
   5   1.655489526157
   6   0.046975282894
   7   0.004784804184
   8   0.000877790802
   9   0.000185644027
  10   0.000039605544
  11   0.000008527907
  12   0.000001829562
  13   0.000000394308
  14   0.000000084791
  15   0.000000018403
  16   0.000000004008
  17   0.000000000877
  18   0.000000000193
  19   0.000000000043
  20   0.000000000009
  21   0.000000000002
  22   0.000000000000
 CPU time [min]:     3.111                   Wall time [min]:     0.092
 
 Constructing local fitting domains...
 Local fitting domains are unchanged.
 
 First step of Coulomb + first step of exchange...
 Exchange contribution is evaluated for MOs 1 to 57.
   1% done.
  13% done.
  25% done.
  40% done.
  55% done.
  70% done.
  83% done.
 100% done.
 CPU time [min]:     3.391                   Wall time [min]:     0.099
 
 Fitting and assembly step of exchange...
 CPU time [min]:     3.421                   Wall time [min]:     0.100
 
 Second step of Coulomb...
   1% done.
  13% done.
  25% done.
  40% done.
  55% done.
  70% done.
  83% done.
 100% done.
 CPU time [min]:     3.493                   Wall time [min]:     0.102
 
 Gradient norm:      3.9663E-04
 DIIS is running in this iteration step.
 RMS of [F,P]:                                         0.00000607143086
 RMS of difference density:                            0.00002110145450
 Gap [au]:  0.23206031
 ALPHA OCC:  57
 BETA  OCC:  57
 
 ***HARTREE-FOCK ENERGY IN STEP   8 IS       -876.0697939967753882 [AU]
 
 Step comparison  Energy Drift [au]  DIIS error drift  Gradient drift
        7            5.5205E-06         1.6373E-05       6.0744E-04
 ======================================================================
 ITERATION STEP   9
 CPU time [min]:     3.505                   Wall time [min]:     0.103
 

 SCF control                  : diis
 Damping factor/level shift   : 0.000/0.000
 DIIS [start/end/frequency]   :   2 / 50 /  1

 Constructing Fock-matrix...
 
 Pipek-Mezey localization...
 Step  Convergence
   1  18.811575714180
   2  13.040493348496
   3  12.802927266167
   4   5.697863899857
   5   1.543136869236
   6   0.445083952317
   7   0.388682331212
   8   0.031888513165
   9   0.000997093021
  10   0.000086164465
  11   0.000011795066
  12   0.000001666724
  13   0.000000267956
  14   0.000000047807
  15   0.000000008448
  16   0.000000001641
  17   0.000000000340
  18   0.000000000072
  19   0.000000000017
  20   0.000000000004
  21   0.000000000001
 CPU time [min]:     3.549                   Wall time [min]:     0.104
 
 Constructing local fitting domains...
 Local fitting domains are unchanged.
 
 First step of Coulomb + first step of exchange...
 Exchange contribution is evaluated for MOs 1 to 57.
   1% done.
  13% done.
  25% done.
  40% done.
  55% done.
  70% done.
  83% done.
 100% done.
 CPU time [min]:     3.828                   Wall time [min]:     0.112
 
 Fitting and assembly step of exchange...
 CPU time [min]:     3.858                   Wall time [min]:     0.112
 
 Second step of Coulomb...
   1% done.
  13% done.
  25% done.
  40% done.
  55% done.
  70% done.
  83% done.
 100% done.
 CPU time [min]:     3.931                   Wall time [min]:     0.114
 
 Gradient norm:      1.4544E-04
 DIIS is running in this iteration step.
 RMS of [F,P]:                                         0.00000185900392
 RMS of difference density:                            0.00000842788540
 Gap [au]:  0.23206457
 ALPHA OCC:  57
 BETA  OCC:  57
 
 ***HARTREE-FOCK ENERGY IN STEP   9 IS       -876.0697947609082803 [AU]
 
 Step comparison  Energy Drift [au]  DIIS error drift  Gradient drift
        8            7.6413E-07         4.2124E-06       2.5119E-04
 ======================================================================
 ITERATION STEP  10
 CPU time [min]:     3.942                   Wall time [min]:     0.115
 

 SCF control                  : diis
 Damping factor/level shift   : 0.000/0.000
 DIIS [start/end/frequency]   :   2 / 50 /  1

 Constructing Fock-matrix...
 
 Pipek-Mezey localization...
 Step  Convergence
   1  24.766535420633
   2   9.061531226651
   3  15.288212514561
   4   7.663943564593
   5   0.664741109855
   6   0.069880266690
   7   0.007460653876
   8   0.001206310785
   9   0.000205121490
  10   0.000037097046
  11   0.000006778552
  12   0.000001276808
  13   0.000000241238
  14   0.000000046482
  15   0.000000008946
  16   0.000000001748
  17   0.000000000341
  18   0.000000000067
  19   0.000000000013
  20   0.000000000003
  21   0.000000000001
 CPU time [min]:     3.987                   Wall time [min]:     0.116
 
 Constructing local fitting domains...
 Local fitting domains are unchanged.
 
 First step of Coulomb + first step of exchange...
 Exchange contribution is evaluated for MOs 1 to 57.
   1% done.
  13% done.
  25% done.
  40% done.
  55% done.
  70% done.
  83% done.
 100% done.
 CPU time [min]:     4.267                   Wall time [min]:     0.124
 
 Fitting and assembly step of exchange...
 CPU time [min]:     4.296                   Wall time [min]:     0.125
 
 Second step of Coulomb...
   1% done.
  13% done.
  25% done.
  40% done.
  55% done.
  70% done.
  83% done.
 100% done.
 CPU time [min]:     4.369                   Wall time [min]:     0.127
 
 Gradient norm:      4.9983E-05
 DIIS is running in this iteration step.
 RMS of [F,P]:                                         0.00000067607799
 RMS of difference density:                            0.00000282632030
 Gap [au]:  0.23206534
 ALPHA OCC:  57
 BETA  OCC:  57
 
 ***HARTREE-FOCK ENERGY IN STEP  10 IS       -876.0697948599013216 [AU]
 
 Step comparison  Energy Drift [au]  DIIS error drift  Gradient drift
        9            9.8993E-08         1.1829E-06       9.5458E-05
 ======================================================================
 ITERATION STEP  11
 CPU time [min]:     4.380                   Wall time [min]:     0.127
 

 SCF control                  : diis
 Damping factor/level shift   : 0.000/0.000
 DIIS [start/end/frequency]   :   2 / 50 /  1

 Constructing Fock-matrix...
 
 Pipek-Mezey localization...
 Step  Convergence
   1  22.265365708425
   2   9.814407830955
   3  16.280136149554
   4   6.474270854919
   5   1.034872177581
   6   0.052042671932
   7   0.003637658817
   8   0.000630728988
   9   0.000114019265
  10   0.000023250373
  11   0.000005047490
  12   0.000001122080
  13   0.000000254882
  14   0.000000058646
  15   0.000000013543
  16   0.000000003135
  17   0.000000000734
  18   0.000000000173
  19   0.000000000040
  20   0.000000000009
  21   0.000000000002
  22   0.000000000001
 CPU time [min]:     4.426                   Wall time [min]:     0.128
 
 Constructing local fitting domains...
 Local fitting domains are unchanged.
 
 First step of Coulomb + first step of exchange...
 Exchange contribution is evaluated for MOs 1 to 57.
   1% done.
  13% done.
  25% done.
  40% done.
  55% done.
  70% done.
  83% done.
 100% done.
 CPU time [min]:     4.706                   Wall time [min]:     0.136
 
 Fitting and assembly step of exchange...
 CPU time [min]:     4.736                   Wall time [min]:     0.137
 
 Second step of Coulomb...
   1% done.
  13% done.
  25% done.
  40% done.
  55% done.
  70% done.
  83% done.
 100% done.
 CPU time [min]:     4.808                   Wall time [min]:     0.139
 
 Gradient norm:      1.5250E-05
 DIIS is running in this iteration step.
 RMS of [F,P]:                                         0.00000023675220
 RMS of difference density:                            0.00000169644236
 Gap [au]:  0.23206483
 ALPHA OCC:  57
 BETA  OCC:  57
 
 ***HARTREE-FOCK ENERGY IN STEP  11 IS       -876.0697948731562974 [AU]
 
 Step comparison  Energy Drift [au]  DIIS error drift  Gradient drift
       10            1.3255E-08         4.3933E-07       3.4734E-05
 ======================================================================
 ITERATION STEP  12
 CPU time [min]:     4.851                   Wall time [min]:     0.140
 

 SCF control                  : diis
 Damping factor/level shift   : 0.000/0.000
 DIIS [start/end/frequency]   :   2 / 50 /  1

 Constructing Fock-matrix...
 
 Pipek-Mezey localization...
 Step  Convergence
   1  24.505314286424
   2   7.336149938068
   3  17.324944152359
   4   5.560057225348
   5   0.626720116704
   6   0.011545753652
   7   0.000753509804
   8   0.000127848868
   9   0.000028253498
  10   0.000006615782
  11   0.000001562121
  12   0.000000367727
  13   0.000000086174
  14   0.000000020132
  15   0.000000004696
  16   0.000000001095
  17   0.000000000255
  18   0.000000000059
  19   0.000000000014
  20   0.000000000003
  21   0.000000000001
 CPU time [min]:     4.902                   Wall time [min]:     0.142
 
 Constructing local fitting domains...
 Local fitting domains are unchanged.
 
 First step of Coulomb + first step of exchange...
 Exchange contribution is evaluated for MOs 1 to 57.
   1% done.
  13% done.
  25% done.
  40% done.
  55% done.
  70% done.
  83% done.
 100% done.
 CPU time [min]:     5.182                   Wall time [min]:     0.150
 
 Fitting and assembly step of exchange...
 CPU time [min]:     5.212                   Wall time [min]:     0.150
 
 Second step of Coulomb...
   1% done.
  13% done.
  25% done.
  40% done.
  55% done.
  70% done.
  83% done.
 100% done.
 CPU time [min]:     5.284                   Wall time [min]:     0.152
 
 Gradient norm:      2.1792E-06
 DIIS is running in this iteration step.
 RMS of [F,P]:                                         0.00000005130634
 RMS of difference density:                            0.00000035174996
 Gap [au]:  0.23206514
 ALPHA OCC:  57
 BETA  OCC:  57
 
 ***HARTREE-FOCK ENERGY IN STEP  12 IS       -876.0697948745255417 [AU]
 
 Step comparison  Energy Drift [au]  DIIS error drift  Gradient drift
       11            1.3692E-09         1.8545E-07       1.3070E-05
 ======================================================================
 ITERATION STEP  13
 CPU time [min]:     5.296                   Wall time [min]:     0.153
 

 SCF control                  : diis
 Damping factor/level shift   : 0.000/0.000
 DIIS [start/end/frequency]   :   2 / 50 /  1

 Constructing Fock-matrix...
 
 Pipek-Mezey localization...
 Step  Convergence
   1  23.366921807730
   2   9.625232676628
   3  16.691077985550
   4   6.156231242032
   5   1.424131405755
   6   0.026257141070
   7   0.001771785592
   8   0.001775534680
   9   0.003379441779
  10   0.005023595653
  11   0.005001603418
  12   0.003266710789
  13   0.001505238490
  14   0.000542297525
  15   0.000166572330
  16   0.000046171147
  17   0.000011952849
  18   0.000002955056
  19   0.000000708700
  20   0.000000166699
  21   0.000000038751
  22   0.000000008947
  23   0.000000002058
  24   0.000000000472
  25   0.000000000108
  26   0.000000000025
  27   0.000000000006
  28   0.000000000001
  29   0.000000000000
 CPU time [min]:     5.350                   Wall time [min]:     0.154
 
 Constructing local fitting domains...
 Local fitting domains are unchanged.
 
 First step of Coulomb + first step of exchange...
 Exchange contribution is evaluated for MOs 1 to 57.
   1% done.
  13% done.
  25% done.
  40% done.
  55% done.
  70% done.
  83% done.
 100% done.
 CPU time [min]:     5.631                   Wall time [min]:     0.162
 
 Fitting and assembly step of exchange...
 CPU time [min]:     5.660                   Wall time [min]:     0.163
 
 Second step of Coulomb...
   1% done.
  13% done.
  25% done.
  40% done.
  55% done.
  70% done.
  83% done.
 100% done.
 CPU time [min]:     5.733                   Wall time [min]:     0.165
 
 Gradient norm:      5.2585E-07
 DIIS is running in this iteration step.
 RMS of [F,P]:                                         0.00000001113616
 RMS of difference density:                            0.00000007899625
 Gap [au]:  0.23206511
 ALPHA OCC:  57
 BETA  OCC:  57
 
 ***HARTREE-FOCK ENERGY IN STEP  13 IS       -876.0697948745719259 [AU]
 
 Step comparison  Energy Drift [au]  DIIS error drift  Gradient drift
       12            4.6384E-11         4.0170E-08       1.6534E-06
 ======================================================================
 
 SUCCESS...
 THE SCF ITERATION HAS CONVERGED!
 
                   A   
 FINAL ALPHA OCC:  57
 FINAL BETA  OCC:  57
 
 ***FINAL HARTREE-FOCK ENERGY:       -876.0697948745719259 [AU]
 
 Orbital energies [au]:
      Irrep         Alpha          Beta
    1   A         -4.350963      -4.350963
    2   A         -4.350522      -4.350522
    3   A         -4.350517      -4.350517
    4   A         -4.344948      -4.344948
    5   A         -4.344930      -4.344930
    6   A         -4.344911      -4.344911
    7   A         -2.797081      -2.797081
    8   A         -2.797071      -2.797071
    9   A         -2.796966      -2.796966
   10   A         -2.793872      -2.793872
   11   A         -2.792179      -2.792179
   12   A         -2.792176      -2.792176
   13   A         -2.791392      -2.791392
   14   A         -2.790994      -2.790994
   15   A         -2.790989      -2.790989
   16   A         -2.788668      -2.788668
   17   A         -2.787157      -2.787157
   18   A         -2.787156      -2.787156
   19   A         -2.785805      -2.785805
   20   A         -2.785805      -2.785805
   21   A         -2.785468      -2.785468
   22   A         -2.784831      -2.784831
   23   A         -2.784815      -2.784815
   24   A         -2.784794      -2.784794
   25   A         -0.557409      -0.557409
   26   A         -0.556569      -0.556569
   27   A         -0.556555      -0.556555
   28   A         -0.538130      -0.538130
   29   A         -0.531929      -0.531929
   30   A         -0.531912      -0.531912
   31   A         -0.531453      -0.531453
   32   A         -0.531428      -0.531428
   33   A         -0.526812      -0.526812
   34   A         -0.511264      -0.511264
   35   A         -0.507201      -0.507201
   36   A         -0.498424      -0.498424
   37   A         -0.498050      -0.498050
   38   A         -0.498041      -0.498041
   39   A         -0.497936      -0.497936
   40   A         -0.497918      -0.497918
   41   A         -0.497880      -0.497880
   42   A         -0.493096      -0.493096
   43   A         -0.493080      -0.493080
   44   A         -0.488936      -0.488936
   45   A         -0.488928      -0.488928
   46   A         -0.477775      -0.477775
   47   A         -0.477767      -0.477767
   48   A         -0.474192      -0.474192
   49   A         -0.473011      -0.473011
   50   A         -0.473004      -0.473004
   51   A         -0.472199      -0.472199
   52   A         -0.460390      -0.460390
   53   A         -0.449080      -0.449080
   54   A         -0.449076      -0.449076
   55   A         -0.324756      -0.324756
   56   A         -0.223346      -0.223346
   57   A         -0.223319      -0.223319
 
   58   A          0.008746       0.008746
   59   A          0.021955       0.021955
   60   A          0.021961       0.021961
   61   A          0.027117       0.027117
   62   A          0.066965       0.066965
   63   A          0.066976       0.066976
   64   A          0.074304       0.074304
   65   A          0.074312       0.074312
   66   A          0.088202       0.088202
   67   A          0.103959       0.103959
   68   A          0.138229       0.138229
   69   A          0.142841       0.142841
   70   A          0.142847       0.142847
   71   A          0.155105       0.155105
   72   A          0.155107       0.155107
   73   A          0.164914       0.164914
   74   A          0.177848       0.177848
   75   A          0.177851       0.177851
   76   A          0.184284       0.184284
   77   A          0.184291       0.184291
   78   A          0.190383       0.190383
   79   A          0.218098       0.218098
   80   A          0.271306       0.271306
   81   A          0.271316       0.271316
   82   A          0.300549       0.300549
   83   A          0.300556       0.300556
   84   A          0.310832       0.310832
   85   A          0.407259       0.407259
   86   A          0.416712       0.416712
   87   A          0.446411       0.446411
   88   A          0.446433       0.446433
   89   A          0.454540       0.454540
   90   A          0.454555       0.454555
   91   A          0.491605       0.491605
   92   A          0.524462       0.524462
   93   A          0.532982       0.532982
   94   A          0.532992       0.532992
   95   A          0.536666       0.536666
   96   A          0.546675       0.546675
   97   A          0.546685       0.546685
   98   A          0.573446       0.573446
   99   A          0.573487       0.573487
  100   A          0.600835       0.600835
  101   A          0.602487       0.602487
  102   A          0.602495       0.602495
  103   A          0.615162       0.615162
  104   A          0.655906       0.655906
  105   A          0.671600       0.671600
  106   A          0.671616       0.671616
  107   A          0.679082       0.679082
  108   A          0.714398       0.714398
  109   A          0.714432       0.714432
  110   A          0.715584       0.715584
  111   A          0.715591       0.715591
  112   A          0.754142       0.754142
  113   A          0.809462       0.809462
  114   A          0.813185       0.813185
  115   A          0.813238       0.813238
  116   A          0.825758       0.825758
  117   A          0.830537       0.830537
  118   A          0.830556       0.830556
  119   A          0.910989       0.910989
  120   A          0.927279       0.927279
  121   A          0.927303       0.927303
  122   A          0.957740       0.957740
  123   A          0.957753       0.957753
  124   A          0.996353       0.996353
  125   A          0.996359       0.996359
  126   A          1.004067       1.004067
  127   A          1.090949       1.090949
  128   A          1.109038       1.109038
  129   A          1.109142       1.109142
  130   A          1.267631       1.267631
  131   A          1.299697       1.299697
  132   A          1.299739       1.299739
  133   A          2.471456       2.471456
  134   A          2.499257       2.499257
  135   A          2.499276       2.499276
  136   A          2.711964       2.711964
  137   A          2.712005       2.712005
  138   A          2.737959       2.737959
  139   A          2.998421       2.998421
  140   A          2.998421       2.998421
  141   A          2.998930       2.998930
  142   A          2.998933       2.998933
  143   A          3.000078       3.000078
  144   A          3.000213       3.000213
  145   A          3.000802       3.000802
  146   A          3.002410       3.002410
  147   A          3.003250       3.003250
  148   A          3.003256       3.003256
  149   A          3.003280       3.003280
  150   A          3.003524       3.003524
  151   A          3.003525       3.003525
  152   A          3.004785       3.004785
  153   A          3.004790       3.004790
  154   A          3.004881       3.004881
  155   A          3.006350       3.006350
  156   A          3.006361       3.006361
  157   A          3.006458       3.006458
  158   A          3.006595       3.006595
  159   A          3.006603       3.006603
  160   A          3.006635       3.006635
  161   A          3.006989       3.006989
  162   A          3.006996       3.006996
  163   A          3.009043       3.009043
  164   A          3.009051       3.009051
  165   A          3.012183       3.012183
  166   A          3.012646       3.012646
  167   A          3.016005       3.016005
  168   A          3.016010       3.016010
  169   A          3.016450       3.016450
  170   A          3.016464       3.016464
  171   A          3.017980       3.017980
  172   A          3.025923       3.025923
  173   A          3.025940       3.025940
  174   A          3.033178       3.033178
  175   A          3.041749       3.041749
  176   A          3.055572       3.055572
  177   A          3.055580       3.055580
  178   A          3.056297       3.056297
  179   A          3.136204       3.136204
  180   A          3.136218       3.136218
  181   A         56.457405      56.457405
  182   A         56.482734      56.482734
  183   A         56.482756      56.482756
  184   A         56.637543      56.637543
  185   A         56.662607      56.662607
  186   A         56.662617      56.662617
 
 RETURNING FROM SCF ALGORITHM
 ======================================================================

 ************************ 2022-12-22 19:35:36 *************************
 Executing integ...

 Allocation of 220.0 Gbytes of memory...
 
 
 Number of atoms:                  6
 Charge:                           0
 Number of electrons:            114
 Number of core electrons:        48
 Spin multiplicity:                1
 
                 Cartesian coordinates [bohr]      Atomic mass [AMU]  Z
   1  Ag    0.92074343   -2.58314584   -1.24662668   106.905092      47
   2  Ag   -1.81680484   -0.05132591    2.40177114   106.905092      47
   3  Ag   -1.75300391   -5.08292101    2.21112353   106.905092      47
   4  Ag    0.90178745    2.63394338   -1.15092562   106.905092      47
   5  Ag    3.51472362    0.09863017   -4.62975382   106.905092      47
   6  Ag   -1.76744575    4.98481920    2.41441146   106.905092      47
 
 This molecule is an asymmetric top.
 
 Point group: C1  
 Computational point group: C1  
 
 Cartesian coordinates in standard orientation [bohr]
   1  Ag   -2.26733337   -1.98334158    0.00667328
   2  Ag   -0.58470435    2.95465879    0.00556882
   3  Ag   -5.50310168    1.87456892   -0.00625771
   4  Ag    2.85160899   -0.97149781   -0.00512529
   5  Ag    1.12824941   -5.70304157   -0.00071571
   6  Ag    4.37528100    3.82865326   -0.00014338
 
 Nuclear repulsion energy [au]:        867.938529659799
 
 
 Basis set information:
 
 Maximum angular momentum: i
 Maximum number of contracted Gaussians:   13
 Maximum number of primitive Gaussians:    13
 Spherical harmonic GTOs are used.
 
 
 Conventional basis set:
 
   1  Ag bse_acvtz [ 13s 12p 11d 4f 3g | 8s 8p 7d 4f 3g ]
   2  Ag bse_acvtz [ 13s 12p 11d 4f 3g | 8s 8p 7d 4f 3g ]
   3  Ag bse_acvtz [ 13s 12p 11d 4f 3g | 8s 8p 7d 4f 3g ]
   4  Ag bse_acvtz [ 13s 12p 11d 4f 3g | 8s 8p 7d 4f 3g ]
   5  Ag bse_acvtz [ 13s 12p 11d 4f 3g | 8s 8p 7d 4f 3g ]
   6  Ag bse_acvtz [ 13s 12p 11d 4f 3g | 8s 8p 7d 4f 3g ]
 
 Basis functions:
            1             2             3             4             5             6             7             8             9            10
    0    1Ag1s         1Ag2s         1Ag3s         1Ag4s         1Ag5s         1Ag6s         1Ag7s         1Ag8s         1Ag1pz        1Ag1py    
    1    1Ag1px        1Ag2pz        1Ag2py        1Ag2px        1Ag3pz        1Ag3py        1Ag3px        1Ag4pz        1Ag4py        1Ag4px    
    2    1Ag5pz        1Ag5py        1Ag5px        1Ag6pz        1Ag6py        1Ag6px        1Ag7pz        1Ag7py        1Ag7px        1Ag8pz    
    3    1Ag8py        1Ag8px        1Ag1d-2       1Ag1d-1       1Ag1d0        1Ag1d+1       1Ag1d+2       1Ag2d-2       1Ag2d-1       1Ag2d0    
    4    1Ag2d+1       1Ag2d+2       1Ag3d-2       1Ag3d-1       1Ag3d0        1Ag3d+1       1Ag3d+2       1Ag4d-2       1Ag4d-1       1Ag4d0    
    5    1Ag4d+1       1Ag4d+2       1Ag5d-2       1Ag5d-1       1Ag5d0        1Ag5d+1       1Ag5d+2       1Ag6d-2       1Ag6d-1       1Ag6d0    
    6    1Ag6d+1       1Ag6d+2       1Ag7d-2       1Ag7d-1       1Ag7d0        1Ag7d+1       1Ag7d+2       1Ag1f-3       1Ag1f-2       1Ag1f-1   
    7    1Ag1f0        1Ag1f+1       1Ag1f+2       1Ag1f+3       1Ag2f-3       1Ag2f-2       1Ag2f-1       1Ag2f0        1Ag2f+1       1Ag2f+2   
    8    1Ag2f+3       1Ag3f-3       1Ag3f-2       1Ag3f-1       1Ag3f0        1Ag3f+1       1Ag3f+2       1Ag3f+3       1Ag4f-3       1Ag4f-2   
    9    1Ag4f-1       1Ag4f0        1Ag4f+1       1Ag4f+2       1Ag4f+3       1Ag1g-4       1Ag1g-3       1Ag1g-2       1Ag1g-1       1Ag1g0    
   10    1Ag1g+1       1Ag1g+2       1Ag1g+3       1Ag1g+4       1Ag2g-4       1Ag2g-3       1Ag2g-2       1Ag2g-1       1Ag2g0        1Ag2g+1   
   11    1Ag2g+2       1Ag2g+3       1Ag2g+4       1Ag3g-4       1Ag3g-3       1Ag3g-2       1Ag3g-1       1Ag3g0        1Ag3g+1       1Ag3g+2   
   12    1Ag3g+3       1Ag3g+4       2Ag1s         2Ag2s         2Ag3s         2Ag4s         2Ag5s         2Ag6s         2Ag7s         2Ag8s     
   13    2Ag1pz        2Ag1py        2Ag1px        2Ag2pz        2Ag2py        2Ag2px        2Ag3pz        2Ag3py        2Ag3px        2Ag4pz    
   14    2Ag4py        2Ag4px        2Ag5pz        2Ag5py        2Ag5px        2Ag6pz        2Ag6py        2Ag6px        2Ag7pz        2Ag7py    
   15    2Ag7px        2Ag8pz        2Ag8py        2Ag8px        2Ag1d-2       2Ag1d-1       2Ag1d0        2Ag1d+1       2Ag1d+2       2Ag2d-2   
   16    2Ag2d-1       2Ag2d0        2Ag2d+1       2Ag2d+2       2Ag3d-2       2Ag3d-1       2Ag3d0        2Ag3d+1       2Ag3d+2       2Ag4d-2   
   17    2Ag4d-1       2Ag4d0        2Ag4d+1       2Ag4d+2       2Ag5d-2       2Ag5d-1       2Ag5d0        2Ag5d+1       2Ag5d+2       2Ag6d-2   
   18    2Ag6d-1       2Ag6d0        2Ag6d+1       2Ag6d+2       2Ag7d-2       2Ag7d-1       2Ag7d0        2Ag7d+1       2Ag7d+2       2Ag1f-3   
   19    2Ag1f-2       2Ag1f-1       2Ag1f0        2Ag1f+1       2Ag1f+2       2Ag1f+3       2Ag2f-3       2Ag2f-2       2Ag2f-1       2Ag2f0    
   20    2Ag2f+1       2Ag2f+2       2Ag2f+3       2Ag3f-3       2Ag3f-2       2Ag3f-1       2Ag3f0        2Ag3f+1       2Ag3f+2       2Ag3f+3   
   21    2Ag4f-3       2Ag4f-2       2Ag4f-1       2Ag4f0        2Ag4f+1       2Ag4f+2       2Ag4f+3       2Ag1g-4       2Ag1g-3       2Ag1g-2   
   22    2Ag1g-1       2Ag1g0        2Ag1g+1       2Ag1g+2       2Ag1g+3       2Ag1g+4       2Ag2g-4       2Ag2g-3       2Ag2g-2       2Ag2g-1   
   23    2Ag2g0        2Ag2g+1       2Ag2g+2       2Ag2g+3       2Ag2g+4       2Ag3g-4       2Ag3g-3       2Ag3g-2       2Ag3g-1       2Ag3g0    
   24    2Ag3g+1       2Ag3g+2       2Ag3g+3       2Ag3g+4       3Ag1s         3Ag2s         3Ag3s         3Ag4s         3Ag5s         3Ag6s     
   25    3Ag7s         3Ag8s         3Ag1pz        3Ag1py        3Ag1px        3Ag2pz        3Ag2py        3Ag2px        3Ag3pz        3Ag3py    
   26    3Ag3px        3Ag4pz        3Ag4py        3Ag4px        3Ag5pz        3Ag5py        3Ag5px        3Ag6pz        3Ag6py        3Ag6px    
   27    3Ag7pz        3Ag7py        3Ag7px        3Ag8pz        3Ag8py        3Ag8px        3Ag1d-2       3Ag1d-1       3Ag1d0        3Ag1d+1   
   28    3Ag1d+2       3Ag2d-2       3Ag2d-1       3Ag2d0        3Ag2d+1       3Ag2d+2       3Ag3d-2       3Ag3d-1       3Ag3d0        3Ag3d+1   
   29    3Ag3d+2       3Ag4d-2       3Ag4d-1       3Ag4d0        3Ag4d+1       3Ag4d+2       3Ag5d-2       3Ag5d-1       3Ag5d0        3Ag5d+1   
   30    3Ag5d+2       3Ag6d-2       3Ag6d-1       3Ag6d0        3Ag6d+1       3Ag6d+2       3Ag7d-2       3Ag7d-1       3Ag7d0        3Ag7d+1   
   31    3Ag7d+2       3Ag1f-3       3Ag1f-2       3Ag1f-1       3Ag1f0        3Ag1f+1       3Ag1f+2       3Ag1f+3       3Ag2f-3       3Ag2f-2   
   32    3Ag2f-1       3Ag2f0        3Ag2f+1       3Ag2f+2       3Ag2f+3       3Ag3f-3       3Ag3f-2       3Ag3f-1       3Ag3f0        3Ag3f+1   
   33    3Ag3f+2       3Ag3f+3       3Ag4f-3       3Ag4f-2       3Ag4f-1       3Ag4f0        3Ag4f+1       3Ag4f+2       3Ag4f+3       3Ag1g-4   
   34    3Ag1g-3       3Ag1g-2       3Ag1g-1       3Ag1g0        3Ag1g+1       3Ag1g+2       3Ag1g+3       3Ag1g+4       3Ag2g-4       3Ag2g-3   
   35    3Ag2g-2       3Ag2g-1       3Ag2g0        3Ag2g+1       3Ag2g+2       3Ag2g+3       3Ag2g+4       3Ag3g-4       3Ag3g-3       3Ag3g-2   
   36    3Ag3g-1       3Ag3g0        3Ag3g+1       3Ag3g+2       3Ag3g+3       3Ag3g+4       4Ag1s         4Ag2s         4Ag3s         4Ag4s     
   37    4Ag5s         4Ag6s         4Ag7s         4Ag8s         4Ag1pz        4Ag1py        4Ag1px        4Ag2pz        4Ag2py        4Ag2px    
   38    4Ag3pz        4Ag3py        4Ag3px        4Ag4pz        4Ag4py        4Ag4px        4Ag5pz        4Ag5py        4Ag5px        4Ag6pz    
   39    4Ag6py        4Ag6px        4Ag7pz        4Ag7py        4Ag7px        4Ag8pz        4Ag8py        4Ag8px        4Ag1d-2       4Ag1d-1   
   40    4Ag1d0        4Ag1d+1       4Ag1d+2       4Ag2d-2       4Ag2d-1       4Ag2d0        4Ag2d+1       4Ag2d+2       4Ag3d-2       4Ag3d-1   
   41    4Ag3d0        4Ag3d+1       4Ag3d+2       4Ag4d-2       4Ag4d-1       4Ag4d0        4Ag4d+1       4Ag4d+2       4Ag5d-2       4Ag5d-1   
   42    4Ag5d0        4Ag5d+1       4Ag5d+2       4Ag6d-2       4Ag6d-1       4Ag6d0        4Ag6d+1       4Ag6d+2       4Ag7d-2       4Ag7d-1   
   43    4Ag7d0        4Ag7d+1       4Ag7d+2       4Ag1f-3       4Ag1f-2       4Ag1f-1       4Ag1f0        4Ag1f+1       4Ag1f+2       4Ag1f+3   
   44    4Ag2f-3       4Ag2f-2       4Ag2f-1       4Ag2f0        4Ag2f+1       4Ag2f+2       4Ag2f+3       4Ag3f-3       4Ag3f-2       4Ag3f-1   
   45    4Ag3f0        4Ag3f+1       4Ag3f+2       4Ag3f+3       4Ag4f-3       4Ag4f-2       4Ag4f-1       4Ag4f0        4Ag4f+1       4Ag4f+2   
   46    4Ag4f+3       4Ag1g-4       4Ag1g-3       4Ag1g-2       4Ag1g-1       4Ag1g0        4Ag1g+1       4Ag1g+2       4Ag1g+3       4Ag1g+4   
   47    4Ag2g-4       4Ag2g-3       4Ag2g-2       4Ag2g-1       4Ag2g0        4Ag2g+1       4Ag2g+2       4Ag2g+3       4Ag2g+4       4Ag3g-4   
   48    4Ag3g-3       4Ag3g-2       4Ag3g-1       4Ag3g0        4Ag3g+1       4Ag3g+2       4Ag3g+3       4Ag3g+4       5Ag1s         5Ag2s     
   49    5Ag3s         5Ag4s         5Ag5s         5Ag6s         5Ag7s         5Ag8s         5Ag1pz        5Ag1py        5Ag1px        5Ag2pz    
   50    5Ag2py        5Ag2px        5Ag3pz        5Ag3py        5Ag3px        5Ag4pz        5Ag4py        5Ag4px        5Ag5pz        5Ag5py    
   51    5Ag5px        5Ag6pz        5Ag6py        5Ag6px        5Ag7pz        5Ag7py        5Ag7px        5Ag8pz        5Ag8py        5Ag8px    
   52    5Ag1d-2       5Ag1d-1       5Ag1d0        5Ag1d+1       5Ag1d+2       5Ag2d-2       5Ag2d-1       5Ag2d0        5Ag2d+1       5Ag2d+2   
   53    5Ag3d-2       5Ag3d-1       5Ag3d0        5Ag3d+1       5Ag3d+2       5Ag4d-2       5Ag4d-1       5Ag4d0        5Ag4d+1       5Ag4d+2   
   54    5Ag5d-2       5Ag5d-1       5Ag5d0        5Ag5d+1       5Ag5d+2       5Ag6d-2       5Ag6d-1       5Ag6d0        5Ag6d+1       5Ag6d+2   
   55    5Ag7d-2       5Ag7d-1       5Ag7d0        5Ag7d+1       5Ag7d+2       5Ag1f-3       5Ag1f-2       5Ag1f-1       5Ag1f0        5Ag1f+1   
   56    5Ag1f+2       5Ag1f+3       5Ag2f-3       5Ag2f-2       5Ag2f-1       5Ag2f0        5Ag2f+1       5Ag2f+2       5Ag2f+3       5Ag3f-3   
   57    5Ag3f-2       5Ag3f-1       5Ag3f0        5Ag3f+1       5Ag3f+2       5Ag3f+3       5Ag4f-3       5Ag4f-2       5Ag4f-1       5Ag4f0    
   58    5Ag4f+1       5Ag4f+2       5Ag4f+3       5Ag1g-4       5Ag1g-3       5Ag1g-2       5Ag1g-1       5Ag1g0        5Ag1g+1       5Ag1g+2   
[...]
 tol*100>norm                   291  2.685377220195095E-003
dropped smallnorm   356   369   5.55495221E-06
dropped smallnorm   367   381   2.57625404E-05
dropped smallnorm   367   382   1.80307214E-05
dropped smallnorm   367   383   3.06211871E-05
 tol*100>norm                   409  4.018005200810968E-003
 tol*100>norm                   410  1.644459126132055E-003
 tol*100>norm                   411  1.914248052760914E-003
 tol*100>norm                   412  1.052797906296002E-003
 tol*100>norm                   413  4.549457931153914E-003
 tol*100>norm                   531  3.522024474468331E-003
 tol*100>norm                   532  1.283196022503191E-003
 tol*100>norm                   533  1.545780162074232E-003
 tol*100>norm                   534  8.682683295246226E-004
 tol*100>norm                   535  2.296840233725389E-003
 tol*100>norm                   653  2.076284109114723E-003
 tol*100>norm                   654  1.046232385470507E-003
 tol*100>norm                   655  1.545866467683431E-003
 tol*100>norm                   656  1.105525915279336E-003
 tol*100>norm                   657  3.741182460016743E-003
 Number of Cholesky vectors:      7
 MP2 energy in LIS [au]:         -0.089581261474
 Correction for frozen LNO [au]: -0.001402085008     (1.541%)
 Number of NAFs:                909  (41.97%)
 CPU time [min]:  1675.576                   Wall time [min]:    60.547
 

 Direct DF-CCSD(T) calculation
 
 Convergence criterion:  1.0E-05
 
 Number of occupied/virtual/auxiliary orbitals:    45   237   909
   3355.74 MB is the minimal memory requirement for (T)
   2075.05 MB is the minimal memory requirement for CCSD
 
 MP2 correlation energy [au]:       -2.952978522189
 
 LMP2 domain correlation energy contribution [au]:       -0.089579681494
 
 CPU time [min]:  1676.583                   Wall time [min]:    60.733
 
 
 Starting CCSD iterations...
 
                     Residual norm       Correlation Energy
 Iteration  1        0.510759851586       -2.631258705085
 Iteration  2        0.179699078421       -2.730138679499
 Iteration  3        0.041091920778       -2.745487848258
 Iteration  4        0.018639944163       -2.742918765204
 Iteration  5        0.006815041822       -2.741183986754
 Iteration  6        0.003289071068       -2.741334721705
 Iteration  7        0.001505112563       -2.741676524947
 Iteration  8        0.000700806455       -2.741642952033
 Iteration  9        0.000285044254       -2.741606372310
 Iteration 10        0.000142389244       -2.741617260968
 Iteration 11        0.000058329010       -2.741619420729
 Iteration 12        0.000027223253       -2.741616858108
 
 CCSD iteration has converged in 12 steps.
    14050.43 MB memory was utilized by CCSD
 
 T1 diagnostic:      1.870E-02            D1 diagnostic:      6.334E-02
 
 T1 contribution [au]:                         0.000000000000
 CCSD correlation energy [au]:                -0.079232732576
 
 CPU time [min]:  1881.898                   Wall time [min]:    68.754
 
 Calculation of (T) correction...
 
 Laplace threshold, nquadmin:  1.00E-02   3
 Number of quadrature points:    3
 
     8124.14 MB memory is utilized for (T)

 0%       25%       50%       75%       100%
 |---------|---------|---------|---------| 
 
 (T) correction [au]:                   -0.007591698461
 CCSD(T) correlation energy [au]:       -0.086824431036
 
 CPU time [min]:  2078.043                   Wall time [min]:    74.614
 
 MO:    56
 Number of atoms in domain:       6
 Number of atomic orbitals:     732
 Number of atoms for local DF:    6
 Number of fitting functions:  2166 (100.00%)
 Number of occupied orbitals:    51
 Number of virtual  orbitals:   675
 Number of Cholesky vectors:      9
 MP2 energy in ED [au]:          -0.090962255353
 Number of occupied LNOs:        45  (88.24%)
 Number of virtual  LNOs:       237  (35.11%)
dropped smallnorm     2     3   5.38185364E-06
dropped smallnorm    13    15   2.57288108E-05
dropped smallnorm    13    16   2.16807024E-05
dropped smallnorm    13    17   2.40911950E-05
 tol*100>norm                    43  4.542775619436295E-003
 tol*100>norm                    44  1.365458194094065E-003
 tol*100>norm                    45  1.727711335900971E-003
 tol*100>norm                    46  1.271293175670938E-003
 tol*100>norm                    47  3.488283677846722E-003
dropped smallnorm   120   125   5.69157704E-06
dropped smallnorm   131   137   2.57630346E-05
dropped smallnorm   131   138   3.18279553E-05
dropped smallnorm   131   139   1.91376863E-05
 tol*100>norm                   165  3.748060845296800E-003
 tol*100>norm                   166  1.003489495021690E-003
 tol*100>norm                   167  2.061101987816440E-003
 tol*100>norm                   168  1.694072792655056E-003
 tol*100>norm                   169  5.265661779210926E-003
 tol*100>norm                   287  3.128319928958807E-003
 tol*100>norm                   288  8.981940883547310E-004
 tol*100>norm                   289  1.546166374263614E-003
 tol*100>norm                   290  1.254077084714321E-003
 tol*100>norm                   291  2.695559871405375E-003
dropped smallnorm   360   369   5.37802431E-06
dropped smallnorm   371   381   2.57276223E-05
dropped smallnorm   371   382   1.53342461E-05
dropped smallnorm   371   383   3.03679441E-05
 tol*100>norm                   409  3.864631517643606E-003
 tol*100>norm                   410  1.590754684472181E-003
 tol*100>norm                   411  1.723288083466641E-003
 tol*100>norm                   412  1.045606855866730E-003
 tol*100>norm                   413  4.154757840630757E-003
dropped smallnorm   478   491   5.54420033E-06
dropped smallnorm   489   503   2.77799035E-05
dropped smallnorm   489   504   3.52792588E-05
dropped smallnorm   489   505   3.42292358E-05
 tol*100>norm                   531  3.520068915557313E-003
 tol*100>norm                   532  1.275945992354931E-003
 tol*100>norm                   533  1.544561090032154E-003
 tol*100>norm                   534  8.681233248000599E-004
 tol*100>norm                   535  2.291375497103300E-003
 tol*100>norm                   653  2.074919775538476E-003
 tol*100>norm                   654  1.046050977452909E-003
 tol*100>norm                   655  1.545883863425177E-003
 tol*100>norm                   656  1.105703553564603E-003
 tol*100>norm                   657  3.746880350187480E-003
 Number of Cholesky vectors:      7
 MP2 energy in LIS [au]:         -0.089570489706
 Correction for frozen LNO [au]: -0.001391765647     (1.530%)
 Number of NAFs:                909  (41.97%)
 CPU time [min]:  2116.105                   Wall time [min]:    76.084
 

 Direct DF-CCSD(T) calculation
 
 Convergence criterion:  1.0E-05
 
 Number of occupied/virtual/auxiliary orbitals:    45   237   909
   3355.74 MB is the minimal memory requirement for (T)
   2075.05 MB is the minimal memory requirement for CCSD
 
 MP2 correlation energy [au]:       -2.952775516117
 
 LMP2 domain correlation energy contribution [au]:       -0.089568911529
 
 CPU time [min]:  2117.116                   Wall time [min]:    76.270
 
 
 Starting CCSD iterations...
 
                     Residual norm       Correlation Energy
 Iteration  1        0.510697468350       -2.631076420918
 Iteration  2        0.179655094122       -2.729945158872
 Iteration  3        0.041080353934       -2.745289319090
 Iteration  4        0.018640755597       -2.742719834866
 Iteration  5        0.006818625912       -2.740984424517
 Iteration  6        0.003292427177       -2.741136327667
 Iteration  7        0.001507515946       -2.741479012892
 Iteration  8        0.000701739941       -2.741445335132
 Iteration  9        0.000285313134       -2.741408693660
 Iteration 10        0.000142486399       -2.741419596099
 Iteration 11        0.000058348779       -2.741421763554
 Iteration 12        0.000027234640       -2.741419199791
 
 CCSD iteration has converged in 12 steps.
    14050.43 MB memory was utilized by CCSD
 
 T1 diagnostic:      1.870E-02            D1 diagnostic:      6.333E-02
 
 T1 contribution [au]:                         0.000000000000
 CCSD correlation energy [au]:                -0.079225187875
 
 CPU time [min]:  2322.275                   Wall time [min]:    84.285
 
 Calculation of (T) correction...
 
 Laplace threshold, nquadmin:  1.00E-02   3
 Number of quadrature points:    3
 
     8124.14 MB memory is utilized for (T)

 0%       25%       50%       75%       100%
 |---------|---------|---------|---------| 
 
 (T) correction [au]:                   -0.007591393554
 CCSD(T) correlation energy [au]:       -0.086816581430
 
 CPU time [min]:  2518.248                   Wall time [min]:    90.144
 
 MO:    57
 Number of atoms in domain:       6
 Number of atomic orbitals:     732
 Number of atoms for local DF:    6
 Number of fitting functions:  2166 (100.00%)
 Number of occupied orbitals:    53
 Number of virtual  orbitals:   675
 Number of Cholesky vectors:      9
 MP2 energy in ED [au]:          -0.090981754880
 Number of occupied LNOs:        45  (84.91%)
 Number of virtual  LNOs:       237  (35.11%)
dropped smallnorm     2     3   5.37177770E-06
dropped smallnorm    13    15   2.57639081E-05
dropped smallnorm    13    16   2.15839718E-05
dropped smallnorm    13    17   2.41087863E-05
 tol*100>norm                    43  4.523658228041546E-003
 tol*100>norm                    44  1.398516273707020E-003
 tol*100>norm                    45  1.717364495497741E-003
 tol*100>norm                    46  1.299015823573178E-003
 tol*100>norm                    47  3.444236048432058E-003
dropped smallnorm   120   125   5.37031044E-06
dropped smallnorm   131   137   2.57282274E-05
dropped smallnorm   131   138   3.16191056E-05
dropped smallnorm   131   139   1.41677498E-05
 tol*100>norm                   165  3.567549476038011E-003
 tol*100>norm                   166  1.001691816946156E-003
 tol*100>norm                   167  1.716188195470311E-003
 tol*100>norm                   168  1.635028067565961E-003
 tol*100>norm                   169  4.370642631847029E-003
 tol*100>norm                   260  3.633751122618582E-003
 tol*100>norm                   287  3.127079419907886E-003
 tol*100>norm                   288  8.982574306763374E-004
 tol*100>norm                   289  1.545894883807238E-003
 tol*100>norm                   290  1.253591563254845E-003
 tol*100>norm                   291  2.688533497103779E-003
dropped smallnorm   360   369   5.37017623E-06
dropped smallnorm   371   381   2.57272172E-05
dropped smallnorm   371   382   1.54007208E-05
dropped smallnorm   371   383   3.03662407E-05
 tol*100>norm                   409  3.827021257241974E-003
 tol*100>norm                   410  1.589172813546176E-003
 tol*100>norm                   411  1.715399535093843E-003
 tol*100>norm                   412  1.047289696255075E-003
 tol*100>norm                   413  4.110513688234362E-003
 tol*100>norm                   505  2.441912607380090E-004
 tol*100>norm                   531  3.519918699110704E-003
 tol*100>norm                   532  1.283135719779175E-003
 tol*100>norm                   533  1.545797875014413E-003
 tol*100>norm                   534  8.683402744639496E-004
 tol*100>norm                   535  2.294433748142710E-003
dropped smallnorm   600   613   5.63239468E-06
dropped smallnorm   611   625   2.77792148E-05
dropped smallnorm   611   626   3.49588597E-05
dropped smallnorm   611   627   3.46396831E-05
 tol*100>norm                   653  2.070107522620212E-003
 tol*100>norm                   654  1.042776436969926E-003
 tol*100>norm                   655  1.544495685259343E-003
 tol*100>norm                   656  1.101196693931970E-003
 tol*100>norm                   657  3.738798246752543E-003
 Number of Cholesky vectors:      7
 MP2 energy in LIS [au]:         -0.089568762740
 Correction for frozen LNO [au]: -0.001412992139     (1.553%)
 Number of NAFs:                909  (41.97%)
 CPU time [min]:  2556.573                   Wall time [min]:    91.622
 

 Direct DF-CCSD(T) calculation
 
 Convergence criterion:  1.0E-05
 
 Number of occupied/virtual/auxiliary orbitals:    45   237   909
   3355.74 MB is the minimal memory requirement for (T)
   2075.05 MB is the minimal memory requirement for CCSD
 
 MP2 correlation energy [au]:       -2.953157638332
 
 LMP2 domain correlation energy contribution [au]:       -0.089567185928
 
 CPU time [min]:  2557.580                   Wall time [min]:    91.808
 
 
 Starting CCSD iterations...
 
                     Residual norm       Correlation Energy
 Iteration  1        0.510798773664       -2.631406022186
 Iteration  2        0.179702500362       -2.730301212084
 Iteration  3        0.041095926420       -2.745652260200
 Iteration  4        0.018639759333       -2.743081830491
 Iteration  5        0.006812183992       -2.741347887145
 Iteration  6        0.003286516007       -2.741497316860
 Iteration  7        0.001503623261       -2.741838636126
 Iteration  8        0.000700321624       -2.741805381639
 Iteration  9        0.000284971167       -2.741768774757
 Iteration 10        0.000142404826       -2.741779614893
 Iteration 11        0.000058339402       -2.741781786123
 Iteration 12        0.000027220827       -2.741779225323
 
 CCSD iteration has converged in 12 steps.
    14050.43 MB memory was utilized by CCSD
 
 T1 diagnostic:      1.870E-02            D1 diagnostic:      6.334E-02
 
 T1 contribution [au]:                         0.000000000000
 CCSD correlation energy [au]:                -0.079224087608
 
 CPU time [min]:  2762.750                   Wall time [min]:    99.821
 
 Calculation of (T) correction...
 
 Laplace threshold, nquadmin:  1.00E-02   3
 Number of quadrature points:    3
 
     8124.14 MB memory is utilized for (T)

 0%       25%       50%       75%       100%
 |---------|---------|---------|---------| 
 
 (T) correction [au]:                   -0.007591449505
 CCSD(T) correlation energy [au]:       -0.086815537112
 
 CPU time [min]:  2958.863                   Wall time [min]:   105.684
 
 **********************************************************************
 Dimensions of the extended domains:    Minimum / Average / Maximum
 
 Number of atoms in domain:                   6       6.0         6
 Number of atomic orbitals:                 732     732.0       732
 Number of fitting functions:              2166    2166.0      2166
 Number of occupied localized MOs:           16      30.0        53
 Number of PAOs:                            675     675.0       675
 Number of occupied LNOs:                    10      21.0        45
 Number of virtual  LNOs:                    59      99.0       237
 Number of NAFs:                            216     385.0       909
 
 **********************************************************************
 Distant (and weak) pair contributions, corrections
 
 Sum of pair energies [au]:                    -0.002087771285    (0.042%)
 Sum of energy corrections [au]:               -0.041683245291    (0.831%)
 Pair energies + LNO corrections [au]:         -0.043771016577
 Sum of LMP2 contributions [au]:               -5.015500539100
 
 **********************************************************************
  Time of manipulations in the EDs:      max CPU/Wall [s]  all CPU/Wall [min]
 
 PD construction & multipole pair E     383.94    11.16     6.40     0.19
 Construct MO basis of the ED             7.10     0.21     5.71     0.16
 (mu,nu|P) evaluation & trf 2 (ai|P)    581.77    16.20   352.35     9.81
 Evaluate MP2 energy of the ED           68.17     1.90    36.77     1.02
 Transformations to the LNO basis        38.60     1.08    17.48     0.49
 Build W_PQ (Jai or Jpi part)             4.63     0.13     2.08     0.06
 Evaluate MP2 energy of the LIS           6.83     0.19     0.98     0.03
 (mu,nu|P) evaluation & trf 2 J(abQ)   1602.60    68.48   757.92    31.90
 Total of the above for all EDs        2309.70    88.19  1173.28    43.47
 
 **********************************************************************
 Maximum memory requirement [MB]:       
 
 PD construction & multipole pair E         41.8
 AO integral evaluation in the EDs        2959.4
 (mu,nu|P) evaluation & trf 2 (aI|P)      5131.3
 Evaluate MP2 energy in the EDs           1487.1
 Transformation to the LNO basis           786.3
 (mu,nu|P) to Jab transformation          3493.9
 Evaluate MP2 energy in the LIS            837.8
 Minimum requirement for LIS CCSD         2075.0
 Actually allocated  for LIS CCSD        14050.4
 Minimum requirement for LIS (T)          3355.8
 Actually allocated  for LIS (T)          8124.1
 
 ======================================================================
 ======================================================================
 
 
 
 ======================================================================
 ======================================================================
 
 Final local CC results:
 
 Minimum number of correlated electrons:        20       ( 17.5%)
 Maximum number of correlated electrons:        90       ( 78.9%)
 Average number of correlated electrons:        42.0     ( 36.8%)
 Minimum number of correlated orbitals:         69       (  9.4%)
 Maximum number of correlated orbitals:        282       ( 38.5%)
 Average number of correlated orbitals:        120.0     ( 16.4%)
 
 CPU time for integral calculations [min]:                 19.806
 Wall time for integral calculations [min]:                 1.865
 
 CPU time for SCF calculation [min]:                       33.401
 Wall time for SCF calculation [min]:                       0.978
 
 CPU time for orbital localization [min]:                   0.263
 Wall time for orbital localization [min]:                  0.054
 
 CPU time for integral transformations [min]:            1199.464
 Wall time for integral transformations [min]:             44.259
 
 Reference energy [au]:                                  -876.423422969540
 
 LMP2 correlation energy [au]:                             -5.015500539100
 Total LMP2 energy [au]:                                 -881.438923508641
 
 Total MP2 correction for dropped NAFs [au]:               -0.000029160749
 Total MP2 correction [au]:                                -0.043800177325
 
 CPU time for CCSD calculations [min]:                    965.708
 Total CPU time for CCSD [min]:                          2218.642
 Wall time for CCSD calculations [min]:                    37.688
 Total wall time for CCSD [min]:                           84.844
 
 CCSD correlation energy [au]:                             -4.663418028551
 Total CCSD energy [au]:                                 -881.086840998092
 CCSD correlation energy + 0.5 MP2 corrections [au]:       -4.685318117214
 Total LNO-CCSD energy with MP2 corrections [au]:        -881.108741086754
 
 CPU time for (T) corrections [min]:                      793.699
 Total CPU time for CCSD(T) [min]:                       3012.341
 Wall time for (T) corrections [min]:                      23.738
 Total wall time for CCSD(T) [min]:                       108.582
 
 Total (T) correlation energy contribution [au]:           -0.186967531178
 Total (T) correlation energy+0.5 MP2 correction [au]:     -0.208867619840
 CCSD(T) correlation energy [au]:                          -4.850385559729
 Total CCSD(T) energy [au]:                              -881.273808529269
 CCSD(T) correlation energy + MP2 corrections [au]:        -4.894185737054
 Total LNO-CCSD(T) energy with MP2 corrections [au]:     -881.317608706595
 
 ======================================================================
 ======================================================================
 
 ************************ 2022-12-22 21:24:13 *************************
                      Normal termination of mrcc.
 **********************************************************************
