 **********************************************************************
                          MRCC program system
 **********************************************************************
 
                              Written by
     Mihaly Kallay, Peter R. Nagy, David Mester, Laszlo Gyevi-Nagy,
        Jozsef Csoka, P. Bernat Szabo, Zoltan Rolik, Gyula Samu,
     Jozsef Csontos, Bence Hegely, Adam Ganyecz, Istvan Ladjanszki,
       Lorant Szegedy, Bence Ladoczki, Klara Petrov, Mate Farkas,
                    Pal D. Mezei, and Reka A. Horvath
 
        Department of Physical Chemistry and Materials Science
            Budapest University of Technology and Economics
                  Budapest P.O.Box 91, H-1521 Hungary
 
                              www.mrcc.hu
 
                      Release date: March 18, 2022

 ************************ 2023-02-15 05:09:25 *************************
 Executing minp...

 Reading input from MINP...
 
 Input file:
 
calc=LB2PLYP
verbosity=3
mem=220GB
symm=off
unit=angs
scfiguess=small
scfalg=locfit1
lcorthr=normal
bpedo=0.99999
ECP=MCDHF-ECP-10
basis=bse_ACVTZ
basis_sm=def2-SVP
dfbasis_scf=def2-QZVPP-RI-JK
dfbasis_cor=bse_ACVTZ_mp2fit
core=0
unit=angs
geom=xyz
4
Cu4_2
Cu    -0.79550424     2.19091526    -0.08195085
Cu    -1.03012119    -2.19091526    -0.91001768
Cu    -0.43608716    -0.14643675    -0.22475424
Cu     1.03012119     1.32773866     0.91001768

ghost=serialno


 
 
 Checking keyword combinations...
 
 Keywords:
 
 active=none
 agrid=ld0006-ld0590
 agrid_pssp=ld0006-ld0194
 agrid_pssp_sm=ld0006-ld0074
 basis=bse_acvtz
 basis_sm=def2-svp
 basopt=off
 bfbasis=none
 bfgsmem=10
 bfgstol=1.0d-3
 bpcompo=0.985
 bpcompv=0.98
 bpdfo=0.985
 bpocc=0.99999
 bppdo=0.999d0
 bppdv=0.98
 bpedo=0.99999
 bpedv=0.995d0
 calc=mp2
 ccmaxit=50
 ccprog=mrcc
 ccsdalg=disk
 ccsdmkl=seq
 ccsdrest=off
 ccsdthreads=2
 cctol=5
 charge=0
 cialg=direct
 ciguess=off
 cmpgrp=auto
 comprest=off
 core=corr
 corembed=off
 csapprox=off
 cvs=off
 dboc=off
 delocsomofact=
 dendec=cholesky
 dens=0
 dfalg=lineq
 dfbasis_cab=none
 dfbasis_cor=bse_acvtz_mp2fit
 dfbasis_scf=def2-qzvpp-ri-jk
 dfbasis_scf_sm=def2-qzvpp-ri-jk
 dfintran=drpa
 dft=b2plyp
 dhexc=adc(2)
 diag=david
 docc=
 domrad=10.d0
 drpaalg=auto
 dual=off
 dual_df=off
 ecp=mcdhf-ecp-10
 edisp=off
 edisp_embed=off
 embed=off
 etemp=300
 epert=none
 eps=
 espcharge=off
 excrad=1.0
 excrad_fin=0.100000000D-02
 fitting=coulomb
 fmm=off
 fmmord=8
 freq=off
 gamma=1.d0
 gauss=spher
 geom=xyz
 gopt=off
 ghost=serialno
 gtol=7
 grdens=off
 gridbatch_cos=2000
 grtol=10
 guido_ct=off
 hamilton=dc
 iface=none
 intalg=auto
 itol=10
 laptol=1.d-2
 lccoporder=trffirst
 lcorthr=normal
 lccrest=off
 lmp2dens=on
 lnoepso=0.d0
 lnoepsv=1e-6
 boysalg=jacobi
 localcc=2021
 localcorrsymm=off
 locintrf=directai
 mact=
 maxact=off
 maxdim=100
 maxex=0
 maxmicroit=100
 mcscfiguess=hf
 mem=220gb
 mmprog=
 molden=on
 mpitasks=1
 mulmet=3
 mult=
 nacto=0
 nactv=0
 naf_amp=1.d-2
 naf_cor=off
 naf_scf=off
 nafalg=albe
 naftyp=
 nchol=auto
 ndeps=1e-3
 nstate=1
 nsing=0
 nto=off
 ntrip=0
 occ=
 occri=off
 oniom=off
 oniom_eechg=off
 oniom_pcm=off
 oniom_qcorr=off
 optalg=
 optmaxit=50
 optetol=1e-6
 optex=0
 optgtol=1e-4
 optstol=1e-3
 orblocc=boys
 orbloce=off
 orbloco=boys
 orblocv=pao
 orblocguess=cholesky
 osveps=-1.d0
 ovirt=off
 ovltol=1e-7
 ovosnorb=80.0
 pcm=off
 popul=off
 pressure=100000
 pssp=off
 ptfreq=0.0
 ptthreads=2
 qro=off
 qscf=off
 qmmm=off
 redcost_exc=off
 redcost_tddft=0.985d0
 refdet=none
 rest=0
 rgrid=log3
 rism=off
 rohfcore=standard
 rohftype=semicanonical
 scfalg=locfit1
 scf_conv=difficult
 scfdamp=0.7d0
 scfdamp_mode=1
 scfdamp_end=3
 scfdamp_dampstep=0.d0
 scfdamp_dtol=0.0d0
 scfdamp_maxfact=0.7d0
 scfdamp_minfact=0.7d0
 scfdiis=on
 scfdiis_dtol=0.0d0
 scfdiis_end=50
 scfdiis_start=2
 scfdiis_step=1
 scfdiis_watch=off
 scfdiis_wrange=10
 scfdiis_wlimit=5
 scfdiis_delmax=2
 scfdtol=7
 scfext=10
 scfguessdens=
 scfiguess=small
 scfloc=pm
 scflshift=0.20
 scflshift_end=8
 scflshift_dtol=0.0
 scflshift_gaptol=0.20
 scfmaxit=50
 scftype=
 scftol=6
 scspe=1.d0
 scsph=1.d0
 scsps=1.2d0
 scsps_t=1.2d0
 scspt=0.33333333333333
 scspt_t=0.33333333333333
 scspv=1.d0
 spairtol=-1.d0
 sqmprog=
 subminp=top
 symm=0
 talg=lapl
 temp=298.15
 test=off
 theodore=off
 tlmo=0.999
 tpao=0.94
 tprint=off
 uncontract=off
 unit=angs
 usedisk=2
 verbosity=3
 wpairtol=1.d-5
 
 Calculating integrals for small-basis SCF...

 ************************ 2023-02-15 05:09:26 *************************
 Executing integ...

 Allocation of 220.0 Gbytes of memory...
 
 
 Number of atoms:                  4
 Charge:                           0
 Number of electrons:             76
 Number of core electrons:        32
 Spin multiplicity:                1
 
                 Cartesian coordinates [bohr]      Atomic mass [AMU]  Z
   1  Cu   -1.50328515    4.14022981   -0.15486466    62.929599      29
   2  Cu   -1.94664693   -4.14022981   -1.71968418    62.929599      29
   3  Cu   -0.82408530   -0.27672535   -0.42472396    62.929599      29
   4  Cu    1.94664693    2.50906243    1.71968418    62.929599      29
 
 This molecule is an asymmetric top.
 This molecule is planar.
 
 Point group: C1  
 Computational point group: C1  
 
 Cartesian coordinates in standard orientation [bohr]
   1  Cu    3.02689208   -2.12575790    0.00003506
   2  Cu   -5.13972763   -0.00030177    0.00006538
   3  Cu   -0.91317667    0.00015074   -0.00013551
   4  Cu    3.02601221    2.12590893    0.00003508
 
 Nuclear repulsion energy [au]:        417.165650803070
 
 
 Basis set information:
 
 Maximum angular momentum: i
 Maximum number of contracted Gaussians:   16
 Maximum number of primitive Gaussians:    19
 Spherical harmonic GTOs are used.
 
 
 Conventional basis set:
 
   1  Cu def2-svp [ 14s 9p 5d 1f | 5s 3p 2d 1f ]
   2  Cu def2-svp [ 14s 9p 5d 1f | 5s 3p 2d 1f ]
   3  Cu def2-svp [ 14s 9p 5d 1f | 5s 3p 2d 1f ]
   4  Cu def2-svp [ 14s 9p 5d 1f | 5s 3p 2d 1f ]
 
 Basis functions:
            1             2             3             4             5             6             7             8             9            10
    0    1Cu1s         1Cu2s         1Cu3s         1Cu4s         1Cu5s         1Cu1pz        1Cu1py        1Cu1px        1Cu2pz        1Cu2py    
    1    1Cu2px        1Cu3pz        1Cu3py        1Cu3px        1Cu1d-2       1Cu1d-1       1Cu1d0        1Cu1d+1       1Cu1d+2       1Cu2d-2   
    2    1Cu2d-1       1Cu2d0        1Cu2d+1       1Cu2d+2       1Cu1f-3       1Cu1f-2       1Cu1f-1       1Cu1f0        1Cu1f+1       1Cu1f+2   
    3    1Cu1f+3       2Cu1s         2Cu2s         2Cu3s         2Cu4s         2Cu5s         2Cu1pz        2Cu1py        2Cu1px        2Cu2pz    
    4    2Cu2py        2Cu2px        2Cu3pz        2Cu3py        2Cu3px        2Cu1d-2       2Cu1d-1       2Cu1d0        2Cu1d+1       2Cu1d+2   
    5    2Cu2d-2       2Cu2d-1       2Cu2d0        2Cu2d+1       2Cu2d+2       2Cu1f-3       2Cu1f-2       2Cu1f-1       2Cu1f0        2Cu1f+1   
    6    2Cu1f+2       2Cu1f+3       3Cu1s         3Cu2s         3Cu3s         3Cu4s         3Cu5s         3Cu1pz        3Cu1py        3Cu1px    
    7    3Cu2pz        3Cu2py        3Cu2px        3Cu3pz        3Cu3py        3Cu3px        3Cu1d-2       3Cu1d-1       3Cu1d0        3Cu1d+1   
    8    3Cu1d+2       3Cu2d-2       3Cu2d-1       3Cu2d0        3Cu2d+1       3Cu2d+2       3Cu1f-3       3Cu1f-2       3Cu1f-1       3Cu1f0    
    9    3Cu1f+1       3Cu1f+2       3Cu1f+3       4Cu1s         4Cu2s         4Cu3s         4Cu4s         4Cu5s         4Cu1pz        4Cu1py    
   10    4Cu1px        4Cu2pz        4Cu2py        4Cu2px        4Cu3pz        4Cu3py        4Cu3px        4Cu1d-2       4Cu1d-1       4Cu1d0    
   11    4Cu1d+1       4Cu1d+2       4Cu2d-2       4Cu2d-1       4Cu2d0        4Cu2d+1       4Cu2d+2       4Cu1f-3       4Cu1f-2       4Cu1f-1   
   12    4Cu1f0        4Cu1f+1       4Cu1f+2       4Cu1f+3   
 
 Maximum number of basis functions per shell:   10
 Total number of basis functions:    124
 
 
 Fitting basis set for the SCF calculation:
 
   1  Cu def2-qzvpp-ri-jk [ 19s 14p 12d 10f 7g 3h 1i | 16s 13p 11d 9f 5g 3h 1i ]
   2  Cu def2-qzvpp-ri-jk [ 19s 14p 12d 10f 7g 3h 1i | 16s 13p 11d 9f 5g 3h 1i ]
   3  Cu def2-qzvpp-ri-jk [ 19s 14p 12d 10f 7g 3h 1i | 16s 13p 11d 9f 5g 3h 1i ]
   4  Cu def2-qzvpp-ri-jk [ 19s 14p 12d 10f 7g 3h 1i | 16s 13p 11d 9f 5g 3h 1i ]
 
 Basis functions:
            1             2             3             4             5             6             7             8             9            10
    0    1Cu1s         1Cu2s         1Cu3s         1Cu4s         1Cu5s         1Cu6s         1Cu7s         1Cu8s         1Cu9s         1Cu10s    
    1    1Cu11s        1Cu12s        1Cu13s        1Cu14s        1Cu15s        1Cu16s        1Cu1pz        1Cu1py        1Cu1px        1Cu2pz    
    2    1Cu2py        1Cu2px        1Cu3pz        1Cu3py        1Cu3px        1Cu4pz        1Cu4py        1Cu4px        1Cu5pz        1Cu5py    
    3    1Cu5px        1Cu6pz        1Cu6py        1Cu6px        1Cu7pz        1Cu7py        1Cu7px        1Cu8pz        1Cu8py        1Cu8px    
    4    1Cu9pz        1Cu9py        1Cu9px        1Cu10pz       1Cu10py       1Cu10px       1Cu11pz       1Cu11py       1Cu11px       1Cu12pz   
    5    1Cu12py       1Cu12px       1Cu13pz       1Cu13py       1Cu13px       1Cu1d-2       1Cu1d-1       1Cu1d0        1Cu1d+1       1Cu1d+2   
    6    1Cu2d-2       1Cu2d-1       1Cu2d0        1Cu2d+1       1Cu2d+2       1Cu3d-2       1Cu3d-1       1Cu3d0        1Cu3d+1       1Cu3d+2   
    7    1Cu4d-2       1Cu4d-1       1Cu4d0        1Cu4d+1       1Cu4d+2       1Cu5d-2       1Cu5d-1       1Cu5d0        1Cu5d+1       1Cu5d+2   
    8    1Cu6d-2       1Cu6d-1       1Cu6d0        1Cu6d+1       1Cu6d+2       1Cu7d-2       1Cu7d-1       1Cu7d0        1Cu7d+1       1Cu7d+2   
    9    1Cu8d-2       1Cu8d-1       1Cu8d0        1Cu8d+1       1Cu8d+2       1Cu9d-2       1Cu9d-1       1Cu9d0        1Cu9d+1       1Cu9d+2   
   10    1Cu10d-2      1Cu10d-1      1Cu10d0       1Cu10d+1      1Cu10d+2      1Cu11d-2      1Cu11d-1      1Cu11d0       1Cu11d+1      1Cu11d+2  
   11    1Cu1f-3       1Cu1f-2       1Cu1f-1       1Cu1f0        1Cu1f+1       1Cu1f+2       1Cu1f+3       1Cu2f-3       1Cu2f-2       1Cu2f-1   
   12    1Cu2f0        1Cu2f+1       1Cu2f+2       1Cu2f+3       1Cu3f-3       1Cu3f-2       1Cu3f-1       1Cu3f0        1Cu3f+1       1Cu3f+2   
   13    1Cu3f+3       1Cu4f-3       1Cu4f-2       1Cu4f-1       1Cu4f0        1Cu4f+1       1Cu4f+2       1Cu4f+3       1Cu5f-3       1Cu5f-2   
   14    1Cu5f-1       1Cu5f0        1Cu5f+1       1Cu5f+2       1Cu5f+3       1Cu6f-3       1Cu6f-2       1Cu6f-1       1Cu6f0        1Cu6f+1   
   15    1Cu6f+2       1Cu6f+3       1Cu7f-3       1Cu7f-2       1Cu7f-1       1Cu7f0        1Cu7f+1       1Cu7f+2       1Cu7f+3       1Cu8f-3   
   16    1Cu8f-2       1Cu8f-1       1Cu8f0        1Cu8f+1       1Cu8f+2       1Cu8f+3       1Cu9f-3       1Cu9f-2       1Cu9f-1       1Cu9f0    
   17    1Cu9f+1       1Cu9f+2       1Cu9f+3       1Cu1g-4       1Cu1g-3       1Cu1g-2       1Cu1g-1       1Cu1g0        1Cu1g+1       1Cu1g+2   
   18    1Cu1g+3       1Cu1g+4       1Cu2g-4       1Cu2g-3       1Cu2g-2       1Cu2g-1       1Cu2g0        1Cu2g+1       1Cu2g+2       1Cu2g+3   
   19    1Cu2g+4       1Cu3g-4       1Cu3g-3       1Cu3g-2       1Cu3g-1       1Cu3g0        1Cu3g+1       1Cu3g+2       1Cu3g+3       1Cu3g+4   
   20    1Cu4g-4       1Cu4g-3       1Cu4g-2       1Cu4g-1       1Cu4g0        1Cu4g+1       1Cu4g+2       1Cu4g+3       1Cu4g+4       1Cu5g-4   
   21    1Cu5g-3       1Cu5g-2       1Cu5g-1       1Cu5g0        1Cu5g+1       1Cu5g+2       1Cu5g+3       1Cu5g+4       1Cu1h-5       1Cu1h-4   
   22    1Cu1h-3       1Cu1h-2       1Cu1h-1       1Cu1h0        1Cu1h+1       1Cu1h+2       1Cu1h+3       1Cu1h+4       1Cu1h+5       1Cu2h-5   
   23    1Cu2h-4       1Cu2h-3       1Cu2h-2       1Cu2h-1       1Cu2h0        1Cu2h+1       1Cu2h+2       1Cu2h+3       1Cu2h+4       1Cu2h+5   
   24    1Cu3h-5       1Cu3h-4       1Cu3h-3       1Cu3h-2       1Cu3h-1       1Cu3h0        1Cu3h+1       1Cu3h+2       1Cu3h+3       1Cu3h+4   
   25    1Cu3h+5       1Cu1i-6       1Cu1i-5       1Cu1i-4       1Cu1i-3       1Cu1i-2       1Cu1i-1       1Cu1i0        1Cu1i+1       1Cu1i+2   
   26    1Cu1i+3       1Cu1i+4       1Cu1i+5       1Cu1i+6       2Cu1s         2Cu2s         2Cu3s         2Cu4s         2Cu5s         2Cu6s     
   27    2Cu7s         2Cu8s         2Cu9s         2Cu10s        2Cu11s        2Cu12s        2Cu13s        2Cu14s        2Cu15s        2Cu16s    
   28    2Cu1pz        2Cu1py        2Cu1px        2Cu2pz        2Cu2py        2Cu2px        2Cu3pz        2Cu3py        2Cu3px        2Cu4pz    
   29    2Cu4py        2Cu4px        2Cu5pz        2Cu5py        2Cu5px        2Cu6pz        2Cu6py        2Cu6px        2Cu7pz        2Cu7py    
   30    2Cu7px        2Cu8pz        2Cu8py        2Cu8px        2Cu9pz        2Cu9py        2Cu9px        2Cu10pz       2Cu10py       2Cu10px   
   31    2Cu11pz       2Cu11py       2Cu11px       2Cu12pz       2Cu12py       2Cu12px       2Cu13pz       2Cu13py       2Cu13px       2Cu1d-2   
   32    2Cu1d-1       2Cu1d0        2Cu1d+1       2Cu1d+2       2Cu2d-2       2Cu2d-1       2Cu2d0        2Cu2d+1       2Cu2d+2       2Cu3d-2   
   33    2Cu3d-1       2Cu3d0        2Cu3d+1       2Cu3d+2       2Cu4d-2       2Cu4d-1       2Cu4d0        2Cu4d+1       2Cu4d+2       2Cu5d-2   
   34    2Cu5d-1       2Cu5d0        2Cu5d+1       2Cu5d+2       2Cu6d-2       2Cu6d-1       2Cu6d0        2Cu6d+1       2Cu6d+2       2Cu7d-2   
   35    2Cu7d-1       2Cu7d0        2Cu7d+1       2Cu7d+2       2Cu8d-2       2Cu8d-1       2Cu8d0        2Cu8d+1       2Cu8d+2       2Cu9d-2   
   36    2Cu9d-1       2Cu9d0        2Cu9d+1       2Cu9d+2       2Cu10d-2      2Cu10d-1      2Cu10d0       2Cu10d+1      2Cu10d+2      2Cu11d-2  
   37    2Cu11d-1      2Cu11d0       2Cu11d+1      2Cu11d+2      2Cu1f-3       2Cu1f-2       2Cu1f-1       2Cu1f0        2Cu1f+1       2Cu1f+2   
   38    2Cu1f+3       2Cu2f-3       2Cu2f-2       2Cu2f-1       2Cu2f0        2Cu2f+1       2Cu2f+2       2Cu2f+3       2Cu3f-3       2Cu3f-2   
   39    2Cu3f-1       2Cu3f0        2Cu3f+1       2Cu3f+2       2Cu3f+3       2Cu4f-3       2Cu4f-2       2Cu4f-1       2Cu4f0        2Cu4f+1   
   40    2Cu4f+2       2Cu4f+3       2Cu5f-3       2Cu5f-2       2Cu5f-1       2Cu5f0        2Cu5f+1       2Cu5f+2       2Cu5f+3       2Cu6f-3   
   41    2Cu6f-2       2Cu6f-1       2Cu6f0        2Cu6f+1       2Cu6f+2       2Cu6f+3       2Cu7f-3       2Cu7f-2       2Cu7f-1       2Cu7f0    
   42    2Cu7f+1       2Cu7f+2       2Cu7f+3       2Cu8f-3       2Cu8f-2       2Cu8f-1       2Cu8f0        2Cu8f+1       2Cu8f+2       2Cu8f+3   
   43    2Cu9f-3       2Cu9f-2       2Cu9f-1       2Cu9f0        2Cu9f+1       2Cu9f+2       2Cu9f+3       2Cu1g-4       2Cu1g-3       2Cu1g-2   
   44    2Cu1g-1       2Cu1g0        2Cu1g+1       2Cu1g+2       2Cu1g+3       2Cu1g+4       2Cu2g-4       2Cu2g-3       2Cu2g-2       2Cu2g-1   
   45    2Cu2g0        2Cu2g+1       2Cu2g+2       2Cu2g+3       2Cu2g+4       2Cu3g-4       2Cu3g-3       2Cu3g-2       2Cu3g-1       2Cu3g0    
   46    2Cu3g+1       2Cu3g+2       2Cu3g+3       2Cu3g+4       2Cu4g-4       2Cu4g-3       2Cu4g-2       2Cu4g-1       2Cu4g0        2Cu4g+1   
   47    2Cu4g+2       2Cu4g+3       2Cu4g+4       2Cu5g-4       2Cu5g-3       2Cu5g-2       2Cu5g-1       2Cu5g0        2Cu5g+1       2Cu5g+2   
   48    2Cu5g+3       2Cu5g+4       2Cu1h-5       2Cu1h-4       2Cu1h-3       2Cu1h-2       2Cu1h-1       2Cu1h0        2Cu1h+1       2Cu1h+2   
   49    2Cu1h+3       2Cu1h+4       2Cu1h+5       2Cu2h-5       2Cu2h-4       2Cu2h-3       2Cu2h-2       2Cu2h-1       2Cu2h0        2Cu2h+1   
   50    2Cu2h+2       2Cu2h+3       2Cu2h+4       2Cu2h+5       2Cu3h-5       2Cu3h-4       2Cu3h-3       2Cu3h-2       2Cu3h-1       2Cu3h0    
   51    2Cu3h+1       2Cu3h+2       2Cu3h+3       2Cu3h+4       2Cu3h+5       2Cu1i-6       2Cu1i-5       2Cu1i-4       2Cu1i-3       2Cu1i-2   
   52    2Cu1i-1       2Cu1i0        2Cu1i+1       2Cu1i+2       2Cu1i+3       2Cu1i+4       2Cu1i+5       2Cu1i+6       3Cu1s         3Cu2s     
   53    3Cu3s         3Cu4s         3Cu5s         3Cu6s         3Cu7s         3Cu8s         3Cu9s         3Cu10s        3Cu11s        3Cu12s    
   54    3Cu13s        3Cu14s        3Cu15s        3Cu16s        3Cu1pz        3Cu1py        3Cu1px        3Cu2pz        3Cu2py        3Cu2px    
   55    3Cu3pz        3Cu3py        3Cu3px        3Cu4pz        3Cu4py        3Cu4px        3Cu5pz        3Cu5py        3Cu5px        3Cu6pz    
   56    3Cu6py        3Cu6px        3Cu7pz        3Cu7py        3Cu7px        3Cu8pz        3Cu8py        3Cu8px        3Cu9pz        3Cu9py    
   57    3Cu9px        3Cu10pz       3Cu10py       3Cu10px       3Cu11pz       3Cu11py       3Cu11px       3Cu12pz       3Cu12py       3Cu12px   
   58    3Cu13pz       3Cu13py       3Cu13px       3Cu1d-2       3Cu1d-1       3Cu1d0        3Cu1d+1       3Cu1d+2       3Cu2d-2       3Cu2d-1   
   59    3Cu2d0        3Cu2d+1       3Cu2d+2       3Cu3d-2       3Cu3d-1       3Cu3d0        3Cu3d+1       3Cu3d+2       3Cu4d-2       3Cu4d-1   
   60    3Cu4d0        3Cu4d+1       3Cu4d+2       3Cu5d-2       3Cu5d-1       3Cu5d0        3Cu5d+1       3Cu5d+2       3Cu6d-2       3Cu6d-1   
   61    3Cu6d0        3Cu6d+1       3Cu6d+2       3Cu7d-2       3Cu7d-1       3Cu7d0        3Cu7d+1       3Cu7d+2       3Cu8d-2       3Cu8d-1   
   62    3Cu8d0        3Cu8d+1       3Cu8d+2       3Cu9d-2       3Cu9d-1       3Cu9d0        3Cu9d+1       3Cu9d+2       3Cu10d-2      3Cu10d-1  
   63    3Cu10d0       3Cu10d+1      3Cu10d+2      3Cu11d-2      3Cu11d-1      3Cu11d0       3Cu11d+1      3Cu11d+2      3Cu1f-3       3Cu1f-2   
   64    3Cu1f-1       3Cu1f0        3Cu1f+1       3Cu1f+2       3Cu1f+3       3Cu2f-3       3Cu2f-2       3Cu2f-1       3Cu2f0        3Cu2f+1   
   65    3Cu2f+2       3Cu2f+3       3Cu3f-3       3Cu3f-2       3Cu3f-1       3Cu3f0        3Cu3f+1       3Cu3f+2       3Cu3f+3       3Cu4f-3   
   66    3Cu4f-2       3Cu4f-1       3Cu4f0        3Cu4f+1       3Cu4f+2       3Cu4f+3       3Cu5f-3       3Cu5f-2       3Cu5f-1       3Cu5f0    
   67    3Cu5f+1       3Cu5f+2       3Cu5f+3       3Cu6f-3       3Cu6f-2       3Cu6f-1       3Cu6f0        3Cu6f+1       3Cu6f+2       3Cu6f+3   
   68    3Cu7f-3       3Cu7f-2       3Cu7f-1       3Cu7f0        3Cu7f+1       3Cu7f+2       3Cu7f+3       3Cu8f-3       3Cu8f-2       3Cu8f-1   
   69    3Cu8f0        3Cu8f+1       3Cu8f+2       3Cu8f+3       3Cu9f-3       3Cu9f-2       3Cu9f-1       3Cu9f0        3Cu9f+1       3Cu9f+2   
   70    3Cu9f+3       3Cu1g-4       3Cu1g-3       3Cu1g-2       3Cu1g-1       3Cu1g0        3Cu1g+1       3Cu1g+2       3Cu1g+3       3Cu1g+4   
   71    3Cu2g-4       3Cu2g-3       3Cu2g-2       3Cu2g-1       3Cu2g0        3Cu2g+1       3Cu2g+2       3Cu2g+3       3Cu2g+4       3Cu3g-4   
   72    3Cu3g-3       3Cu3g-2       3Cu3g-1       3Cu3g0        3Cu3g+1       3Cu3g+2       3Cu3g+3       3Cu3g+4       3Cu4g-4       3Cu4g-3   
   73    3Cu4g-2       3Cu4g-1       3Cu4g0        3Cu4g+1       3Cu4g+2       3Cu4g+3       3Cu4g+4       3Cu5g-4       3Cu5g-3       3Cu5g-2   
   74    3Cu5g-1       3Cu5g0        3Cu5g+1       3Cu5g+2       3Cu5g+3       3Cu5g+4       3Cu1h-5       3Cu1h-4       3Cu1h-3       3Cu1h-2   
   75    3Cu1h-1       3Cu1h0        3Cu1h+1       3Cu1h+2       3Cu1h+3       3Cu1h+4       3Cu1h+5       3Cu2h-5       3Cu2h-4       3Cu2h-3   
   76    3Cu2h-2       3Cu2h-1       3Cu2h0        3Cu2h+1       3Cu2h+2       3Cu2h+3       3Cu2h+4       3Cu2h+5       3Cu3h-5       3Cu3h-4   
   77    3Cu3h-3       3Cu3h-2       3Cu3h-1       3Cu3h0        3Cu3h+1       3Cu3h+2       3Cu3h+3       3Cu3h+4       3Cu3h+5       3Cu1i-6   
   78    3Cu1i-5       3Cu1i-4       3Cu1i-3       3Cu1i-2       3Cu1i-1       3Cu1i0        3Cu1i+1       3Cu1i+2       3Cu1i+3       3Cu1i+4   
   79    3Cu1i+5       3Cu1i+6       4Cu1s         4Cu2s         4Cu3s         4Cu4s         4Cu5s         4Cu6s         4Cu7s         4Cu8s     
   80    4Cu9s         4Cu10s        4Cu11s        4Cu12s        4Cu13s        4Cu14s        4Cu15s        4Cu16s        4Cu1pz        4Cu1py    
   81    4Cu1px        4Cu2pz        4Cu2py        4Cu2px        4Cu3pz        4Cu3py        4Cu3px        4Cu4pz        4Cu4py        4Cu4px    
   82    4Cu5pz        4Cu5py        4Cu5px        4Cu6pz        4Cu6py        4Cu6px        4Cu7pz        4Cu7py        4Cu7px        4Cu8pz    
   83    4Cu8py        4Cu8px        4Cu9pz        4Cu9py        4Cu9px        4Cu10pz       4Cu10py       4Cu10px       4Cu11pz       4Cu11py   
   84    4Cu11px       4Cu12pz       4Cu12py       4Cu12px       4Cu13pz       4Cu13py       4Cu13px       4Cu1d-2       4Cu1d-1       4Cu1d0    
   85    4Cu1d+1       4Cu1d+2       4Cu2d-2       4Cu2d-1       4Cu2d0        4Cu2d+1       4Cu2d+2       4Cu3d-2       4Cu3d-1       4Cu3d0    
   86    4Cu3d+1       4Cu3d+2       4Cu4d-2       4Cu4d-1       4Cu4d0        4Cu4d+1       4Cu4d+2       4Cu5d-2       4Cu5d-1       4Cu5d0    
   87    4Cu5d+1       4Cu5d+2       4Cu6d-2       4Cu6d-1       4Cu6d0        4Cu6d+1       4Cu6d+2       4Cu7d-2       4Cu7d-1       4Cu7d0    
   88    4Cu7d+1       4Cu7d+2       4Cu8d-2       4Cu8d-1       4Cu8d0        4Cu8d+1       4Cu8d+2       4Cu9d-2       4Cu9d-1       4Cu9d0    
   89    4Cu9d+1       4Cu9d+2       4Cu10d-2      4Cu10d-1      4Cu10d0       4Cu10d+1      4Cu10d+2      4Cu11d-2      4Cu11d-1      4Cu11d0   
   90    4Cu11d+1      4Cu11d+2      4Cu1f-3       4Cu1f-2       4Cu1f-1       4Cu1f0        4Cu1f+1       4Cu1f+2       4Cu1f+3       4Cu2f-3   
   91    4Cu2f-2       4Cu2f-1       4Cu2f0        4Cu2f+1       4Cu2f+2       4Cu2f+3       4Cu3f-3       4Cu3f-2       4Cu3f-1       4Cu3f0    
   92    4Cu3f+1       4Cu3f+2       4Cu3f+3       4Cu4f-3       4Cu4f-2       4Cu4f-1       4Cu4f0        4Cu4f+1       4Cu4f+2       4Cu4f+3   
   93    4Cu5f-3       4Cu5f-2       4Cu5f-1       4Cu5f0        4Cu5f+1       4Cu5f+2       4Cu5f+3       4Cu6f-3       4Cu6f-2       4Cu6f-1   
   94    4Cu6f0        4Cu6f+1       4Cu6f+2       4Cu6f+3       4Cu7f-3       4Cu7f-2       4Cu7f-1       4Cu7f0        4Cu7f+1       4Cu7f+2   
   95    4Cu7f+3       4Cu8f-3       4Cu8f-2       4Cu8f-1       4Cu8f0        4Cu8f+1       4Cu8f+2       4Cu8f+3       4Cu9f-3       4Cu9f-2   
   96    4Cu9f-1       4Cu9f0        4Cu9f+1       4Cu9f+2       4Cu9f+3       4Cu1g-4       4Cu1g-3       4Cu1g-2       4Cu1g-1       4Cu1g0    
   97    4Cu1g+1       4Cu1g+2       4Cu1g+3       4Cu1g+4       4Cu2g-4       4Cu2g-3       4Cu2g-2       4Cu2g-1       4Cu2g0        4Cu2g+1   
   98    4Cu2g+2       4Cu2g+3       4Cu2g+4       4Cu3g-4       4Cu3g-3       4Cu3g-2       4Cu3g-1       4Cu3g0        4Cu3g+1       4Cu3g+2   
   99    4Cu3g+3       4Cu3g+4       4Cu4g-4       4Cu4g-3       4Cu4g-2       4Cu4g-1       4Cu4g0        4Cu4g+1       4Cu4g+2       4Cu4g+3   
  100    4Cu4g+4       4Cu5g-4       4Cu5g-3       4Cu5g-2       4Cu5g-1       4Cu5g0        4Cu5g+1       4Cu5g+2       4Cu5g+3       4Cu5g+4   
  101    4Cu1h-5       4Cu1h-4       4Cu1h-3       4Cu1h-2       4Cu1h-1       4Cu1h0        4Cu1h+1       4Cu1h+2       4Cu1h+3       4Cu1h+4   
  102    4Cu1h+5       4Cu2h-5       4Cu2h-4       4Cu2h-3       4Cu2h-2       4Cu2h-1       4Cu2h0        4Cu2h+1       4Cu2h+2       4Cu2h+3   
  103    4Cu2h+4       4Cu2h+5       4Cu3h-5       4Cu3h-4       4Cu3h-3       4Cu3h-2       4Cu3h-1       4Cu3h0        4Cu3h+1       4Cu3h+2   
  104    4Cu3h+3       4Cu3h+4       4Cu3h+5       4Cu1i-6       4Cu1i-5       4Cu1i-4       4Cu1i-3       4Cu1i-2       4Cu1i-1       4Cu1i0    
  105    4Cu1i+1       4Cu1i+2       4Cu1i+3       4Cu1i+4       4Cu1i+5       4Cu1i+6   
 
 Maximum number of basis functions per shell:   63
 Total number of basis functions:   1056
 
 
 Effective core potentials:
 
   1  Cu mcdhf-ecp-10        
   2  Cu mcdhf-ecp-10        
   3  Cu mcdhf-ecp-10        
   4  Cu mcdhf-ecp-10        
 
 Initializing the SAD routines for the initial guess...
 Checking the files required for the initial guess...
 Density files have not been found for the initial guess.
 Generating SCFDENSITIES.Cu.def2-svp.0
 CPU time [min]:     0.117                   Wall time [min]:     0.186
 
 Character table for point group C1:
 
          E  
    A     1
 
 Number of basis functions per irrep:
    A     124
 
 
 Density functional: B2PLYP
 Constructing integration grid for DFT...
 Angular integration grid: adaptive 590-point Lebedev quadrature
 Radial integration grid: Log3 quadrature
 Total number of grid points: 80541       
 CPU time [min]:     0.936                   Wall time [min]:     0.210
 
 Calculation of overlap integrals...
 CPU time [min]:     0.939                   Wall time [min]:     0.210
 
 Calculation of the square root of the overlap matrix...
 Minimum eigenvalue of the overlap matrix: 0.258902E-01
 CPU time [min]:     0.957                   Wall time [min]:     0.211
 
 Calculation of kinetic energy integrals...
 CPU time [min]:     0.966                   Wall time [min]:     0.211
 Calculation of dipole moment integrals...
 CPU time [min]:     0.968                   Wall time [min]:     0.211
 Calculation of nuclear attraction integrals...
 CPU time [min]:     0.970                   Wall time [min]:     0.212
 Calculation of core potential integrals...
 CPU time [min]:     1.104                   Wall time [min]:     0.235
 
 Calculation of prescreening integrals...
 CPU time [min]:     1.408                   Wall time [min]:     0.244
 
 Calculation of two-center Coulomb integrals...
   1% done.
  13% done.
  24% done.
  37% done.
  50% done.
  64% done.
  84% done.
  98% done.
 100% done.
 CPU time [min]:     1.504                   Wall time [min]:     0.247
 
 Cholesky decomposition of the two-center matrix...
 Reciprocal of the condition number:  0.609650E-05
 CPU time [min]:     1.554                   Wall time [min]:     0.249
 
 
 Running small-basis SCF...

 ************************ 2023-02-15 05:09:41 *************************
 Executing scf...

 @scfsetup: integrals calculated directly
            mrcc/integ direct run
 @scfsetup: calculating on full matrices
            not using symmetry adapted basis
 @scfsetup: diis switched on
 @scfsetup: number of steps to extrapolate from  10
 @scfsetup: tolerance in energy deviation    0.100000E-05
            tolerance in density deviation    0.100000E-06
 @scfsetup: maximum number of iterations:  50
 @scfsetup: restricted closed shell hf calc
 @scfsetup: starting scf from superposition of atomic densities
 @scfsetup: occupation set:
            from initial orbitals
 @scfsetup: Parameter-set for SCF acceleration: difficult
 @scfsetup: diis runs from iteration:   2
 @scfsetup: diis runs to iteration:  50
 @scfsetup: diis runs in every iteration
 @scfsetup: diiswatch is disabled                   
 @scfsetup: diis dtol criteria to switch on:      0.0000E+00
           (or the iteration number below is reached)
 @scfsetup: static damping scheme
            iteration step criteria to turn damping off: 3
 @scfsetup: dynamic level shifting
            tolarance in HOMO-LUMO gap:  0.200
            tolarance in density deviation:     0.0000E+00
            iteration step criteria to turn level shifting off: 8
 Allocation of 220.0 Gbytes of memory...
 ======================================================================
 ITERATION STEP   1
 CPU time [min]:     0.025                   Wall time [min]:     0.005
 

 SCF control                  : initial
 Damping factor/level shift   : 0.700/0.200
 DIIS [start/end/frequency]   :   2 / 50 /  1

 Constructing Fock-matrix...
 
 Pipek-Mezey localization...
 Step  Convergence
   1   9.208004814033
   2   4.048687405152
   3   0.219079041292
   4   0.002671225616
   5   0.000001028467
   6   0.000000004886
 CPU time [min]:     0.052                   Wall time [min]:     0.006
 
 Constructing local fitting domains...
 Maximum number of atoms in fitting domains:    4
 Average number of atoms in fitting domains:    4.0
 
 First step of Coulomb + first step of exchange...
 Exchange contribution is evaluated for MOs 1 to 38.
   1% done.
  13% done.
  25% done.
  38% done.
  56% done.
  75% done.
  89% done.
 100% done.
 CPU time [min]:     0.406                   Wall time [min]:     0.016
 
 Fitting and assembly step of exchange...
 CPU time [min]:     0.417                   Wall time [min]:     0.017
 
 Second step of Coulomb...
   1% done.
  13% done.
  25% done.
  38% done.
  56% done.
  75% done.
  89% done.
 100% done.
 CPU time [min]:     0.475                   Wall time [min]:     0.019
 
 Calculating the exchange-correlation matrix...
                   0.4700*B88 [au]:    -38.633423202288
                   0.7300*LYP [au]:     -2.376117250603
 Exchange-correlation energy  [au]:    -41.009540452892
 CPU time [min]:     0.880                   Wall time [min]:     0.043
 
 Coulomb energy + HF exchange [au]:   1168.751365315447
 Gradient norm:      3.4640E+00
 RMS of [F,P]:                                         0.07325468209465
 RMS of difference density:                            0.02432280635914
 Gap [au]:  0.02667262
 ALPHA OCC:  38
 BETA  OCC:  38
 
 ***KOHN-SHAM ENERGY IN STEP   1 IS          -771.3614404281829593 [AU]
 ======================================================================
 ITERATION STEP   2
 CPU time [min]:     0.899                   Wall time [min]:     0.044
 

 SCF control                  : diis+damping
 Damping factor/level shift   : 0.700/0.200
 DIIS [start/end/frequency]   :   2 / 50 /  1

 Constructing Fock-matrix...
 
 Pipek-Mezey localization...
 Step  Convergence
   1  10.866730812235
   2   5.139072527225
   3   0.409666625185
   4   0.467431978271
   5   0.045240933902
   6   0.001481223872
   7   0.000154404954
   8   0.000014179346
   9   0.000001311827
  10   0.000000120649
 CPU time [min]:     0.927                   Wall time [min]:     0.044
 
 Constructing local fitting domains...
 Maximum number of atoms in fitting domains:    4
 Average number of atoms in fitting domains:    4.0
 
 First step of Coulomb + first step of exchange...
 Exchange contribution is evaluated for MOs 1 to 38.
   1% done.
  13% done.
  25% done.
  38% done.
  56% done.
  75% done.
  89% done.
 100% done.
 CPU time [min]:     1.047                   Wall time [min]:     0.048
 
 Fitting and assembly step of exchange...
 CPU time [min]:     1.053                   Wall time [min]:     0.048
 
 Second step of Coulomb...
   1% done.
  13% done.
  25% done.
  38% done.
  56% done.
  75% done.
  89% done.
 100% done.
 CPU time [min]:     1.098                   Wall time [min]:     0.049
 
 Calculating the exchange-correlation matrix...
                   0.4700*B88 [au]:    -37.195748858572
                   0.7300*LYP [au]:     -2.360393506190
 Exchange-correlation energy  [au]:    -39.556142364762
 CPU time [min]:     1.378                   Wall time [min]:     0.065
 
 Coulomb energy + HF exchange [au]:   1139.046471818070
 Gradient norm:      7.8311E-01
 DIIS is running in this iteration step.
 RMS of [F,P]:                                         0.05625063847015
 RMS of difference density:                            0.01899785258946
 Gap [au]:  0.00399053
 ALPHA OCC:  38
 BETA  OCC:  38
 
 ***KOHN-SHAM ENERGY IN STEP   2 IS          -775.1914606830900993 [AU]
 
 Step comparison  Energy Drift [au]  DIIS error drift  Gradient drift
        1            3.8300E+00         1.7004E-02       2.6809E+00
        2            7.7519E+02         1.0000E-07       2.6809E+00
 ======================================================================
 ITERATION STEP   3
 CPU time [min]:     1.390                   Wall time [min]:     0.065
 

 SCF control                  : diis+damping
 Damping factor/level shift   : 0.700/0.200
 DIIS [start/end/frequency]   :   2 / 50 /  1

 Constructing Fock-matrix...
 
 Pipek-Mezey localization...
 Step  Convergence
   1   6.235158927607
   2   4.358548495286
   3   0.794611581277
   4   0.641162226241
   5   0.341859342874
   6   0.027175397674
   7   0.000173762814
   8   0.000007827623
   9   0.000000108561
 CPU time [min]:     1.413                   Wall time [min]:     0.066
 
 Constructing local fitting domains...
 Local fitting domains are unchanged.
 
 First step of Coulomb + first step of exchange...
 Exchange contribution is evaluated for MOs 1 to 38.
   1% done.
  13% done.
  25% done.
  38% done.
  56% done.
  75% done.
  89% done.
 100% done.
 CPU time [min]:     1.532                   Wall time [min]:     0.069
 
 Fitting and assembly step of exchange...
 CPU time [min]:     1.538                   Wall time [min]:     0.069
 
 Second step of Coulomb...
   1% done.
  13% done.
  25% done.
  38% done.
  56% done.
  75% done.
  89% done.
 100% done.
 CPU time [min]:     1.583                   Wall time [min]:     0.071
 
 Calculating the exchange-correlation matrix...
                   0.4700*B88 [au]:    -35.736412120169
                   0.7300*LYP [au]:     -2.337372891696
 Exchange-correlation energy  [au]:    -38.073785011866
 CPU time [min]:     1.863                   Wall time [min]:     0.086
 
 Coulomb energy + HF exchange [au]:   1109.092225537822
 Gradient norm:      5.9839E-01
 DIIS is running in this iteration step.
 RMS of [F,P]:                                         0.03836667980438
 RMS of difference density:                            0.01553969523435
 Gap [au]:  0.01155466
 ALPHA OCC:  38
 BETA  OCC:  38
 
 ***KOHN-SHAM ENERGY IN STEP   3 IS          -777.5380506920937478 [AU]
 
 Step comparison  Energy Drift [au]  DIIS error drift  Gradient drift
        2            2.3466E+00         1.7884E-02       1.8472E-01
 ======================================================================
 ITERATION STEP   4
 CPU time [min]:     1.875                   Wall time [min]:     0.086
 

 SCF control                  : diis
 Damping factor/level shift   : 0.000/0.200
 DIIS [start/end/frequency]   :   2 / 50 /  1

 Constructing Fock-matrix...
 Inverse square root: The matrix is not positive definite!
 
 Pipek-Mezey localization...
 Step  Convergence
   1  14.899428029072
   2   7.969145446720
   3   3.021308591050
   4   0.551143317061
   5   0.079081926864
   6   0.000043637602
   7   0.000001139271
   8   0.000000067865
 CPU time [min]:     1.897                   Wall time [min]:     0.087
 
 Constructing local fitting domains...
 Local fitting domains are unchanged.
 
 First step of Coulomb + first step of exchange...
 Exchange contribution is evaluated for MOs 1 to 38.
   1% done.
  13% done.
  25% done.
  38% done.
  56% done.
  75% done.
  89% done.
 100% done.
 CPU time [min]:     2.015                   Wall time [min]:     0.090
 
 Fitting and assembly step of exchange...
 CPU time [min]:     2.021                   Wall time [min]:     0.090
 
 Second step of Coulomb...
   1% done.
  13% done.
  25% done.
  38% done.
  56% done.
  75% done.
  89% done.
 100% done.
 CPU time [min]:     2.066                   Wall time [min]:     0.092
 
 Calculating the exchange-correlation matrix...
                   0.4700*B88 [au]:    -30.959770800524
                   0.7300*LYP [au]:     -2.206499229656
 Exchange-correlation energy  [au]:    -33.166270030180
 CPU time [min]:     2.346                   Wall time [min]:     0.107
 
 Coulomb energy + HF exchange [au]:   1105.215764675636
 Gradient norm:      5.9301E-01
 DIIS is running in this iteration step.
 RMS of [F,P]:                                         0.04020556096400
 RMS of difference density:                            0.09074178341915
 Gap [au]:  0.00021108
 ALPHA OCC:  38
 BETA  OCC:  38
 
 ***KOHN-SHAM ENERGY IN STEP   4 IS          -769.6065200836505937 [AU]
 
 Step comparison  Energy Drift [au]  DIIS error drift  Gradient drift
        3           -7.9315E+00        -1.8389E-03       5.3751E-03
 Warning! The energy goes uphill (with respect to previous step).
 Warning! The DIIS error goes uphill (with respect to previous step).
 Warning! The DIIS error goes uphill (with respect to step   3 ).
 ======================================================================
 ITERATION STEP   5
 CPU time [min]:     2.355                   Wall time [min]:     0.107
 

 SCF control                  : diis
 Damping factor/level shift   : 0.000/0.200
 DIIS [start/end/frequency]   :   2 / 50 /  1

 Constructing Fock-matrix...
 
 Pipek-Mezey localization...
 Step  Convergence
   1  13.188458154185
   2   2.266311331985
   3   0.128310994235
   4   0.000351143560
   5   0.000008622344
   6   0.000000243788
 CPU time [min]:     2.377                   Wall time [min]:     0.108
 
 Constructing local fitting domains...
 Local fitting domains are unchanged.
 
 First step of Coulomb + first step of exchange...
 Exchange contribution is evaluated for MOs 1 to 38.
   1% done.
  13% done.
  25% done.
  38% done.
  56% done.
  75% done.
  89% done.
 100% done.
 CPU time [min]:     2.496                   Wall time [min]:     0.111
 
 Fitting and assembly step of exchange...
 CPU time [min]:     2.502                   Wall time [min]:     0.111
 
 Second step of Coulomb...
   1% done.
  13% done.
  25% done.
  38% done.
  56% done.
  75% done.
  89% done.
 100% done.
 CPU time [min]:     2.546                   Wall time [min]:     0.113
 
 Calculating the exchange-correlation matrix...
                   0.4700*B88 [au]:    -31.071055913963
                   0.7300*LYP [au]:     -2.209359298662
 Exchange-correlation energy  [au]:    -33.280415212625
 CPU time [min]:     2.827                   Wall time [min]:     0.128
 
 Coulomb energy + HF exchange [au]:   1037.465414676681
 Gradient norm:      7.5847E+00
 DIIS is running in this iteration step.
 RMS of [F,P]:                                         0.12838439585611
 RMS of difference density:                            0.09872432114514
 Gap [au]:  0.06026559
 ALPHA OCC:  38
 BETA  OCC:  38
 
 ***KOHN-SHAM ENERGY IN STEP   5 IS          -746.7684219907200713 [AU]
 
 Step comparison  Energy Drift [au]  DIIS error drift  Gradient drift
        4           -2.2838E+01        -8.8179E-02      -6.9917E+00
        3           -3.0770E+01        -9.0018E-02      -6.9917E+00
 Warning! The energy goes uphill (with respect to previous step).
 Warning! The DIIS error goes uphill (with respect to previous step).
 Warning! The DIIS error goes uphill (with respect to step   3 ).
 Warning! The gradient goes uphill (with respect to previous step).
 Warning! The gradient goes uphill (with respect to step   4 ).
 ======================================================================
 ITERATION STEP   6
 CPU time [min]:     2.835                   Wall time [min]:     0.128
 

 SCF control                  : diis
 Damping factor/level shift   : 0.000/0.200
 DIIS [start/end/frequency]   :   2 / 50 /  1

 Constructing Fock-matrix...
 Inverse square root: The matrix is not positive definite!
 
 Pipek-Mezey localization...
 Step  Convergence
   1  15.780036735262
   2  10.468507880932
   3   5.199375489613
   4   1.893748432439
   5   1.035299663342
   6   0.176882091403
   7   0.014800664032
   8   0.002378410754
   9   0.000421118378
  10   0.000076931301
  11   0.000014069531
  12   0.000002586942
  13   0.000000475097
 CPU time [min]:     2.860                   Wall time [min]:     0.129
 
 Constructing local fitting domains...
 Local fitting domains are unchanged.
 
 First step of Coulomb + first step of exchange...
 Exchange contribution is evaluated for MOs 1 to 38.
   1% done.
  13% done.
  25% done.
  38% done.
  56% done.
  75% done.
  89% done.
 100% done.
 CPU time [min]:     2.978                   Wall time [min]:     0.132
 
 Fitting and assembly step of exchange...
 CPU time [min]:     2.985                   Wall time [min]:     0.133
 
 Second step of Coulomb...
   1% done.
  13% done.
  25% done.
  38% done.
  56% done.
  75% done.
  89% done.
 100% done.
 CPU time [min]:     3.029                   Wall time [min]:     0.134
 
 Calculating the exchange-correlation matrix...
                   0.4700*B88 [au]:    -33.652236169710
                   0.7300*LYP [au]:     -2.320714488762
 Exchange-correlation energy  [au]:    -35.972950658472
 CPU time [min]:     3.310                   Wall time [min]:     0.149
 
 Coulomb energy + HF exchange [au]:   1079.315140821152
 Gradient norm:      1.5583E+00
 DIIS is running in this iteration step.
 RMS of [F,P]:                                         0.02501081485323
 RMS of difference density:                            0.00889201527833
 Gap [au]:  0.00013215
 ALPHA OCC:  38
 BETA  OCC:  38
 
 ***KOHN-SHAM ENERGY IN STEP   6 IS          -779.3890092167594048 [AU]
 
 Step comparison  Energy Drift [au]  DIIS error drift  Gradient drift
        5            3.2621E+01         1.0337E-01       6.0264E+00
        6            1.8510E+00         1.3356E-02      -9.6526E-01
 Warning! The gradient goes uphill (with respect to step   4 ).
 ======================================================================
 ITERATION STEP   7
 CPU time [min]:     3.319                   Wall time [min]:     0.149
 

 SCF control                  : diis
 Damping factor/level shift   : 0.000/0.200
 DIIS [start/end/frequency]   :   2 / 50 /  1

 Constructing Fock-matrix...
 
 Pipek-Mezey localization...
 Step  Convergence
   1  17.173115453297
   2   3.092893401157
   3   0.707892736150
   4   0.061930764417
   5   0.000139214940
   6   0.000002849223
   7   0.000000098595
 CPU time [min]:     3.341                   Wall time [min]:     0.150
 
 Constructing local fitting domains...
 Local fitting domains are unchanged.
 
 First step of Coulomb + first step of exchange...
 Exchange contribution is evaluated for MOs 1 to 38.
   1% done.
  13% done.
  25% done.
  38% done.
  56% done.
  75% done.
  89% done.
 100% done.
 CPU time [min]:     3.459                   Wall time [min]:     0.153
 
 Fitting and assembly step of exchange...
 CPU time [min]:     3.466                   Wall time [min]:     0.154
 
 Second step of Coulomb...
   1% done.
  13% done.
  25% done.
  38% done.
  56% done.
  75% done.
  89% done.
 100% done.
 CPU time [min]:     3.510                   Wall time [min]:     0.155
 
 Calculating the exchange-correlation matrix...
                   0.4700*B88 [au]:    -33.519195826849
                   0.7300*LYP [au]:     -2.316541156793
 Exchange-correlation energy  [au]:    -35.835736983642
 CPU time [min]:     3.791                   Wall time [min]:     0.170
 
 Coulomb energy + HF exchange [au]:   1075.824587216924
 Gradient norm:      1.5807E+00
 DIIS is running in this iteration step.
 RMS of [F,P]:                                         0.02624969775397
 RMS of difference density:                            0.00398841562311
 Gap [au]:  0.03554389
 ALPHA OCC:  38
 BETA  OCC:  38
 
 ***KOHN-SHAM ENERGY IN STEP   7 IS          -779.3074447109165703 [AU]
 
 Step comparison  Energy Drift [au]  DIIS error drift  Gradient drift
        6           -8.1565E-02        -1.2389E-03      -2.2410E-02
 Warning! The energy goes uphill (with respect to previous step).
 Warning! The DIIS error goes uphill (with respect to previous step).
 Warning! The DIIS error goes uphill (with respect to step   6 ).
 Warning! The gradient goes uphill (with respect to previous step).
 Warning! The gradient goes uphill (with respect to step   4 ).
 ======================================================================
 ITERATION STEP   8
 CPU time [min]:     3.799                   Wall time [min]:     0.171
 

 SCF control                  : diis
 Damping factor/level shift   : 0.000/0.200
 DIIS [start/end/frequency]   :   2 / 50 /  1

 Constructing Fock-matrix...
 
 Pipek-Mezey localization...
 Step  Convergence
   1  19.354572503435
   2   5.492006306125
   3   4.101496419609
   4   0.944684539319
   5   0.026352692069
   6   0.000299000853
   7   0.000002271843
   8   0.000000102511
   9   0.000000003960
 CPU time [min]:     3.822                   Wall time [min]:     0.171
 
 Constructing local fitting domains...
 Local fitting domains are unchanged.
 
 First step of Coulomb + first step of exchange...
 Exchange contribution is evaluated for MOs 1 to 38.
   1% done.
  13% done.
  25% done.
  38% done.
  56% done.
  75% done.
  89% done.
 100% done.
 CPU time [min]:     3.940                   Wall time [min]:     0.175
 
 Fitting and assembly step of exchange...
 CPU time [min]:     3.946                   Wall time [min]:     0.175
 
 Second step of Coulomb...
   1% done.
  13% done.
  25% done.
  38% done.
  56% done.
  75% done.
  89% done.
 100% done.
 CPU time [min]:     3.991                   Wall time [min]:     0.176
 
 Calculating the exchange-correlation matrix...
                   0.4700*B88 [au]:    -33.417270132758
                   0.7300*LYP [au]:     -2.313694358933
 Exchange-correlation energy  [au]:    -35.730964491691
 CPU time [min]:     4.272                   Wall time [min]:     0.191
 
 Coulomb energy + HF exchange [au]:   1073.765486005937
 Gradient norm:      1.9781E+00
 DIIS is running in this iteration step.
 RMS of [F,P]:                                         0.02925019572362
 RMS of difference density:                            0.00311173977270
 Gap [au]:  0.00376878
 ALPHA OCC:  38
 BETA  OCC:  38
 
 ***KOHN-SHAM ENERGY IN STEP   8 IS          -779.1259398858255736 [AU]
 
 Step comparison  Energy Drift [au]  DIIS error drift  Gradient drift
        7           -1.8150E-01        -3.0005E-03      -3.9742E-01
        6           -2.6307E-01        -4.2394E-03      -1.3851E+00
 Warning! The energy goes uphill (with respect to previous step).
 Warning! The DIIS error goes uphill (with respect to previous step).
 Warning! The DIIS error goes uphill (with respect to step   6 ).
 Warning! The gradient goes uphill (with respect to previous step).
 Warning! The gradient goes uphill (with respect to step   4 ).
 ======================================================================
 ITERATION STEP   9
 CPU time [min]:     4.280                   Wall time [min]:     0.192
 

 SCF control                  : diis
 Damping factor/level shift   : 0.000/0.000
 DIIS [start/end/frequency]   :   2 / 50 /  1

 Constructing Fock-matrix...
 
 Pipek-Mezey localization...
 Step  Convergence
   1  21.658758151326
   2   9.788269089005
   3   6.069490293252
   4   1.507114375327
   5   0.180968634052
   6   0.061651562176
   7   0.000328437629
   8   0.000054290907
   9   0.000000873085
  10   0.000000223753
  11   0.000000005984
  12   0.000000000982
 CPU time [min]:     4.304                   Wall time [min]:     0.192
 
 Constructing local fitting domains...
 Local fitting domains are unchanged.
 
 First step of Coulomb + first step of exchange...
 Exchange contribution is evaluated for MOs 1 to 38.
   1% done.
  13% done.
  25% done.
  38% done.
  56% done.
  75% done.
  89% done.
 100% done.
 CPU time [min]:     4.423                   Wall time [min]:     0.196
 
 Fitting and assembly step of exchange...
 CPU time [min]:     4.429                   Wall time [min]:     0.196
 
 Second step of Coulomb...
   1% done.
  13% done.
  25% done.
  38% done.
  56% done.
  75% done.
  89% done.
 100% done.
 CPU time [min]:     4.473                   Wall time [min]:     0.197
 
 Calculating the exchange-correlation matrix...
                   0.4700*B88 [au]:    -33.334914811087
                   0.7300*LYP [au]:     -2.310191258781
 Exchange-correlation energy  [au]:    -35.645106069867
 CPU time [min]:     4.755                   Wall time [min]:     0.213
 
 Coulomb energy + HF exchange [au]:   1071.951717056594
 Gradient norm:      2.4123E+00
 DIIS is running in this iteration step.
 RMS of [F,P]:                                         0.03384398322095
 RMS of difference density:                            0.05129967196569
 Gap [au]:  0.00865769
 ALPHA OCC:  38
 BETA  OCC:  38
 
 ***KOHN-SHAM ENERGY IN STEP   9 IS          -778.8085902444186104 [AU]
 
 Step comparison  Energy Drift [au]  DIIS error drift  Gradient drift
        8           -3.1735E-01        -4.5938E-03      -4.3418E-01
        6           -5.8042E-01        -8.8332E-03      -1.8193E+00
 Warning! The energy goes uphill (with respect to previous step).
 Warning! The DIIS error goes uphill (with respect to previous step).
 Warning! The DIIS error goes uphill (with respect to step   6 ).
 Warning! The gradient goes uphill (with respect to previous step).
 Warning! The gradient goes uphill (with respect to step   4 ).
 ======================================================================
 ITERATION STEP  10
 CPU time [min]:     4.764                   Wall time [min]:     0.213
 

 SCF control                  : diis
 Damping factor/level shift   : 0.000/0.000
 DIIS [start/end/frequency]   :   2 / 50 /  1

 Constructing Fock-matrix...
 Inverse square root: The matrix is not positive definite!
 
 Pipek-Mezey localization...
 Step  Convergence
   1  20.654532445151
   2  14.927772470438
   3  11.923689459132
   4   8.034002308735
   5   6.217050313947
   6   6.055540011927
   7   2.244681364026
   8   0.285016913203
   9   0.007176669511
  10   0.000397227929
  11   0.000006102164
  12   0.000000342126
  13   0.000000008806
  14   0.000000000364
  15   0.000000000015
 CPU time [min]:     4.789                   Wall time [min]:     0.214
 
 Constructing local fitting domains...
 Local fitting domains are unchanged.
 
 First step of Coulomb + first step of exchange...
 Exchange contribution is evaluated for MOs 1 to 38.
   1% done.
  13% done.
  25% done.
  38% done.
  56% done.
  75% done.
  89% done.
 100% done.
 CPU time [min]:     4.908                   Wall time [min]:     0.217
 
 Fitting and assembly step of exchange...
 CPU time [min]:     4.914                   Wall time [min]:     0.217
 
 Second step of Coulomb...
   1% done.
  13% done.
  25% done.
  38% done.
  56% done.
  75% done.
  89% done.
 100% done.
 CPU time [min]:     4.958                   Wall time [min]:     0.218
 
 Calculating the exchange-correlation matrix...
                   0.4700*B88 [au]:    -31.992609862758
                   0.7300*LYP [au]:     -2.257255573084
 Exchange-correlation energy  [au]:    -34.249865435842
 CPU time [min]:     5.239                   Wall time [min]:     0.234
 
 Coulomb energy + HF exchange [au]:   1045.139873924922
 Gradient norm:      7.7467E+00
 DIIS is running in this iteration step.
 RMS of [F,P]:                                         0.08407274725748
 RMS of difference density:                            0.00008009145381
 Gap [au]:  0.00862969
 ALPHA OCC:  38
 BETA  OCC:  38
 
 ***KOHN-SHAM ENERGY IN STEP  10 IS          -768.5552068170984512 [AU]
 
 Step comparison  Energy Drift [au]  DIIS error drift  Gradient drift
        9           -1.0253E+01        -5.0229E-02      -5.3344E+00
        6           -1.0834E+01        -5.9062E-02      -7.1537E+00
 Warning! The energy goes uphill (with respect to previous step).
 Warning! The DIIS error goes uphill (with respect to previous step).
 Warning! The DIIS error goes uphill (with respect to step   6 ).
 Warning! The gradient goes uphill (with respect to previous step).
 Warning! The gradient goes uphill (with respect to step   4 ).
 ======================================================================
 ITERATION STEP  11
 CPU time [min]:     5.272                   Wall time [min]:     0.235
 

 SCF control                  : diis
 Damping factor/level shift   : 0.000/0.000
 DIIS [start/end/frequency]   :   2 / 50 /  1

 Constructing Fock-matrix...
 
 Pipek-Mezey localization...
 Step  Convergence
   1  15.696304903235
   2   6.670224209543
   3   6.075472056545
   4   2.777657454361
   5   0.477153850432
   6   0.006621272020
   7   0.000140733242
   8   0.000003693075
   9   0.000000118169
  10   0.000000004922
  11   0.000000000196
  12   0.000000000009
  13   0.000000000000
 CPU time [min]:     5.297                   Wall time [min]:     0.235
 
 Constructing local fitting domains...
 Local fitting domains are unchanged.
 
 First step of Coulomb + first step of exchange...
 Exchange contribution is evaluated for MOs 1 to 38.
   1% done.
  13% done.
  25% done.
  38% done.
  56% done.
  75% done.
  89% done.
 100% done.
 CPU time [min]:     5.415                   Wall time [min]:     0.239
 
 Fitting and assembly step of exchange...
 CPU time [min]:     5.421                   Wall time [min]:     0.239
 
 Second step of Coulomb...
   1% done.
  13% done.
  25% done.
  38% done.
  56% done.
  75% done.
  89% done.
 100% done.
 CPU time [min]:     5.466                   Wall time [min]:     0.240
 
 Calculating the exchange-correlation matrix...
                   0.4700*B88 [au]:    -31.994455330509
                   0.7300*LYP [au]:     -2.257325657215
 Exchange-correlation energy  [au]:    -34.251780987724
 CPU time [min]:     5.747                   Wall time [min]:     0.256
 
 Coulomb energy + HF exchange [au]:   1045.165768697895
 Gradient norm:      7.7287E+00
 DIIS is running in this iteration step.
 RMS of [F,P]:                                         0.08396990890486
 RMS of difference density:                            0.00005204813921
 Gap [au]:  0.00870251
 ALPHA OCC:  38
 BETA  OCC:  38
 
 ***KOHN-SHAM ENERGY IN STEP  11 IS          -768.5792506106604378 [AU]
 
 Step comparison  Energy Drift [au]  DIIS error drift  Gradient drift
       10            2.4044E-02         1.0284E-04       1.7976E-02
        6           -1.0810E+01        -5.8959E-02      -7.1357E+00
 Warning! The DIIS error goes uphill (with respect to step   6 ).
 Warning! The gradient goes uphill (with respect to step   4 ).
 ======================================================================
 ITERATION STEP  12
 CPU time [min]:     5.755                   Wall time [min]:     0.256
 

 SCF control                  : diis
 Damping factor/level shift   : 0.000/0.000
 DIIS [start/end/frequency]   :   2 / 50 /  1

 Constructing Fock-matrix...
 
 Pipek-Mezey localization...
 Step  Convergence
   1  16.664807067389
   2   7.547735109023
   3   6.349053386767
   4   5.133882677872
   5   1.268373331157
   6   0.055397181477
   7   0.000852775178
   8   0.000024052068
   9   0.000001472940
  10   0.000000070493
  11   0.000000004214
  12   0.000000000224
  13   0.000000000013
  14   0.000000000001
 CPU time [min]:     5.780                   Wall time [min]:     0.256
 
 Constructing local fitting domains...
 Local fitting domains are unchanged.
 
 First step of Coulomb + first step of exchange...
 Exchange contribution is evaluated for MOs 1 to 38.
   1% done.
  13% done.
  25% done.
  38% done.
  56% done.
  75% done.
  89% done.
 100% done.
 CPU time [min]:     5.898                   Wall time [min]:     0.260
 
 Fitting and assembly step of exchange...
 CPU time [min]:     5.905                   Wall time [min]:     0.260
 
 Second step of Coulomb...
   1% done.
  13% done.
  25% done.
  38% done.
  56% done.
  75% done.
  89% done.
 100% done.
 CPU time [min]:     5.949                   Wall time [min]:     0.261
 
 Calculating the exchange-correlation matrix...
                   0.4700*B88 [au]:    -31.995665970070
                   0.7300*LYP [au]:     -2.257359733414
 Exchange-correlation energy  [au]:    -34.253025703484
 CPU time [min]:     6.230                   Wall time [min]:     0.277
 
 Coulomb energy + HF exchange [au]:   1045.178533860814
 Gradient norm:      7.7187E+00
 DIIS is running in this iteration step.
 RMS of [F,P]:                                         0.08391465562279
 RMS of difference density:                            0.05265839676435
 Gap [au]:  0.05638493
 ALPHA OCC:  38
 BETA  OCC:  38
 
 ***KOHN-SHAM ENERGY IN STEP  12 IS          -768.5930524027717183 [AU]
 
 Step comparison  Energy Drift [au]  DIIS error drift  Gradient drift
       11            1.3802E-02         5.5253E-05       1.0036E-02
        6           -1.0796E+01        -5.8904E-02      -7.1257E+00
 Warning! The DIIS error goes uphill (with respect to step   6 ).
 Warning! The gradient goes uphill (with respect to step   4 ).
 ======================================================================
 ITERATION STEP  13
 CPU time [min]:     6.238                   Wall time [min]:     0.277
 

 SCF control                  : diis
 Damping factor/level shift   : 0.000/0.000
 DIIS [start/end/frequency]   :   2 / 50 /  1

 Constructing Fock-matrix...
 Inverse square root: The matrix is not positive definite!
 
 Pipek-Mezey localization...
 Step  Convergence
   1  15.273836562934
   2   9.062986166659
   3   8.619364285794
   4   8.206563538739
   5   4.904465242976
   6   3.173210523345
   7   0.885542596345
   8   0.137678483884
   9   0.003809077620
  10   0.000147585965
  11   0.000010850708
  12   0.000000933179
  13   0.000000089262
  14   0.000000008068
  15   0.000000000762
  16   0.000000000070
  17   0.000000000007
  18   0.000000000001
 CPU time [min]:     6.265                   Wall time [min]:     0.278
 
 Constructing local fitting domains...
 Local fitting domains are unchanged.
 
 First step of Coulomb + first step of exchange...
 Exchange contribution is evaluated for MOs 1 to 38.
   1% done.
  13% done.
  25% done.
  38% done.
  56% done.
  75% done.
  89% done.
 100% done.
 CPU time [min]:     6.384                   Wall time [min]:     0.281
 
 Fitting and assembly step of exchange...
 CPU time [min]:     6.390                   Wall time [min]:     0.281
 
 Second step of Coulomb...
   1% done.
  13% done.
  25% done.
  38% done.
  56% done.
  75% done.
  89% done.
 100% done.
 CPU time [min]:     6.435                   Wall time [min]:     0.282
 
 Calculating the exchange-correlation matrix...
                   0.4700*B88 [au]:    -33.730871339696
                   0.7300*LYP [au]:     -2.323180297468
 Exchange-correlation energy  [au]:    -36.054051637164
 CPU time [min]:     6.716                   Wall time [min]:     0.298
 
 Coulomb energy + HF exchange [au]:   1080.355219706269
 Gradient norm:      9.4160E-01
 DIIS is running in this iteration step.
 RMS of [F,P]:                                         0.01636180904646
 RMS of difference density:                            0.00744131226074
 Gap [au]:  0.10060692
 ALPHA OCC:  38
 BETA  OCC:  38
 
 ***KOHN-SHAM ENERGY IN STEP  13 IS          -779.7282601207612061 [AU]
 
 Step comparison  Energy Drift [au]  DIIS error drift  Gradient drift
       12            1.1135E+01         6.7553E-02       6.7771E+00
       13            3.3925E-01         8.6490E-03      -3.4859E-01
 Warning! The gradient goes uphill (with respect to step   4 ).
 ======================================================================
 ITERATION STEP  14
 CPU time [min]:     6.724                   Wall time [min]:     0.298
 

 SCF control                  : diis
 Damping factor/level shift   : 0.000/0.000
 DIIS [start/end/frequency]   :   2 / 50 /  1

 Constructing Fock-matrix...
 
 Pipek-Mezey localization...
 Step  Convergence
   1  16.223222896256
   2  10.667231071969
   3  10.320429950223
   4   4.681052162726
   5   2.618609075275
   6   0.322217716216
   7   0.009762387431
   8   0.000146540440
   9   0.000007202975
  10   0.000000987845
  11   0.000000123522
  12   0.000000016441
  13   0.000000002152
  14   0.000000000283
  15   0.000000000037
  16   0.000000000005
  17   0.000000000001
 CPU time [min]:     6.752                   Wall time [min]:     0.299
 
 Constructing local fitting domains...
 Local fitting domains are unchanged.
 
 First step of Coulomb + first step of exchange...
 Exchange contribution is evaluated for MOs 1 to 38.
   1% done.
  13% done.
  25% done.
  38% done.
  56% done.
  75% done.
  89% done.
 100% done.
 CPU time [min]:     6.870                   Wall time [min]:     0.302
 
 Fitting and assembly step of exchange...
 CPU time [min]:     6.877                   Wall time [min]:     0.302
 
 Second step of Coulomb...
   1% done.
  13% done.
  25% done.
  38% done.
  56% done.
  75% done.
  89% done.
 100% done.
 CPU time [min]:     6.921                   Wall time [min]:     0.304
 
 Calculating the exchange-correlation matrix...
                   0.4700*B88 [au]:    -34.035563941245
                   0.7300*LYP [au]:     -2.330918592573
 Exchange-correlation energy  [au]:    -36.366482533818
 CPU time [min]:     7.202                   Wall time [min]:     0.319
 
 Coulomb energy + HF exchange [au]:   1086.236599103336
 Gradient norm:      3.6073E-01
 DIIS is running in this iteration step.
 RMS of [F,P]:                                         0.00597094785758
 RMS of difference density:                            0.00470690826713
 Gap [au]:  0.12324335
 ALPHA OCC:  38
 BETA  OCC:  38
 
 ***KOHN-SHAM ENERGY IN STEP  14 IS          -780.0144108478325506 [AU]
 
 Step comparison  Energy Drift [au]  DIIS error drift  Gradient drift
       13            2.8615E-01         1.0391E-02       5.8087E-01
 ======================================================================
 ITERATION STEP  15
 CPU time [min]:     7.210                   Wall time [min]:     0.319
 

 SCF control                  : diis
 Damping factor/level shift   : 0.000/0.000
 DIIS [start/end/frequency]   :   2 / 50 /  1

 Constructing Fock-matrix...
 
 Pipek-Mezey localization...
 Step  Convergence
   1  13.942470035333
   2   6.147689285177
   3   7.554391027296
   4   5.659789702372
   5   2.155459217113
   6   0.371092503527
   7   0.003008862833
   8   0.000073040023
   9   0.000005534695
  10   0.000000711057
  11   0.000000091680
  12   0.000000012057
  13   0.000000001598
  14   0.000000000213
  15   0.000000000029
  16   0.000000000004
  17   0.000000000001
 CPU time [min]:     7.236                   Wall time [min]:     0.320
 
 Constructing local fitting domains...
 Local fitting domains are unchanged.
 
 First step of Coulomb + first step of exchange...
 Exchange contribution is evaluated for MOs 1 to 38.
   1% done.
  13% done.
  25% done.
  38% done.
  56% done.
  75% done.
  89% done.
 100% done.
 CPU time [min]:     7.355                   Wall time [min]:     0.323
 
 Fitting and assembly step of exchange...
 CPU time [min]:     7.361                   Wall time [min]:     0.324
 
 Second step of Coulomb...
   1% done.
  13% done.
  25% done.
  38% done.
  56% done.
  75% done.
  89% done.
 100% done.
 CPU time [min]:     7.406                   Wall time [min]:     0.325
 
 Calculating the exchange-correlation matrix...
                   0.4700*B88 [au]:    -34.224399075656
                   0.7300*LYP [au]:     -2.334777187313
 Exchange-correlation energy  [au]:    -36.559176262968
 CPU time [min]:     7.686                   Wall time [min]:     0.340
 
 Coulomb energy + HF exchange [au]:   1089.809789702745
 Gradient norm:      2.9177E-02
 DIIS is running in this iteration step.
 RMS of [F,P]:                                         0.00072631357299
 RMS of difference density:                            0.00133338407210
 Gap [au]:  0.12217044
 ALPHA OCC:  38
 BETA  OCC:  38
 
 ***KOHN-SHAM ENERGY IN STEP  15 IS          -780.0652844375786117 [AU]
 
 Step comparison  Energy Drift [au]  DIIS error drift  Gradient drift
       14            5.0874E-02         5.2446E-03       3.3156E-01
 ======================================================================
 ITERATION STEP  16
 CPU time [min]:     7.728                   Wall time [min]:     0.341
 

 SCF control                  : diis
 Damping factor/level shift   : 0.000/0.000
 DIIS [start/end/frequency]   :   2 / 50 /  1

 Constructing Fock-matrix...
 
 Pipek-Mezey localization...
 Step  Convergence
   1  16.869840895275
   2   8.450698852638
   3   7.877348048515
   4   3.933413200867
   5   0.635000799591
   6   0.008235396992
   7   0.000336142394
   8   0.000060009355
   9   0.000006832413
  10   0.000001037479
  11   0.000000136892
  12   0.000000019390
  13   0.000000002655
  14   0.000000000369
  15   0.000000000051
  16   0.000000000007
  17   0.000000000001
 CPU time [min]:     7.755                   Wall time [min]:     0.342
 
 Constructing local fitting domains...
 Local fitting domains are unchanged.
 
 First step of Coulomb + first step of exchange...
 Exchange contribution is evaluated for MOs 1 to 38.
   1% done.
  13% done.
  25% done.
  38% done.
  56% done.
  75% done.
  89% done.
 100% done.
 CPU time [min]:     7.874                   Wall time [min]:     0.345
 
 Fitting and assembly step of exchange...
 CPU time [min]:     7.881                   Wall time [min]:     0.346
 
 Second step of Coulomb...
   1% done.
  13% done.
  25% done.
  38% done.
  56% done.
  75% done.
  89% done.
 100% done.
 CPU time [min]:     7.925                   Wall time [min]:     0.347
 
 Calculating the exchange-correlation matrix...
                   0.4700*B88 [au]:    -34.246340172976
                   0.7300*LYP [au]:     -2.335197985545
 Exchange-correlation energy  [au]:    -36.581538158521
 CPU time [min]:     8.206                   Wall time [min]:     0.362
 
 Coulomb energy + HF exchange [au]:   1090.124686677355
 Gradient norm:      1.4219E-02
 DIIS is running in this iteration step.
 RMS of [F,P]:                                         0.00024285019177
 RMS of difference density:                            0.00033468819404
 Gap [au]:  0.11996839
 ALPHA OCC:  38
 BETA  OCC:  38
 
 ***KOHN-SHAM ENERGY IN STEP  16 IS          -780.0671888817591935 [AU]
 
 Step comparison  Energy Drift [au]  DIIS error drift  Gradient drift
       15            1.9044E-03         4.8346E-04       1.4958E-02
 ======================================================================
 ITERATION STEP  17
 CPU time [min]:     8.214                   Wall time [min]:     0.363
 

 SCF control                  : diis
 Damping factor/level shift   : 0.000/0.000
 DIIS [start/end/frequency]   :   2 / 50 /  1

 Constructing Fock-matrix...
 
 Pipek-Mezey localization...
 Step  Convergence
   1  21.479473034116
   2   8.580272114910
   3   7.664572650930
   4   3.260389255806
   5   0.615376126134
   6   0.044499180578
   7   0.003047197189
   8   0.000409845053
   9   0.000029768889
  10   0.000003846336
  11   0.000000355848
  12   0.000000040584
  13   0.000000004130
  14   0.000000000449
  15   0.000000000047
  16   0.000000000005
  17   0.000000000001
 CPU time [min]:     8.241                   Wall time [min]:     0.363
 
 Constructing local fitting domains...
 Local fitting domains are unchanged.
 
 First step of Coulomb + first step of exchange...
 Exchange contribution is evaluated for MOs 1 to 38.
   1% done.
  13% done.
  25% done.
  38% done.
  56% done.
  75% done.
  89% done.
 100% done.
 CPU time [min]:     8.359                   Wall time [min]:     0.367
 
 Fitting and assembly step of exchange...
 CPU time [min]:     8.365                   Wall time [min]:     0.367
 
 Second step of Coulomb...
   1% done.
  13% done.
  25% done.
  38% done.
  56% done.
  75% done.
  89% done.
 100% done.
 CPU time [min]:     8.410                   Wall time [min]:     0.368
 
 Calculating the exchange-correlation matrix...
                   0.4700*B88 [au]:    -34.241269205556
                   0.7300*LYP [au]:     -2.335204965772
 Exchange-correlation energy  [au]:    -36.576474171328
 CPU time [min]:     8.691                   Wall time [min]:     0.384
 
 Coulomb energy + HF exchange [au]:   1090.108825104178
 Gradient norm:      5.1331E-03
 DIIS is running in this iteration step.
 RMS of [F,P]:                                         0.00009248523846
 RMS of difference density:                            0.00037565310101
 Gap [au]:  0.11949357
 ALPHA OCC:  38
 BETA  OCC:  38
 
 ***KOHN-SHAM ENERGY IN STEP  17 IS          -780.0673712953052927 [AU]
 
 Step comparison  Energy Drift [au]  DIIS error drift  Gradient drift
       16            1.8241E-04         1.5036E-04       9.0856E-03
 ======================================================================
 ITERATION STEP  18
 CPU time [min]:     8.699                   Wall time [min]:     0.384
 

 SCF control                  : diis
 Damping factor/level shift   : 0.000/0.000
 DIIS [start/end/frequency]   :   2 / 50 /  1

 Constructing Fock-matrix...
 
 Pipek-Mezey localization...
 Step  Convergence
   1  20.301377963043
   2  13.851000329427
   3   9.533303720379
   4   6.713399471249
   5   3.357454125471
   6   0.487430871279
   7   0.011555603195
   8   0.000610505305
   9   0.000036305998
  10   0.000007161926
  11   0.000000507625
  12   0.000000134829
  13   0.000000015110
  14   0.000000003338
  15   0.000000000507
  16   0.000000000095
  17   0.000000000016
  18   0.000000000003
  19   0.000000000001
 CPU time [min]:     8.726                   Wall time [min]:     0.385
 
 Constructing local fitting domains...
 Local fitting domains are unchanged.
 
 First step of Coulomb + first step of exchange...
 Exchange contribution is evaluated for MOs 1 to 38.
   1% done.
  13% done.
  25% done.
  38% done.
  56% done.
  75% done.
  89% done.
 100% done.
 CPU time [min]:     8.844                   Wall time [min]:     0.388
 
 Fitting and assembly step of exchange...
 CPU time [min]:     8.851                   Wall time [min]:     0.388
 
 Second step of Coulomb...
   1% done.
  13% done.
  25% done.
  38% done.
  56% done.
  75% done.
  89% done.
 100% done.
 CPU time [min]:     8.895                   Wall time [min]:     0.389
 
 Calculating the exchange-correlation matrix...
                   0.4700*B88 [au]:    -34.241745234993
                   0.7300*LYP [au]:     -2.335187838300
 Exchange-correlation energy  [au]:    -36.576933073293
 CPU time [min]:     9.176                   Wall time [min]:     0.405
 
 Coulomb energy + HF exchange [au]:   1090.100921907427
 Gradient norm:      1.7462E-03
 DIIS is running in this iteration step.
 RMS of [F,P]:                                         0.00004691263431
 RMS of difference density:                            0.00008804182538
 Gap [au]:  0.11979244
 ALPHA OCC:  38
 BETA  OCC:  38
 
 ***KOHN-SHAM ENERGY IN STEP  18 IS          -780.0674534850659256 [AU]
 
 Step comparison  Energy Drift [au]  DIIS error drift  Gradient drift
       17            8.2190E-05         4.5573E-05       3.3869E-03
 ======================================================================
 ITERATION STEP  19
 CPU time [min]:     9.184                   Wall time [min]:     0.405
 

 SCF control                  : diis
 Damping factor/level shift   : 0.000/0.000
 DIIS [start/end/frequency]   :   2 / 50 /  1

 Constructing Fock-matrix...
 
 Pipek-Mezey localization...
 Step  Convergence
   1  14.510113917981
   2   7.099678952739
   3   7.076750986900
   4   4.426356434793
   5   1.333408808394
   6   0.047489960744
   7   0.001371781688
   8   0.000206056602
   9   0.000019079115
  10   0.000003363541
  11   0.000000383165
  12   0.000000060293
  13   0.000000007722
  14   0.000000001136
  15   0.000000000154
  16   0.000000000022
  17   0.000000000003
  18   0.000000000000
 CPU time [min]:     9.211                   Wall time [min]:     0.406
 
 Constructing local fitting domains...
 Local fitting domains are unchanged.
 
 First step of Coulomb + first step of exchange...
 Exchange contribution is evaluated for MOs 1 to 38.
   1% done.
  13% done.
  25% done.
  38% done.
  56% done.
  75% done.
  89% done.
 100% done.
 CPU time [min]:     9.329                   Wall time [min]:     0.409
 
 Fitting and assembly step of exchange...
 CPU time [min]:     9.336                   Wall time [min]:     0.409
 
 Second step of Coulomb...
   1% done.
  13% done.
  25% done.
  38% done.
  56% done.
  75% done.
  89% done.
 100% done.
 CPU time [min]:     9.380                   Wall time [min]:     0.410
 
 Calculating the exchange-correlation matrix...
                   0.4700*B88 [au]:    -34.242206149099
                   0.7300*LYP [au]:     -2.335197618458
 Exchange-correlation energy  [au]:    -36.577403767557
 CPU time [min]:     9.661                   Wall time [min]:     0.426
 
 Coulomb energy + HF exchange [au]:   1090.111410161764
 Gradient norm:      1.2308E-03
 DIIS is running in this iteration step.
 RMS of [F,P]:                                         0.00003195221309
 RMS of difference density:                            0.00004676199223
 Gap [au]:  0.12002405
 ALPHA OCC:  38
 BETA  OCC:  38
 
 ***KOHN-SHAM ENERGY IN STEP  19 IS          -780.0674607179739724 [AU]
 
 Step comparison  Energy Drift [au]  DIIS error drift  Gradient drift
       18            7.2329E-06         1.4960E-05       5.1542E-04
 ======================================================================
 ITERATION STEP  20
 CPU time [min]:     9.670                   Wall time [min]:     0.426
 

 SCF control                  : diis
 Damping factor/level shift   : 0.000/0.000
 DIIS [start/end/frequency]   :   2 / 50 /  1

 Constructing Fock-matrix...
 
 Pipek-Mezey localization...
 Step  Convergence
   1  20.794408703152
   2   7.780118292289
   3   5.513807637494
   4   3.290177020588
   5   0.408250261709
   6   0.003155942026
   7   0.000462178109
   8   0.000021012731
   9   0.000006434643
  10   0.000000476717
  11   0.000000111592
  12   0.000000011537
  13   0.000000002174
  14   0.000000000272
  15   0.000000000046
  16   0.000000000006
  17   0.000000000001
  18   0.000000000000
 CPU time [min]:     9.696                   Wall time [min]:     0.427
 
 Constructing local fitting domains...
 Local fitting domains are unchanged.
 
 First step of Coulomb + first step of exchange...
 Exchange contribution is evaluated for MOs 1 to 38.
   1% done.
  13% done.
  25% done.
  38% done.
  56% done.
  75% done.
  89% done.
 100% done.
 CPU time [min]:     9.815                   Wall time [min]:     0.430
 
 Fitting and assembly step of exchange...
 CPU time [min]:     9.821                   Wall time [min]:     0.430
 
 Second step of Coulomb...
   1% done.
  13% done.
  25% done.
  38% done.
  56% done.
  75% done.
  89% done.
 100% done.
 CPU time [min]:     9.876                   Wall time [min]:     0.432
 
 Calculating the exchange-correlation matrix...
                   0.4700*B88 [au]:    -34.242610991595
                   0.7300*LYP [au]:     -2.335207145616
 Exchange-correlation energy  [au]:    -36.577818137211
 CPU time [min]:    10.156                   Wall time [min]:     0.447
 
 Coulomb energy + HF exchange [au]:   1090.121478994107
 Gradient norm:      2.6540E-04
 DIIS is running in this iteration step.
 RMS of [F,P]:                                         0.00000498499758
 RMS of difference density:                            0.00002276392328
 Gap [au]:  0.12007522
 ALPHA OCC:  38
 BETA  OCC:  38
 
 ***KOHN-SHAM ENERGY IN STEP  20 IS          -780.0674631554570624 [AU]
 
 Step comparison  Energy Drift [au]  DIIS error drift  Gradient drift
       19            2.4375E-06         2.6967E-05       9.6537E-04
 ======================================================================
 ITERATION STEP  21
 CPU time [min]:    10.195                   Wall time [min]:     0.448
 

 SCF control                  : diis
 Damping factor/level shift   : 0.000/0.000
 DIIS [start/end/frequency]   :   2 / 50 /  1

 Constructing Fock-matrix...
 
 Pipek-Mezey localization...
 Step  Convergence
   1  19.054097337611
   2   4.972209558927
   3   8.157048674126
   4   2.904187417673
   5   0.360108516180
   6   0.009472198592
   7   0.000385256659
   8   0.000026373522
   9   0.000003752590
  10   0.000000301379
  11   0.000000049998
  12   0.000000004820
  13   0.000000000801
  14   0.000000000089
  15   0.000000000014
  16   0.000000000002
  17   0.000000000000
 CPU time [min]:    10.222                   Wall time [min]:     0.449
 
 Constructing local fitting domains...
 Local fitting domains are unchanged.
 
 First step of Coulomb + first step of exchange...
 Exchange contribution is evaluated for MOs 1 to 38.
   1% done.
  13% done.
  25% done.
  38% done.
  56% done.
  75% done.
  89% done.
 100% done.
 CPU time [min]:    10.340                   Wall time [min]:     0.453
 
 Fitting and assembly step of exchange...
 CPU time [min]:    10.347                   Wall time [min]:     0.453
 
 Second step of Coulomb...
   1% done.
  13% done.
  25% done.
  38% done.
  56% done.
  75% done.
  89% done.
 100% done.
 CPU time [min]:    10.391                   Wall time [min]:     0.454
 
 Calculating the exchange-correlation matrix...
                   0.4700*B88 [au]:    -34.242561170684
                   0.7300*LYP [au]:     -2.335206146973
 Exchange-correlation energy  [au]:    -36.577767317656
 CPU time [min]:    10.672                   Wall time [min]:     0.469
 
 Coulomb energy + HF exchange [au]:   1090.120230392634
 Gradient norm:      1.0583E-04
 DIIS is running in this iteration step.
 RMS of [F,P]:                                         0.00000284718594
 RMS of difference density:                            0.00000407835010
 Gap [au]:  0.12003408
 ALPHA OCC:  38
 BETA  OCC:  38
 
 ***KOHN-SHAM ENERGY IN STEP  21 IS          -780.0674634456049716 [AU]
 
 Step comparison  Energy Drift [au]  DIIS error drift  Gradient drift
       20            2.9015E-07         2.1378E-06       1.5957E-04
 ======================================================================
 ITERATION STEP  22
 CPU time [min]:    10.680                   Wall time [min]:     0.470
 

 SCF control                  : diis
 Damping factor/level shift   : 0.000/0.000
 DIIS [start/end/frequency]   :   2 / 50 /  1

 Constructing Fock-matrix...
 
 Pipek-Mezey localization...
 Step  Convergence
   1  19.096099592921
   2   5.657773219447
   3   7.014199426583
   4   3.399918315381
   5   1.580792523047
   6   0.091612188060
   7   0.004633921636
   8   0.000416132587
   9   0.000008338884
  10   0.000003659984
  11   0.000000156798
  12   0.000000062979
  13   0.000000005068
  14   0.000000001381
  15   0.000000000180
  16   0.000000000036
  17   0.000000000006
  18   0.000000000001
  19   0.000000000000
 CPU time [min]:    10.707                   Wall time [min]:     0.470
 
 Constructing local fitting domains...
 Local fitting domains are unchanged.
 
 First step of Coulomb + first step of exchange...
 Exchange contribution is evaluated for MOs 1 to 38.
   1% done.
  13% done.
  25% done.
  38% done.
  56% done.
  75% done.
  89% done.
 100% done.
 CPU time [min]:    10.826                   Wall time [min]:     0.474
 
 Fitting and assembly step of exchange...
 CPU time [min]:    10.832                   Wall time [min]:     0.474
 
 Second step of Coulomb...
   1% done.
  13% done.
  25% done.
  38% done.
  56% done.
  75% done.
  89% done.
 100% done.
 CPU time [min]:    10.877                   Wall time [min]:     0.475
 
 Calculating the exchange-correlation matrix...
                   0.4700*B88 [au]:    -34.242639707169
                   0.7300*LYP [au]:     -2.335207530944
 Exchange-correlation energy  [au]:    -36.577847238114
 CPU time [min]:    11.158                   Wall time [min]:     0.490
 
 Coulomb energy + HF exchange [au]:   1090.121880101520
 Gradient norm:      4.6097E-05
 DIIS is running in this iteration step.
 RMS of [F,P]:                                         0.00000125956502
 RMS of difference density:                            0.00000249739543
 Gap [au]:  0.12002047
 ALPHA OCC:  38
 BETA  OCC:  38
 
 ***KOHN-SHAM ENERGY IN STEP  22 IS          -780.0674634704796517 [AU]
 
[...]
   33    1     0.998672        2
   34    1     0.998975        3
   35    1     0.996138        3
   36    1     0.996136        3
   37    2     0.994422        2    3
   38    3     0.998100        1    3    4
 CPU time [min]:     2.844                   Wall time [min]:     0.089
 
 Dimensions of the occupied LMO domains:  Minimum / Average / Maximum
 
 Number of atoms in domain:                   2       3.8         4
 Number of atomic orbitals:                 244     459.1       488
 
 Total number of pairs:   703
 Number of distant pairs: 265 (37.7%)
 Sum of multipole based pair energies:     -0.0005886692
 
 CPU time [min]:     2.907                   Wall time [min]:     0.091
 Number of strong pairs: 438 (62.3%)
        6.03 MB memory is used for domain independent quantities
 
 Calculating the contribution of occupied LMOs...
    using local fitting domains
 
 MO:     1
 Number of atoms in domain:       4
 Number of atomic orbitals:     488
 Number of atoms for local DF:    4
 Number of fitting functions:  1444 (100.00%)
 Warning: drop high-lying PAOs                     4
 Number of occupied orbitals:    15
 Number of virtual  orbitals:   446
 Number of Cholesky vectors:     10
 MP2 energy in ED [au]:          -0.081620699481
 CPU time [min]:     5.314                   Wall time [min]:     0.158
 
 MO:     2
 Number of atoms in domain:       4
 Number of atomic orbitals:     488
 Number of atoms for local DF:    4
 Number of fitting functions:  1444 (100.00%)
 Warning: drop high-lying PAOs                     4
 Number of occupied orbitals:    15
 Number of virtual  orbitals:   446
 Number of Cholesky vectors:     10
 MP2 energy in ED [au]:          -0.081621150324
 CPU time [min]:     7.261                   Wall time [min]:     0.213
 
 MO:     3
 Number of atoms in domain:       4
 Number of atomic orbitals:     488
 Number of atoms for local DF:    4
 Number of fitting functions:  1444 (100.00%)
 Warning: drop high-lying PAOs                     4
 Number of occupied orbitals:    16
 Number of virtual  orbitals:   446
 Number of Cholesky vectors:     10
 MP2 energy in ED [au]:          -0.081297749322
 CPU time [min]:     9.315                   Wall time [min]:     0.270
 
 MO:     4
 Number of atoms in domain:       4
 Number of atomic orbitals:     488
 Number of atoms for local DF:    4
 Number of fitting functions:  1444 (100.00%)
 Warning: drop high-lying PAOs                     4
 Number of occupied orbitals:    13
 Number of virtual  orbitals:   446
 Number of Cholesky vectors:     10
 MP2 energy in ED [au]:          -0.081578432507
 CPU time [min]:    11.134                   Wall time [min]:     0.321
 
 MO:     5
 Number of atoms in domain:       4
 Number of atomic orbitals:     488
 Number of atoms for local DF:    4
 Number of fitting functions:  1444 (100.00%)
 Warning: drop high-lying PAOs                     4
 Number of occupied orbitals:    13
 Number of virtual  orbitals:   446
 Number of Cholesky vectors:     10
 MP2 energy in ED [au]:          -0.081577523815
 CPU time [min]:    12.945                   Wall time [min]:     0.371
 
 MO:     6
 Number of atoms in domain:       4
 Number of atomic orbitals:     488
 Number of atoms for local DF:    4
 Number of fitting functions:  1444 (100.00%)
 Warning: drop high-lying PAOs                     4
 Number of occupied orbitals:    17
 Number of virtual  orbitals:   446
 Number of Cholesky vectors:     10
 MP2 energy in ED [au]:          -0.081597253864
 CPU time [min]:    15.029                   Wall time [min]:     0.429
 
 MO:     7
 Number of atoms in domain:       4
 Number of atomic orbitals:     488
 Number of atoms for local DF:    4
 Number of fitting functions:  1444 (100.00%)
 Warning: drop high-lying PAOs                     4
 Number of occupied orbitals:    19
 Number of virtual  orbitals:   446
 Number of Cholesky vectors:     10
 MP2 energy in ED [au]:          -0.081421831685
 CPU time [min]:    17.268                   Wall time [min]:     0.492
 
 MO:     8
 Number of atoms in domain:       4
 Number of atomic orbitals:     488
 Number of atoms for local DF:    4
 Number of fitting functions:  1444 (100.00%)
 Warning: drop high-lying PAOs                     4
 Number of occupied orbitals:    19
 Number of virtual  orbitals:   446
 Number of Cholesky vectors:     10
 MP2 energy in ED [au]:          -0.081420748429
 CPU time [min]:    19.482                   Wall time [min]:     0.553
 
 MO:     9
 Number of atoms in domain:       4
 Number of atomic orbitals:     488
 Number of atoms for local DF:    4
 Number of fitting functions:  1444 (100.00%)
 Warning: drop high-lying PAOs                     4
 Number of occupied orbitals:    16
 Number of virtual  orbitals:   446
 Number of Cholesky vectors:     10
 MP2 energy in ED [au]:          -0.081609922184
 CPU time [min]:    21.464                   Wall time [min]:     0.608
 
 MO:    10
 Number of atoms in domain:       4
 Number of atomic orbitals:     488
 Number of atoms for local DF:    4
 Number of fitting functions:  1444 (100.00%)
 Warning: drop high-lying PAOs                     4
 Number of occupied orbitals:    16
 Number of virtual  orbitals:   446
 Number of Cholesky vectors:     10
 MP2 energy in ED [au]:          -0.081610093438
 CPU time [min]:    23.444                   Wall time [min]:     0.664
 
 MO:    11
 Number of atoms in domain:       4
 Number of atomic orbitals:     488
 Number of atoms for local DF:    4
 Number of fitting functions:  1444 (100.00%)
 Warning: drop high-lying PAOs                     4
 Number of occupied orbitals:    16
 Number of virtual  orbitals:   446
 Number of Cholesky vectors:     10
 MP2 energy in ED [au]:          -0.081053990284
 CPU time [min]:    25.432                   Wall time [min]:     0.719
 
 MO:    12
 Number of atoms in domain:       4
 Number of atomic orbitals:     488
 Number of atoms for local DF:    4
 Number of fitting functions:  1444 (100.00%)
 Warning: drop high-lying PAOs                     4
 Number of occupied orbitals:    17
 Number of virtual  orbitals:   446
 Number of Cholesky vectors:     10
 MP2 energy in ED [au]:          -0.081625085942
 CPU time [min]:    27.507                   Wall time [min]:     0.777
 
 MO:    13
 Number of atoms in domain:       4
 Number of atomic orbitals:     488
 Number of atoms for local DF:    4
 Number of fitting functions:  1444 (100.00%)
 Warning: drop high-lying PAOs                     4
 Number of occupied orbitals:    24
 Number of virtual  orbitals:   446
 Number of Cholesky vectors:     10
 MP2 energy in ED [au]:          -0.081730347423
 CPU time [min]:    30.087                   Wall time [min]:     0.849
 
 MO:    14
 Number of atoms in domain:       4
 Number of atomic orbitals:     488
 Number of atoms for local DF:    4
 Number of fitting functions:  1444 (100.00%)
 Warning: drop high-lying PAOs                     4
 Number of occupied orbitals:    13
 Number of virtual  orbitals:   446
 Number of Cholesky vectors:     10
 MP2 energy in ED [au]:          -0.081612239764
 CPU time [min]:    31.895                   Wall time [min]:     0.899
 
 MO:    15
 Number of atoms in domain:       4
 Number of atomic orbitals:     488
 Number of atoms for local DF:    4
 Number of fitting functions:  1444 (100.00%)
 Warning: drop high-lying PAOs                     4
 Number of occupied orbitals:    20
 Number of virtual  orbitals:   446
 Number of Cholesky vectors:     10
 MP2 energy in ED [au]:          -0.080687791127
 CPU time [min]:    34.172                   Wall time [min]:     0.963
 
 MO:    16
 Number of atoms in domain:       4
 Number of atomic orbitals:     488
 Number of atoms for local DF:    4
 Number of fitting functions:  1444 (100.00%)
 Warning: drop high-lying PAOs                     4
 Number of occupied orbitals:    20
 Number of virtual  orbitals:   446
 Number of Cholesky vectors:     10
 MP2 energy in ED [au]:          -0.080687197065
 CPU time [min]:    36.447                   Wall time [min]:     1.026
 
 MO:    17
 Number of atoms in domain:       4
 Number of atomic orbitals:     488
 Number of atoms for local DF:    4
 Number of fitting functions:  1444 (100.00%)
 Warning: drop high-lying PAOs                     4
 Number of occupied orbitals:    26
 Number of virtual  orbitals:   446
 Number of Cholesky vectors:     10
 MP2 energy in ED [au]:          -0.173017696221
 CPU time [min]:    39.162                   Wall time [min]:     1.102
 
 MO:    18
 Number of atoms in domain:       4
 Number of atomic orbitals:     488
 Number of atoms for local DF:    4
 Number of fitting functions:  1444 (100.00%)
 Warning: drop high-lying PAOs                     4
 Number of occupied orbitals:    26
 Number of virtual  orbitals:   446
 Number of Cholesky vectors:     10
 MP2 energy in ED [au]:          -0.173014585638
 CPU time [min]:    41.888                   Wall time [min]:     1.178
 
 MO:    19
 Number of atoms in domain:       4
 Number of atomic orbitals:     488
 Number of atoms for local DF:    4
 Number of fitting functions:  1444 (100.00%)
 Warning: drop high-lying PAOs                     4
 Number of occupied orbitals:    31
 Number of virtual  orbitals:   446
 Number of Cholesky vectors:     10
 MP2 energy in ED [au]:          -0.177591653769
 CPU time [min]:    44.915                   Wall time [min]:     1.262
 
 MO:    20
 Number of atoms in domain:       4
 Number of atomic orbitals:     488
 Number of atoms for local DF:    4
 Number of fitting functions:  1444 (100.00%)
 Warning: drop high-lying PAOs                     4
 Number of occupied orbitals:    24
 Number of virtual  orbitals:   446
 Number of Cholesky vectors:     10
 MP2 energy in ED [au]:          -0.173289708964
 CPU time [min]:    47.457                   Wall time [min]:     1.333
 
 MO:    21
 Number of atoms in domain:       4
 Number of atomic orbitals:     488
 Number of atoms for local DF:    4
 Number of fitting functions:  1444 (100.00%)
 Warning: drop high-lying PAOs                     4
 Number of occupied orbitals:    18
 Number of virtual  orbitals:   446
 Number of Cholesky vectors:     10
 MP2 energy in ED [au]:          -0.173452742000
 CPU time [min]:    49.589                   Wall time [min]:     1.392
 
 MO:    22
 Number of atoms in domain:       4
 Number of atomic orbitals:     488
 Number of atoms for local DF:    4
 Number of fitting functions:  1444 (100.00%)
 Warning: drop high-lying PAOs                     4
 Number of occupied orbitals:    24
 Number of virtual  orbitals:   446
 Number of Cholesky vectors:     10
 MP2 energy in ED [au]:          -0.173291102160
 CPU time [min]:    52.134                   Wall time [min]:     1.463
 
 MO:    23
 Number of atoms in domain:       4
 Number of atomic orbitals:     488
 Number of atoms for local DF:    4
 Number of fitting functions:  1444 (100.00%)
 Warning: drop high-lying PAOs                     4
 Number of occupied orbitals:    30
 Number of virtual  orbitals:   446
 Number of Cholesky vectors:     10
 MP2 energy in ED [au]:          -0.176206686455
 CPU time [min]:    55.129                   Wall time [min]:     1.546
 
 MO:    24
 Number of atoms in domain:       4
 Number of atomic orbitals:     488
 Number of atoms for local DF:    4
 Number of fitting functions:  1444 (100.00%)
 Warning: drop high-lying PAOs                     4
 Number of occupied orbitals:    34
 Number of virtual  orbitals:   446
 Number of Cholesky vectors:     10
 MP2 energy in ED [au]:          -0.178392077721
 CPU time [min]:    58.379                   Wall time [min]:     1.637
 
 MO:    25
 Number of atoms in domain:       4
 Number of atomic orbitals:     488
 Number of atoms for local DF:    4
 Number of fitting functions:  1444 (100.00%)
 Warning: drop high-lying PAOs                     4
 Number of occupied orbitals:    30
 Number of virtual  orbitals:   446
 Number of Cholesky vectors:     10
 MP2 energy in ED [au]:          -0.176204917711
 CPU time [min]:    61.371                   Wall time [min]:     1.720
 
 MO:    26
 Number of atoms in domain:       4
 Number of atomic orbitals:     488
 Number of atoms for local DF:    4
 Number of fitting functions:  1444 (100.00%)
 Warning: drop high-lying PAOs                     4
 Number of occupied orbitals:    18
 Number of virtual  orbitals:   446
 Number of Cholesky vectors:     10
 MP2 energy in ED [au]:          -0.173456215664
 CPU time [min]:    63.520                   Wall time [min]:     1.780
 
 MO:    27
 Number of atoms in domain:       4
 Number of atomic orbitals:     488
 Number of atoms for local DF:    4
 Number of fitting functions:  1444 (100.00%)
 Warning: drop high-lying PAOs                     4
 Number of occupied orbitals:    26
 Number of virtual  orbitals:   446
 Number of Cholesky vectors:     10
 MP2 energy in ED [au]:          -0.176464557113
 CPU time [min]:    66.214                   Wall time [min]:     1.855
 
 MO:    28
 Number of atoms in domain:       4
 Number of atomic orbitals:     488
 Number of atoms for local DF:    4
 Number of fitting functions:  1444 (100.00%)
 Warning: drop high-lying PAOs                     4
 Number of occupied orbitals:    28
 Number of virtual  orbitals:   446
 Number of Cholesky vectors:     10
 MP2 energy in ED [au]:          -0.174356309579
 CPU time [min]:    69.048                   Wall time [min]:     1.934
 
 MO:    29
 Number of atoms in domain:       4
 Number of atomic orbitals:     488
 Number of atoms for local DF:    4
 Number of fitting functions:  1444 (100.00%)
 Warning: drop high-lying PAOs                     4
 Number of occupied orbitals:    30
 Number of virtual  orbitals:   446
 Number of Cholesky vectors:     10
 MP2 energy in ED [au]:          -0.177139287256
 CPU time [min]:    72.015                   Wall time [min]:     2.017
 
 MO:    30
 Number of atoms in domain:       4
 Number of atomic orbitals:     488
 Number of atoms for local DF:    4
 Number of fitting functions:  1444 (100.00%)
 Warning: drop high-lying PAOs                     4
 Number of occupied orbitals:    28
 Number of virtual  orbitals:   446
 Number of Cholesky vectors:     10
 MP2 energy in ED [au]:          -0.174356485086
 CPU time [min]:    74.830                   Wall time [min]:     2.095
 
 MO:    31
 Number of atoms in domain:       4
 Number of atomic orbitals:     488
 Number of atoms for local DF:    4
 Number of fitting functions:  1444 (100.00%)
 Warning: drop high-lying PAOs                     4
 Number of occupied orbitals:    34
 Number of virtual  orbitals:   446
 Number of Cholesky vectors:     10
 MP2 energy in ED [au]:          -0.177554539394
 CPU time [min]:    78.081                   Wall time [min]:     2.186
 
 MO:    32
 Number of atoms in domain:       4
 Number of atomic orbitals:     488
 Number of atoms for local DF:    4
 Number of fitting functions:  1444 (100.00%)
 Warning: drop high-lying PAOs                     4
 Number of occupied orbitals:    34
 Number of virtual  orbitals:   446
 Number of Cholesky vectors:     10
 MP2 energy in ED [au]:          -0.177550779233
 CPU time [min]:    81.308                   Wall time [min]:     2.276
 
 MO:    33
 Number of atoms in domain:       4
 Number of atomic orbitals:     488
 Number of atoms for local DF:    4
 Number of fitting functions:  1444 (100.00%)
 Warning: drop high-lying PAOs                     4
 Number of occupied orbitals:    28
 Number of virtual  orbitals:   446
 Number of Cholesky vectors:     10
 MP2 energy in ED [au]:          -0.177301624163
 CPU time [min]:    84.134                   Wall time [min]:     2.355
 
 MO:    34
 Number of atoms in domain:       4
 Number of atomic orbitals:     488
 Number of atoms for local DF:    4
 Number of fitting functions:  1444 (100.00%)
 Warning: drop high-lying PAOs                     4
 Number of occupied orbitals:    31
 Number of virtual  orbitals:   446
 Number of Cholesky vectors:     10
 MP2 energy in ED [au]:          -0.177587949303
 CPU time [min]:    87.161                   Wall time [min]:     2.439
 
 MO:    35
 Number of atoms in domain:       4
 Number of atomic orbitals:     488
 Number of atoms for local DF:    4
 Number of fitting functions:  1444 (100.00%)
 Warning: drop high-lying PAOs                     4
 Number of occupied orbitals:    36
 Number of virtual  orbitals:   446
 Number of Cholesky vectors:     10
 MP2 energy in ED [au]:          -0.184651845095
 CPU time [min]:    90.525                   Wall time [min]:     2.533
 
 MO:    36
 Number of atoms in domain:       4
 Number of atomic orbitals:     488
 Number of atoms for local DF:    4
 Number of fitting functions:  1444 (100.00%)
 Warning: drop high-lying PAOs                     4
 Number of occupied orbitals:    36
 Number of virtual  orbitals:   446
 Number of Cholesky vectors:     10
 MP2 energy in ED [au]:          -0.184655984468
 CPU time [min]:    93.871                   Wall time [min]:     2.626
 
 MO:    37
 Number of atoms in domain:       4
 Number of atomic orbitals:     488
 Number of atoms for local DF:    4
 Number of fitting functions:  1444 (100.00%)
 Warning: drop high-lying PAOs                     4
 Number of occupied orbitals:    38
 Number of virtual  orbitals:   446
 Number of Cholesky vectors:     10
 MP2 energy in ED [au]:          -0.094839569444
 CPU time [min]:    97.365                   Wall time [min]:     2.723
 
 MO:    38
 Number of atoms in domain:       4
 Number of atomic orbitals:     488
 Number of atoms for local DF:    4
 Number of fitting functions:  1444 (100.00%)
 Warning: drop high-lying PAOs                     4
 Number of occupied orbitals:    35
 Number of virtual  orbitals:   446
 Number of Cholesky vectors:     10
 MP2 energy in ED [au]:          -0.102301986724
 CPU time [min]:   100.647                   Wall time [min]:     2.815
 
 **********************************************************************
 Dimensions of the extended domains:    Minimum / Average / Maximum
 
 Number of atoms in domain:                   4       4.0         4
 Number of atomic orbitals:                 488     488.0       488
 Number of fitting functions:              1444    1444.0      1444
 Number of occupied localized MOs:           13      24.1        38
 Number of PAOs:                            446     446.0       446
 
 **********************************************************************
 Final local correlation results
 
 Sum of pair energies [au]:                    -0.000588669241    (0.012%)
 Sum of energy corrections [au]:                0.000000000000    (0.000%)
 Sum of LMO contributions [au]:                -5.029430359815
 
 Reference energy [au]:                      -787.682214307491
 MP2 contribution [au]:                        -1.358105137845
 B2PLYP energy [au]:                         -789.040319445336
 
 **********************************************************************
  Time of manipulations in the EDs:      max CPU/Wall [s]  all CPU/Wall [min]
 
 PD construction & multipole pair E     174.31     5.13     2.91     0.09
 Construct MO basis of the ED             4.79     0.14     1.78     0.05
 (mu,nu|P) evaluation & trf 2 (ai|P)    180.13     5.02    84.22     2.35
 Evaluate MP2 energy of the ED           20.41     0.57     8.30     0.23
 Total of the above for all EDs         205.33     5.72    94.30     2.63
 
 **********************************************************************
 Maximum memory requirement [MB]:       
 
 PD construction & multipole pair E         19.9
 AO integral evaluation in the EDs        6191.0
 (mu,nu|P) evaluation & trf 2 (aI|P)      6814.8
 Evaluate MP2 energy in the EDs            331.9
 
 ************************ 2023-02-15 05:15:00 *************************
                      Normal termination of mrcc.
 **********************************************************************
