 vasp.6.3.0 20Jan22 (build Apr  1 2022 16:44:48) complex                         
 executed on        HPECrayEX_GCC date 2023.01.10  03:35:45
 running  512 mpi-ranks, with    1 threads/rank
 distrk:  each k-point on  256 cores,    2 groups
 distr:  one band on NCORE=   4 cores,   64 groups


--------------------------------------------------------------------------------------------------------


 INCAR:
   SYSTEM = MgO-rocksalt
   ISMEAR = 0
   SIGMA = 0.05
   EDIFF = 1E-6
   ALGO = ALL
   ISTART = 0
   IBRION = -1
   NSW = 0
   ISYM = 2
   LHFCALC = .TRUE.
   GGA = B5
   AEXX = 0.2
   AGGAX = 0.72
   AGGAC = 0.81
   ALDAC = 0.19
   ENCUT = 520
   PREC = Accurate
   LASPH = .TRUE.
   LREAL = Auto
   ISPIN = 1
   NELM = 200
   NELMIN = 8
   NCORE = 4
   KPAR = 2
   LWAVE = .FALSE.
   LCHARG = .FALSE.

 POTCAR:    PAW_PBE Au 04Oct2007                  
 -----------------------------------------------------------------------------
|                                                                             |
|           W    W    AA    RRRRR   N    N  II  N    N   GGGG   !!!           |
|           W    W   A  A   R    R  NN   N  II  NN   N  G    G  !!!           |
|           W    W  A    A  R    R  N N  N  II  N N  N  G       !!!           |
|           W WW W  AAAAAA  RRRRR   N  N N  II  N  N N  G  GGG   !            |
|           WW  WW  A    A  R   R   N   NN  II  N   NN  G    G                |
|           W    W  A    A  R    R  N    N  II  N    N   GGGG   !!!           |
|                                                                             |
|     You have selected ISYM=2 for a HF type calculation. This will           |
|     symmetrize the charge density but not the exchange potential. I         |
|     suggest to use ISYM=3 instead. This uses symmetry to obtain the         |
|     orbitals at all k-points in the Brillouin zone, but does not apply      |
|     symmetry to the Hartree potential directly. The resultant charge        |
|     might have lower symmetry than the crystal but, at least, Hartree       |
|     and exchange are fully compatible.                                      |
|                                                                             |
 -----------------------------------------------------------------------------

 POTCAR:    PAW_PBE Au 04Oct2007                  
   SHA256 =  d0044ae04e2bdce24051b198fc5c053d722a5bc6fe3c3b100514a13fc5d2db88 Au/POTCAR             
   COPYR  = (c) Copyright 04Oct2007 Georg Kresse                                                    
   COPYR  = This file is part of the software VASP. Any use, copying, and all other rights are regul
   COPYR  = If you do not have a valid VASP license, you may not use, copy or distribute this file. 
   VRHFIN =Au: s1d10                                                                                
   LEXCH  = PE                                                                                      
   EATOM  =   926.0867 eV,   68.0654 Ry                                                             
                                                                                                    
   TITEL  = PAW_PBE Au 04Oct2007                                                                    
   LULTRA =        F    use ultrasoft PP ?                                                          
   IUNSCR =        1    unscreen: 0-lin 1-nonlin 2-no                                               
   RPACOR =    2.330    partial core radius                                                         
   POMASS =  196.966; ZVAL   =   11.000    mass and valenz                                          
   RCORE  =    2.500    outmost cutoff radius                                                       
   RWIGS  =    2.840; RWIGS  =    1.503    wigner-seitz radius (au A)                               
   ENMAX  =  229.943; ENMIN  =  172.457 eV                                                          
   ICORE  =        3    local potential                                                             
   LCOR   =        T    correct aug charges                                                         
   LPAW   =        T    paw PP                                                                      
   EAUG   =  356.670                                                                                
   DEXC   =    0.000                                                                                
   RMAX   =    2.562    core radius for proj-oper                                                   
   RAUG   =    1.300    factor for augmentation sphere                                              
   RDEP   =    2.598    radius for radial grids                                                     
   RDEPT  =    2.193    core radius for aug-charge                                                  
                                                                                                    
   Atomic configuration                                                                             
   16 entries                                                                                       
     n  l   j            E        occ.                                                              
     1  0  0.50    -80748.5001   2.0000                                                             
     2  0  0.50    -14244.7466   2.0000                                                             
     2  1  1.50    -12310.9591   6.0000                                                             
     3  0  0.50     -3362.1768   2.0000                                                             
     3  1  1.50     -2801.5463   6.0000                                                             
     3  2  2.50     -2203.8206  10.0000                                                             
     4  0  0.50      -729.8168   2.0000                                                             
     4  1  1.50      -546.0527   6.0000                                                             
     4  2  2.50      -325.7302  10.0000                                                             
     4  3  3.50       -81.1472  14.0000                                                             
     5  0  0.50      -108.3201   2.0000                                                             
     5  1  1.50       -59.7479   6.0000                                                             
     5  2  2.50        -6.8783  10.0000                                                             
     6  0  0.50        -5.7602   1.0000                                                             
     6  1  1.50        -6.8029   0.0000                                                             
     5  3  2.50        -1.3606   0.0000                                                             
   Description                                                                                      
     l       E           TYP  RCUT    TYP  RCUT                                                     
     2     -6.8782861     23  2.500                                                                 
     2     -8.2388687     23  2.500                                                                 
     0     -5.7601759     23  2.500                                                                 
     0     -0.8493231     23  2.500                                                                 
     1     -2.7211652     23  2.500                                                                 
     1     27.2116520     23  2.500                                                                 
     3     -1.3605826     23  2.500                                                                 
  local pseudopotential read in
  partial core-charges read in
  partial kinetic energy density read in
  atomic valenz-charges read in
  non local Contribution for L=           2  read in
    real space projection operators read in
  non local Contribution for L=           2  read in
    real space projection operators read in
  non local Contribution for L=           0  read in
    real space projection operators read in
  non local Contribution for L=           0  read in
    real space projection operators read in
  non local Contribution for L=           1  read in
    real space projection operators read in
  non local Contribution for L=           1  read in
    real space projection operators read in
    PAW grid and wavefunctions read in

   number of l-projection  operators is LMAX  =           6
   number of lm-projection operators is LMMAX =          18

 -----------------------------------------------------------------------------
|                                                                             |
|               ----> ADVICE to this user running VASP <----                  |
|                                                                             |
|     You have a (more or less) 'small supercell' and for smaller cells       |
|     it is recommended to use the reciprocal-space projection scheme!        |
|     The real-space optimization is not efficient for small cells and it     |
|     is also less accurate ...                                               |
|     Therefore, set LREAL=.FALSE. in the INCAR file.                         |
|                                                                             |
 -----------------------------------------------------------------------------

 Optimization of the real space projectors (new method)

 maximal supplied QI-value         = 15.12
 optimisation between [QCUT,QGAM] = [ 11.64, 23.28] = [ 37.95,151.78] Ry 
 Optimized for a Real-space Cutoff    1.49 Angstroem

   l    n(q)    QCUT    max X(q) W(low)/X(q) W(high)/X(q)  e(spline) 
   2      9    11.641    60.898    0.24E-03    0.10E-03    0.19E-06
   2      9    11.641    58.894    0.25E-03    0.10E-03    0.19E-06
   0     10    11.641   109.617    0.73E-04    0.33E-04    0.11E-06
   0     10    11.641    75.026    0.71E-04    0.32E-04    0.11E-06
   1     10    11.641    16.344    0.27E-04    0.97E-04    0.16E-06
   1     10    11.641    10.160    0.23E-04    0.77E-04    0.13E-06
 -----------------------------------------------------------------------------
|                                                                             |
|               ----> ADVICE to this user running VASP <----                  |
|                                                                             |
|     You enforced a specific xc type in the INCAR file but a different       |
|     type was found in the POTCAR file.                                      |
|     I HOPE YOU KNOW WHAT YOU ARE DOING!                                     |
|                                                                             |
 -----------------------------------------------------------------------------

  PAW_PBE Au 04Oct2007                  :
 energy of atom  1       EATOM= -926.0867
 kinetic energy error for atom=    0.0034 (will be added to EATOM!!)


 POSCAR: Au Mg  O
  positions in direct lattice
  No initial velocities read in
 exchange correlation table for  LEXCH =       12
   RHO(1)=    0.500       N(1)  =     2000
   RHO(2)=  100.500       N(2)  =     4000



--------------------------------------------------------------------------------------------------------


 ion  position               nearest neighbor table
   1  0.400  0.565  0.604-   3 2.61   4 2.77
   2  0.400  0.500  0.818-   3 2.52
   3  0.400  0.500  0.704-   2 2.52   4 2.61   1 2.61
   4  0.400  0.434  0.604-   3 2.61   1 2.77

  LATTYP: Found a simple tetragonal cell.
 ALAT       =    21.1388521970
 C/A-ratio  =     1.0461251639
  
  Lattice vectors:
  
 A1 = (  21.1388521970,   0.0000000000,   0.0000000000)
 A2 = (   0.0000000000,  21.1388521970,   0.0000000000)
 A3 = (   0.0000000000,   0.0000000000,  22.1138852197)


Analysis of symmetry for initial positions (statically):
=====================================================================
 Subroutine PRICEL returns:
 Original cell was already a primitive cell.
 

 Routine SETGRP: Setting up the symmetry group for a 
 simple tetragonal supercell.


 Subroutine GETGRP returns: Found  1 space group operations
 (whereof  1 operations were pure point group operations)
 out of a pool of 16 trial point group operations.


The static configuration has the point symmetry C_1 .


Analysis of symmetry for dynamics (positions and initial velocities):
=====================================================================
 Subroutine PRICEL returns:
 Original cell was already a primitive cell.
 

 Routine SETGRP: Setting up the symmetry group for a 
 simple tetragonal supercell.


 Subroutine GETGRP returns: Found  1 space group operations
 (whereof  1 operations were pure point group operations)
 out of a pool of 16 trial point group operations.


The dynamic configuration has the point symmetry C_1 .


Analysis of constrained symmetry for selective dynamics:
=====================================================================
 Subroutine PRICEL returns:
 Original cell was already a primitive cell.
 

 Routine SETGRP: Setting up the symmetry group for a 
 simple tetragonal supercell.


 Subroutine GETGRP returns: Found  1 space group operations
 (whereof  1 operations were pure point group operations)
 out of a pool of 16 trial point group operations.


The constrained configuration has the point symmetry C_1 .


 Subroutine INISYM returns: Found  1 space group operations
 (whereof  1 operations are pure point group operations),
 and found     1 'primitive' translations


----------------------------------------------------------------------------------------

                                     Primitive cell                                     

  volume of cell :    9881.6133

  direct lattice vectors                    reciprocal lattice vectors
    21.138852197  0.000000000  0.000000000     0.047306258  0.000000000  0.000000000
     0.000000000 21.138852197  0.000000000     0.000000000  0.047306258  0.000000000
     0.000000000  0.000000000 22.113885220     0.000000000  0.000000000  0.045220457

  length of vectors
    21.138852197 21.138852197 22.113885220     0.047306258  0.047306258  0.045220457

  position of ions in fractional coordinates (direct lattice)
     0.399945942  0.565237308  0.603921872
     0.399892951  0.499663424  0.818041467
     0.399895844  0.499593335  0.703963759
     0.399926654  0.434204818  0.603783199

  ion indices of the primitive-cell ions
   primitive index   ion index
                 1           1
                 2           2
                 3           3
                 4           4

----------------------------------------------------------------------------------------



 KPOINTS: KPOINTS created by Atomic Simulation Env

Automatic generation of k-mesh.
 Grid dimensions read from file:
 generate k-points for:    1    1    1

 Generating k-lattice:

  Cartesian coordinates                     Fractional coordinates (reciprocal lattice)
     0.047306258  0.000000000  0.000000000     1.000000000  0.000000000  0.000000000
     0.000000000  0.047306258  0.000000000     0.000000000  1.000000000  0.000000000
     0.000000000  0.000000000  0.045220457     0.000000000  0.000000000  1.000000000

  Length of vectors
     0.047306258  0.047306258  0.045220457

  Shift w.r.t. Gamma in fractional coordinates (k-lattice)
     0.000000000  0.000000000  0.000000000

 
 Subroutine IBZKPT returns following result:
 ===========================================
 
 Found      1 irreducible k-points:
 
 Following reciprocal coordinates:
            Coordinates               Weight
  0.000000  0.000000  0.000000      1.000000
 
 Following cartesian coordinates:
            Coordinates               Weight
  0.000000  0.000000  0.000000      1.000000
 
 
 Subroutine IBZKPT_HF returns following result:
 ==============================================
 
 Found      1 k-points in 1st BZ
 the following      1 k-points will be used (e.g. in the exchange kernel)
 Following reciprocal coordinates:   # in IRBZ
  0.000000  0.000000  0.000000    1.00000000   1 t-inv F


--------------------------------------------------------------------------------------------------------




 Dimension of arrays:
   k-points           NKPTS =      1   k-points in BZ     NKDIM =      1   number of bands    NBANDS=     64
   number of dos      NEDOS =    301   number of ions     NIONS =      4
   non local maximal  LDIM  =      6   non local SUM 2l+1 LMDIM =     18
   total plane-waves  NPLWV = ******
   max r-space proj   IRMAX =   6070   max aug-charges    IRDMAX=  26812
   dimension x,y,z NGX =   160 NGY =  160 NGZ =  168
   dimension x,y,z NGXF=   320 NGYF=  320 NGZF=  336
   support grid    NGXF=   320 NGYF=  320 NGZF=  336
   ions per type =               4
   NGX,Y,Z   is equivalent  to a cutoff of  12.58, 12.58, 12.63 a.u.
   NGXF,Y,Z  is equivalent  to a cutoff of  25.17, 25.17, 25.26 a.u.

 SYSTEM =  MgO-rocksalt                            
 POSCAR =  Au Mg  O                                

 Startparameter for this run:
   NWRITE =      2    write-flag & timer
   PREC   = accura    normal or accurate (medium, high low for compatibility)
   ISTART =      0    job   : 0-new  1-cont  2-samecut
   ICHARG =      2    charge: 1-file 2-atom 10-const
   ISPIN  =      1    spin polarized calculation?
   LNONCOLLINEAR =      F non collinear calculations
   LSORBIT =      F    spin-orbit coupling
   INIWAV =      1    electr: 0-lowe 1-rand  2-diag
   LASPH  =      T    aspherical Exc in radial PAW
 Electronic Relaxation 1
   ENCUT  =  520.0 eV  38.22 Ry    6.18 a.u.  39.30 39.30 41.12*2*pi/ulx,y,z
   ENINI  =  520.0     initial cutoff
   ENAUG  =  356.7 eV  augmentation charge cutoff
   NELM   =    200;   NELMIN=  8; NELMDL= -5     # of ELM steps 
   EDIFF  = 0.1E-05   stopping-criterion for ELM
   LREAL  =      T    real-space projection
   NLSPLINE    = F    spline interpolate recip. space projectors
   LCOMPAT=      F    compatible to vasp.4.4
   GGA_COMPAT  = T    GGA compatible to vasp.4.4-vasp.4.6
   LMAXPAW     = -100 max onsite density
   LMAXMIX     =    2 max onsite mixed and CHGCAR
   VOSKOWN=      0    Vosko Wilk Nusair interpolation
   ROPT   =   -0.00025
 Ionic relaxation
   EDIFFG = 0.1E-04   stopping-criterion for IOM
   NSW    =      0    number of steps for IOM
   NBLOCK =      1;   KBLOCK =      1    inner block; outer block 
   IBRION =     -1    ionic relax: 0-MD 1-quasi-New 2-CG
   NFREE  =      0    steps in history (QN), initial steepest desc. (CG)
   ISIF   =      0    stress and relaxation
   IWAVPR =     10    prediction:  0-non 1-charg 2-wave 3-comb
   ISYM   =      2    0-nonsym 1-usesym 2-fastsym
   LCORR  =      T    Harris-Foulkes like correction to forces

   POTIM  = 0.5000    time-step for ionic-motion
   TEIN   =    0.0    initial temperature
   TEBEG  =    0.0;   TEEND  =   0.0 temperature during run
   SMASS  =  -3.00    Nose mass-parameter (am)
   estimated Nose-frequenzy (Omega)   =  0.10E-29 period in steps = 0.13E+47 mass=  -0.102E-25a.u.
   SCALEE = 1.0000    scale energy and forces
   NPACO  =    256;   APACO  = 10.0  distance and # of slots for P.C.
   PSTRESS=    0.0 pullay stress

  Mass of Ions in am
   POMASS = 196.97
  Ionic Valenz
   ZVAL   =  11.00
  Atomic Wigner-Seitz radii
   RWIGS  =  -1.00
  virtual crystal weights 
   VCA    =   1.00
   NELECT =      44.0000    total number of electrons
   NUPDOWN=      -1.0000    fix difference up-down

 DOS related values:
   EMIN   =  10.00;   EMAX   =-10.00  energy-range for DOS
   EFERMI =   0.00
   ISMEAR =     0;   SIGMA  =   0.05  broadening in eV -4-tet -1-fermi 0-gaus

 Electronic relaxation 2 (details)
   IALGO  =     58    algorithm
   LDIAG  =      T    sub-space diagonalisation (order eigenvalues)
   LSUBROT=      F    optimize rotation matrix (better conditioning)
   TURBO    =      0    0=normal 1=particle mesh
   IRESTART =      0    0=no restart 2=restart with 2 vectors
   NREBOOT  =      0    no. of reboots
   NMIN     =      0    reboot dimension
   EREF     =   0.00    reference energy to select bands
   IMIX   =      4    mixing-type and parameters
     AMIX     =   0.40;   BMIX     =  1.00
     AMIX_MAG =   1.60;   BMIX_MAG =  1.00
     AMIN     =   0.10
     WC   =   100.;   INIMIX=   1;  MIXPRE=   1;  MAXMIX= -45

 Intra band minimization:
   WEIMIN = 0.0000     energy-eigenvalue tresh-hold
   EBREAK =  0.39E-08  absolut break condition
   DEPER  =   0.30     relativ break condition  

   TIME   =   0.40     timestep for ELM

  volume/ion in A,a.u.               =    2470.40     16671.10
  Fermi-wavevector in a.u.,A,eV,Ry     =   0.269329  0.508958  0.986941  0.072538
  Thomas-Fermi vector in A             =   1.106612

 Write flags
   LWAVE        =      F    write WAVECAR
   LDOWNSAMPLE  =      F    k-point downsampling of WAVECAR
   LCHARG       =      F    write CHGCAR
   LVTOT        =      F    write LOCPOT, total local potential
   LVHAR        =      F    write LOCPOT, Hartree potential only
   LELF         =      F    write electronic localiz. function (ELF)
   LORBIT       =      0    0 simple, 1 ext, 2 COOP (PROOUT), +10 PAW based schemes


 Dipole corrections
   LMONO  =      F    monopole corrections only (constant potential shift)
   LDIPOL =      F    correct potential (dipole corrections)
   IDIPOL =      0    1-x, 2-y, 3-z, 4-all directions 
   EPSILON=  1.0000000 bulk dielectric constant

 Exchange correlation treatment:
   GGA     =    B5    GGA type
   LEXCH   =    12    internal setting for exchange type
   LIBXC   =     F    Libxc                    
   VOSKOWN =     0    Vosko Wilk Nusair interpolation
   EXXOEP  =     0    0=HF, 1=EXX-LHF (local Hartree Fock) 2=EXX OEP
   LHFCALC =     T    Hartree Fock is set to
   LSYMGRAD=     F    symmetrize gradient (conserves proper symmetry)
   PRECFOCK=normal    Normal, Fast or Accurate (Low or Medium for compatibility)
   LRHFCALC=     F    long range Hartree Fock
   LRSCOR  =     F    long range correlation only (use DFT for short range part)
   LTHOMAS =     F    Thomas Fermi screening in HF
   LMODELHF=     F    short range full HF, long range fraction AEXX
   LFOCKACE=     T    use Adeptively-Compressed-Exchange operator
   ENCUT4O =  -1.0   cutoff for four orbital integrals eV
   LMAXFOCK=     4    L truncation for augmentation on plane wave grid
   LMAXFOCKAE=  -1    L truncation for all-electron charge restoration on plane wave grid
   NMAXFOCKAE=   1    number of basis functions for all-electron charge restoration
   LFOCKAEDFT=     F  apply the AE augmentation even for DFT
   NKREDX  =     1    reduce k-point grid by
   NKREDY  =     1    reduce k-point grid by
   NKREDZ  =     1    reduce k-point grid by
   SHIFTRED=     F    shift reduced grid of Gamma
   HFKIDENT=     F    idential grid for each k-point
   ODDONLY =     F    use only odd q-grid points
   EVENONLY=     F    use only even q-grid points
   HFALPHA =   -1.0000 decay constant for conv. correction
   MCALPHA =    0.0000 extent of test-charge in conv. correction in multipole expansion
   AEXX    =    0.2000 exact exchange contribution
   HFSCREEN=    0.0000 screening length (either q_TF or 0.3 A-1)
   HFSCREENC=   0.0000 screening length for correlation (either q_TF or 0.3 A-1)
   HFRCUT  =    0.0000 spherical cutoff for potential kernel
   ALDAX   =    0.8000 LDA exchange part
   AGGAX   =    0.7200 GGA exchange part
   ALDAC   =    0.1900 LDA correlation
   AGGAC   =    0.8100 GGA correlation
   ENCUTFOCK=  -1.0 apply spherical cutoff to Coloumb kernel
   NBANDSGWLOW=     1    first orbital included in HF term
   NBLOCK_FOCK=    64    blocking factor in FOCK_ACC

 Linear response parameters
   LEPSILON=     F    determine dielectric tensor
   LRPA    =     F    only Hartree local field effects (RPA)
   LNABLA  =     F    use nabla operator in PAW spheres
   LVEL    =     F    velocity operator in full k-point grid
   CSHIFT  =0.1000    complex shift for real part using Kramers Kronig
   OMEGAMAX=  -1.0    maximum frequency
   DEG_THRESHOLD= 0.2000000E-02 threshold for treating states as degnerate
   RTIME   =   -0.100 relaxation time in fs
  (WPLASMAI=    0.000 imaginary part of plasma frequency in eV, 0.658/RTIME)
   DFIELD  = 0.0000000 0.0000000 0.0000000 field for delta impulse in time

  Optional k-point grid parameters
   LKPOINTS_OPT  =     F    use optional k-point grid
   KPOINTS_OPT_MODE=     1    mode for optional k-point grid

 Orbital magnetization related:
   ORBITALMAG=     F  switch on orbital magnetization
   LCHIMAG   =     F  perturbation theory with respect to B field
   DQ        =  0.001000  dq finite difference perturbation B field
   LLRAUG    =     F  two centre corrections for induced B field



--------------------------------------------------------------------------------------------------------


 Static calculation
 charge density and potential will be updated during run
 non-spin polarized calculation
 Conjugate gradient for all bands (Freysoldt, et al. PRB 79, 241103 (2009))
 preconditioned conjugated gradient                                        
 perform sub-space diagonalisation
    before iterative eigenvector-optimisation
 modified Broyden-mixing scheme, WC =      100.0
 initial mixing is a Kerker type mixing with AMIX =  0.4000 and BMIX =      1.0000
 Hartree-type preconditioning will be used
 using additional bands           42
 real space projection scheme for non local part
 use partial core corrections
 no Harris-corrections to forces 
 use gradient corrections 
 use of overlap-Matrix (Vanderbilt PP)
 Gauss-broadening in eV      SIGMA  =   0.05


--------------------------------------------------------------------------------------------------------


  energy-cutoff  :      520.00
  volume of cell :     9881.61
      direct lattice vectors                 reciprocal lattice vectors
    21.138852197  0.000000000  0.000000000     0.047306258  0.000000000  0.000000000
     0.000000000 21.138852197  0.000000000     0.000000000  0.047306258  0.000000000
     0.000000000  0.000000000 22.113885220     0.000000000  0.000000000  0.045220457

  length of vectors
    21.138852197 21.138852197 22.113885220     0.047306258  0.047306258  0.045220457



 k-points in units of 2pi/SCALE and weight: KPOINTS created by Atomic Simulation Env
   0.00000000  0.00000000  0.00000000       1.000

 k-points in reciprocal lattice and weights: KPOINTS created by Atomic Simulation Env
   0.00000000  0.00000000  0.00000000       1.000

 position of ions in fractional coordinates (direct lattice) 
   0.39994594  0.56523731  0.60392187
   0.39989295  0.49966342  0.81804147
   0.39989584  0.49959334  0.70396376
   0.39992665  0.43420482  0.60378320

 position of ions in cartesian coordinates  (Angst):
   8.45439815 11.94846791 13.35505895
   8.45327798 10.56231128 18.09007510
   8.45333913 10.56082967 15.56737376
   8.45399044  9.17859146 13.35199236



--------------------------------------------------------------------------------------------------------


 k-point   1 :   0.0000 0.0000 0.0000  plane waves:  265979

 maximum and minimum number of plane-waves per node :     66495    66494

 maximum number of plane-waves:    265979
 maximum index in each direction: 
   IXMAX=   39   IYMAX=   39   IZMAX=   41
   IXMIN=  -39   IYMIN=  -39   IZMIN=  -41


 real space projection operators:
  total allocation   :       3287.25 KBytes
  max/ min on nodes  :        827.72        816.05


 parallel 3D FFT for wavefunctions:
    minimum data exchange during FFTs selected (reduces bandwidth)
 parallel 3D FFT for charge:
    minimum data exchange during FFTs selected (reduces bandwidth)


 FFT grid for exact exchange (Hartree Fock) 
  NGX =120; NGY =120; NGZ =126


 Radii for the augmentation spheres in the non-local exchange
 for species   1 augmentation radius   1.512 (default was   1.210)
       energy cutoff for augmentation   2080.0

 real space projection operators:
  total allocation   :       2076.95 KBytes
  max/ min on nodes  :        531.45        514.84

 Maximum index for augmentation-charges in exchange          661
  SETUP_FOCK is finished

 total amount of memory used by VASP MPI-rank0   154016. kBytes
=======================================================================

   base      :      30000. kBytes
   nonlr-proj:       2234. kBytes
   fftplans  :      65038. kBytes
   grid      :      53473. kBytes
   one-center:         15. kBytes
   HF        :         64. kBytes
   wavefun   :       3192. kBytes

     INWAV:  cpu time      0.0001: real time      0.0003
 Broyden mixing: mesh for mixing (old mesh)
   NGX = 79   NGY = 79   NGZ = 83
  (NGX  =320   NGY  =320   NGZ  =336)
  gives a total of 518003 points

 initial charge density was supplied:
 charge density of overlapping atoms calculated
 number of electron      44.0000000 magnetization 
 keeping initial charge density in first step


--------------------------------------------------------------------------------------------------------


 Maximum index for non-local projection operator         1466
 Maximum index for augmentation-charges            0 (set IRDMAX)


--------------------------------------------------------------------------------------------------------


    FEWALD:  cpu time      0.0013: real time      0.0013


--------------------------------------- Iteration      1(   1)  ---------------------------------------


    POTLOK:  cpu time      0.1873: real time      0.1875
    SETDIJ:  cpu time      0.1785: real time      0.1786
    TRIAL :  cpu time      0.4570: real time      0.4573
    CORREC:  cpu time      0.0009: real time      0.0009
    --------------------------------------------
      LOOP:  cpu time      0.8259: real time      0.8264

 eigenvalue-minimisations  :   128
 total energy-change (2. order) :-0.1060123E+05  (-0.7405887E+03)
 number of electron      44.0000000 magnetization 
 augmentation part       44.0000000 magnetization 

 Free energy of the ion-electron system (eV)
  ---------------------------------------------------
  alpha Z        PSCENC =         1.88600142
  Ewald energy   TEWEN  =      1545.12635124
  -Hartree energ DENC   =     -5091.32364226
  -exchange      EXHF   =         0.00000000
  -V(xc)+E(xc)   XCENC  =        56.95811354
  PAW double counting   =      3496.39001341   -14305.00768493
  entropy T*S    EENTRO =        -0.05800713
  eigenvalues    EBANDS =        -0.56785683
  atomic energy  EATOM  =      3695.36854794
  ---------------------------------------------------
  free energy    TOTEN  =    -10601.22816360 eV

  energy without entropy =   -10601.17015647  energy(sigma->0) =   -10601.19916004
  exchange ACFDT corr.  =         0.00000000  see jH, gK, PRB 81, 115126


--------------------------------------------------------------------------------------------------------




--------------------------------------- Iteration      1(   2)  ---------------------------------------


    TRIAL :  cpu time      1.1006: real time      1.1007
    CORREC:  cpu time      0.0003: real time      0.0003
    --------------------------------------------
      LOOP:  cpu time      1.1073: real time      1.1077

 eigenvalue-minimisations  :   256
 total energy-change (2. order) :-0.3668868E+03  (-0.3665249E+03)
 number of electron      44.0000000 magnetization 
 augmentation part       44.0000000 magnetization 

 Free energy of the ion-electron system (eV)
  ---------------------------------------------------
  alpha Z        PSCENC =         1.88600142
  Ewald energy   TEWEN  =      1545.12635124
  -Hartree energ DENC   =     -5091.32364226
  -exchange      EXHF   =         0.00000000
  -V(xc)+E(xc)   XCENC  =        56.95811354
  PAW double counting   =      3496.39001341   -14305.00768493
  entropy T*S    EENTRO =        -0.00000000
  eigenvalues    EBANDS =      -367.51269175
  atomic energy  EATOM  =      3695.36854794
  ---------------------------------------------------
  free energy    TOTEN  =    -10968.11499140 eV

  energy without entropy =   -10968.11499140  energy(sigma->0) =   -10968.11499140
  exchange ACFDT corr.  =         0.00000000  see jH, gK, PRB 81, 115126


--------------------------------------------------------------------------------------------------------




--------------------------------------- Iteration      1(   3)  ---------------------------------------


    TRIAL :  cpu time      0.4568: real time      0.4568
    CORREC:  cpu time      0.0003: real time      0.0003
    --------------------------------------------
      LOOP:  cpu time      0.4633: real time      0.4636

 eigenvalue-minimisations  :   128
 total energy-change (2. order) :-0.5152111E+02  (-0.5152080E+02)
 number of electron      44.0000000 magnetization 
 augmentation part       44.0000000 magnetization 

 Free energy of the ion-electron system (eV)
  ---------------------------------------------------
  alpha Z        PSCENC =         1.88600142
  Ewald energy   TEWEN  =      1545.12635124
  -Hartree energ DENC   =     -5091.32364226
  -exchange      EXHF   =         0.00000000
  -V(xc)+E(xc)   XCENC  =        56.95811354
  PAW double counting   =      3496.39001341   -14305.00768493
  entropy T*S    EENTRO =        -0.00000000
  eigenvalues    EBANDS =      -419.03380230
  atomic energy  EATOM  =      3695.36854794
  ---------------------------------------------------
  free energy    TOTEN  =    -11019.63610194 eV

  energy without entropy =   -11019.63610194  energy(sigma->0) =   -11019.63610194
  exchange ACFDT corr.  =         0.00000000  see jH, gK, PRB 81, 115126


--------------------------------------------------------------------------------------------------------




--------------------------------------- Iteration      1(   4)  ---------------------------------------


    TRIAL :  cpu time      0.4535: real time      0.4537
    CORREC:  cpu time      0.0003: real time      0.0003
    --------------------------------------------
      LOOP:  cpu time      0.4601: real time      0.4604

 eigenvalue-minimisations  :   128
 total energy-change (2. order) :-0.3643838E+00  (-0.3643840E+00)
 number of electron      44.0000000 magnetization 
 augmentation part       44.0000000 magnetization 

 Free energy of the ion-electron system (eV)
  ---------------------------------------------------
  alpha Z        PSCENC =         1.88600142
  Ewald energy   TEWEN  =      1545.12635124
  -Hartree energ DENC   =     -5091.32364226
  -exchange      EXHF   =         0.00000000
  -V(xc)+E(xc)   XCENC  =        56.95811354
  PAW double counting   =      3496.39001341   -14305.00768493
  entropy T*S    EENTRO =        -0.00000000
  eigenvalues    EBANDS =      -419.39818606
  atomic energy  EATOM  =      3695.36854794
  ---------------------------------------------------
  free energy    TOTEN  =    -11020.00048571 eV

  energy without entropy =   -11020.00048571  energy(sigma->0) =   -11020.00048571
  exchange ACFDT corr.  =         0.00000000  see jH, gK, PRB 81, 115126


--------------------------------------------------------------------------------------------------------




--------------------------------------- Iteration      1(   5)  ---------------------------------------


    POTLOK:  cpu time      0.2160: real time      0.2160
    SETDIJ:  cpu time      0.5843: real time      0.5843
    TRIAL :  cpu time      7.5761: real time      7.5791
    CORREC:  cpu time      0.0003: real time      0.0003
    CHARGE:  cpu time      0.1153: real time      0.1157
    --------------------------------------------
      LOOP:  cpu time      8.4980: real time      8.5020

 eigenvalue-minimisations  :   192
 total energy-change (2. order) : 0.1101259E+05  (-0.3709630E+01)
 number of electron      44.0000010 magnetization 
 augmentation part       16.3736887 magnetization 

 Free energy of the ion-electron system (eV)
  ---------------------------------------------------
  alpha Z        PSCENC =         1.88600142
  Ewald energy   TEWEN  =      1545.12635124
  -Hartree energ DENC   =     -5091.32364226
  -exchange      EXHF   =        82.39986722
  -V(xc)+E(xc)   XCENC  =        43.90423487
  PAW double counting   =      3508.71535969    -3425.39321416
  entropy T*S    EENTRO =        -0.00000000
  eigenvalues    EBANDS =      -368.09590462
  atomic energy  EATOM  =      3695.36854794
  ---------------------------------------------------
  free energy    TOTEN  =        -7.41239866 eV

  energy without entropy =       -7.41239866  energy(sigma->0) =       -7.41239866
  exchange ACFDT corr.  =        -0.00000000  see jH, gK, PRB 81, 115126


--------------------------------------------------------------------------------------------------------




--------------------------------------- Iteration      1(   6)  ---------------------------------------


    POTLOK:  cpu time      0.2092: real time      0.2092
    SETDIJ:  cpu time      0.5971: real time      0.5976
    TRIAL :  cpu time      7.6828: real time      7.8742
    CORREC:  cpu time      7.8069: real time      7.8102
    CHARGE:  cpu time      0.1129: real time      0.1129
    --------------------------------------------
      LOOP:  cpu time     16.4111: real time     16.6111

 eigenvalue-minimisations  :     0
 total energy-change (2. order) : 0.1194335E+01  (-0.6981142E+00)
 number of electron      44.0000010 magnetization 
 augmentation part       16.3144968 magnetization 

 Free energy of the ion-electron system (eV)
  ---------------------------------------------------
  alpha Z        PSCENC =         1.88600142
  Ewald energy   TEWEN  =      1545.12635124
  -Hartree energ DENC   =     -5117.62496144
  -exchange      EXHF   =        79.00562918
  -V(xc)+E(xc)   XCENC  =        43.79341113
  PAW double counting   =      4144.84341869    -4066.46168660
  entropy T*S    EENTRO =        -0.00000000
  eigenvalues    EBANDS =      -332.15477554
  atomic energy  EATOM  =      3695.36854794
  ---------------------------------------------------
  free energy    TOTEN  =        -6.21806398 eV

  energy without entropy =       -6.21806398  energy(sigma->0) =       -6.21806398
  exchange ACFDT corr.  =        -0.00000000  see jH, gK, PRB 81, 115126


--------------------------------------------------------------------------------------------------------




--------------------------------------- Iteration      1(   7)  ---------------------------------------


    POTLOK:  cpu time      0.2073: real time      0.2073
    SETDIJ:  cpu time      0.5891: real time      0.5891
    TRIAL :  cpu time      7.1849: real time      7.1896
    CORREC:  cpu time      7.7865: real time      7.7899
    CHARGE:  cpu time      0.1138: real time      0.1138
    --------------------------------------------
      LOOP:  cpu time     15.8889: real time     15.8973

 eigenvalue-minimisations  :     0
 total energy-change (2. order) :-0.6982986E+00  (-0.1456418E+00)
 number of electron      44.0000010 magnetization 
 augmentation part       16.3713464 magnetization 

 Free energy of the ion-electron system (eV)
  ---------------------------------------------------
  alpha Z        PSCENC =         1.88600142
  Ewald energy   TEWEN  =      1545.12635124
  -Hartree energ DENC   =     -5083.26049131
  -exchange      EXHF   =        78.60878991
  -V(xc)+E(xc)   XCENC  =        43.30002469
  PAW double counting   =      4094.10911328    -4015.67232731
  entropy T*S    EENTRO =        -0.00000000
  eigenvalues    EBANDS =      -366.38237246
  atomic energy  EATOM  =      3695.36854794
  ---------------------------------------------------
  free energy    TOTEN  =        -6.91636259 eV

  energy without entropy =       -6.91636259  energy(sigma->0) =       -6.91636259
  exchange ACFDT corr.  =        -0.00000000  see jH, gK, PRB 81, 115126


--------------------------------------------------------------------------------------------------------




--------------------------------------- Iteration      1(   8)  ---------------------------------------


    POTLOK:  cpu time      0.2126: real time      0.2126
    SETDIJ:  cpu time      0.5854: real time      0.5854
    TRIAL :  cpu time      7.3781: real time      7.3824
    CORREC:  cpu time      7.8122: real time      7.8150
    CHARGE:  cpu time      0.1134: real time      0.1134
    --------------------------------------------
      LOOP:  cpu time     16.1091: real time     16.1165

 eigenvalue-minimisations  :     0
 total energy-change (2. order) :-0.1456617E+00  (-0.6217492E-01)
 number of electron      44.0000010 magnetization 
 augmentation part       16.3405921 magnetization 

 Free energy of the ion-electron system (eV)
  ---------------------------------------------------
  alpha Z        PSCENC =         1.88600142
  Ewald energy   TEWEN  =      1545.12635124
  -Hartree energ DENC   =     -5088.25300167
  -exchange      EXHF   =        78.75448746
  -V(xc)+E(xc)   XCENC  =        43.53239734
  PAW double counting   =      4088.81902622    -4010.30217467
  entropy T*S    EENTRO =        -0.00000000
  eigenvalues    EBANDS =      -361.99365956
  atomic energy  EATOM  =      3695.36854794
  ---------------------------------------------------
  free energy    TOTEN  =        -7.06202428 eV

  energy without entropy =       -7.06202428  energy(sigma->0) =       -7.06202428
  exchange ACFDT corr.  =        -0.00000000  see jH, gK, PRB 81, 115126


--------------------------------------------------------------------------------------------------------




--------------------------------------- Iteration      1(   9)  ---------------------------------------


    POTLOK:  cpu time      0.2103: real time      0.2103
    SETDIJ:  cpu time      0.5885: real time      0.5885
    TRIAL :  cpu time      7.5954: real time      7.5996
    CORREC:  cpu time      7.8501: real time      7.8534
    CHARGE:  cpu time      0.1136: real time      0.1136
    --------------------------------------------
      LOOP:  cpu time     16.3649: real time     16.3730

 eigenvalue-minimisations  :     0
 total energy-change (2. order) :-0.6128590E-01  (-0.1332501E-01)
 number of electron      44.0000010 magnetization 
 augmentation part       16.3356566 magnetization 

 Free energy of the ion-electron system (eV)
  ---------------------------------------------------
  alpha Z        PSCENC =         1.88600142
  Ewald energy   TEWEN  =      1545.12635124
  -Hartree energ DENC   =     -5086.84928668
  -exchange      EXHF   =        78.67689000
  -V(xc)+E(xc)   XCENC  =        43.44549615
  PAW double counting   =      4079.92593614    -4001.55081960
  entropy T*S    EENTRO =        -0.00000000
  eigenvalues    EBANDS =      -363.15242680
  atomic energy  EATOM  =      3695.36854794
  ---------------------------------------------------
  free energy    TOTEN  =        -7.12331018 eV

  energy without entropy =       -7.12331018  energy(sigma->0) =       -7.12331018
  exchange ACFDT corr.  =        -0.00000000  see jH, gK, PRB 81, 115126


--------------------------------------------------------------------------------------------------------




--------------------------------------- Iteration      1(  10)  ---------------------------------------


    POTLOK:  cpu time      0.2095: real time      0.2095
    SETDIJ:  cpu time      0.5915: real time      0.5915
    TRIAL :  cpu time      7.4769: real time      7.4815
    CORREC:  cpu time      7.8421: real time      7.8455
    CHARGE:  cpu time      0.1132: real time      0.1132
    --------------------------------------------
      LOOP:  cpu time     16.2409: real time     16.2492

 eigenvalue-minimisations  :     0
 total energy-change (2. order) :-0.1334618E-01  (-0.3282851E-02)
 number of electron      44.0000010 magnetization 
 augmentation part       16.3502141 magnetization 

 Free energy of the ion-electron system (eV)
  ---------------------------------------------------
  alpha Z        PSCENC =         1.88600142
  Ewald energy   TEWEN  =      1545.12635124
  -Hartree energ DENC   =     -5084.08816060
  -exchange      EXHF   =        78.63677969
  -V(xc)+E(xc)   XCENC  =        43.39425548
  PAW double counting   =      4077.32096178    -3998.91812241
  entropy T*S    EENTRO =        -0.00000000
  eigenvalues    EBANDS =      -365.86327091
  atomic energy  EATOM  =      3695.36854794
  ---------------------------------------------------
  free energy    TOTEN  =        -7.13665636 eV

  energy without entropy =       -7.13665636  energy(sigma->0) =       -7.13665636
  exchange ACFDT corr.  =        -0.00000000  see jH, gK, PRB 81, 115126


--------------------------------------------------------------------------------------------------------




--------------------------------------- Iteration      1(  11)  ---------------------------------------


    POTLOK:  cpu time      0.2099: real time      0.2099
    SETDIJ:  cpu time      0.5923: real time      0.5923
    TRIAL :  cpu time      7.5331: real time      7.5371
    CORREC:  cpu time      7.8828: real time      7.8856
    CHARGE:  cpu time      0.1135: real time      0.1135
    --------------------------------------------
      LOOP:  cpu time     16.3388: real time     16.3462

 eigenvalue-minimisations  :     0
 total energy-change (2. order) :-0.3286243E-02  (-0.1294461E-02)
 number of electron      44.0000010 magnetization 
 augmentation part       16.3441929 magnetization 

 Free energy of the ion-electron system (eV)
  ---------------------------------------------------
  alpha Z        PSCENC =         1.88600142
  Ewald energy   TEWEN  =      1545.12635124
  -Hartree energ DENC   =     -5085.89193083
  -exchange      EXHF   =        78.67146086
  -V(xc)+E(xc)   XCENC  =        43.44500891
  PAW double counting   =      4080.41791938    -4001.96181705
  entropy T*S    EENTRO =        -0.00000000
  eigenvalues    EBANDS =      -364.20148447
  atomic energy  EATOM  =      3695.36854794
  ---------------------------------------------------
  free energy    TOTEN  =        -7.13994260 eV

  energy without entropy =       -7.13994260  energy(sigma->0) =       -7.13994260
  exchange ACFDT corr.  =        -0.00000000  see jH, gK, PRB 81, 115126


--------------------------------------------------------------------------------------------------------




--------------------------------------- Iteration      1(  12)  ---------------------------------------


    POTLOK:  cpu time      0.2077: real time      0.2077
    SETDIJ:  cpu time      0.5920: real time      0.5921
    TRIAL :  cpu time      7.4567: real time      7.4614
    CORREC:  cpu time      7.8511: real time      7.8544
    CHARGE:  cpu time      0.1134: real time      0.1134
    --------------------------------------------
      LOOP:  cpu time     16.2282: real time     16.2366

 eigenvalue-minimisations  :     0
 total energy-change (2. order) :-0.1293994E-02  (-0.3700480E-03)
 number of electron      44.0000010 magnetization 
 augmentation part       16.3460207 magnetization 

 Free energy of the ion-electron system (eV)
  ---------------------------------------------------
  alpha Z        PSCENC =         1.88600142
  Ewald energy   TEWEN  =      1545.12635124
  -Hartree energ DENC   =     -5084.72194768
  -exchange      EXHF   =        78.65000553
  -V(xc)+E(xc)   XCENC  =        43.41719881
  PAW double counting   =      4078.73460160    -4000.28437851
  entropy T*S    EENTRO =        -0.00000000
  eigenvalues    EBANDS =      -365.31761693
  atomic energy  EATOM  =      3695.36854794
  ---------------------------------------------------
  free energy    TOTEN  =        -7.14123660 eV

  energy without entropy =       -7.14123660  energy(sigma->0) =       -7.14123660
  exchange ACFDT corr.  =        -0.00000000  see jH, gK, PRB 81, 115126


--------------------------------------------------------------------------------------------------------




--------------------------------------- Iteration      1(  13)  ---------------------------------------


    POTLOK:  cpu time      0.2096: real time      0.2096
    SETDIJ:  cpu time      0.5903: real time      0.5903
    TRIAL :  cpu time      7.5719: real time      7.5762
    CORREC:  cpu time      7.7872: real time      7.7899
    CHARGE:  cpu time      0.1129: real time      0.1129
    --------------------------------------------
      LOOP:  cpu time     16.2792: real time     16.2867

 eigenvalue-minimisations  :     0
 total energy-change (2. order) :-0.3858236E-03  (-0.1262853E-03)
 number of electron      44.0000010 magnetization 
 augmentation part       16.3472720 magnetization 

 Free energy of the ion-electron system (eV)
  ---------------------------------------------------
  alpha Z        PSCENC =         1.88600142
  Ewald energy   TEWEN  =      1545.12635124
  -Hartree energ DENC   =     -5085.00413577
  -exchange      EXHF   =        78.65418272
  -V(xc)+E(xc)   XCENC  =        43.42272749
  PAW double counting   =      4078.99920122    -4000.53978456
  entropy T*S    EENTRO =        -0.00000000
  eigenvalues    EBANDS =      -365.05471412
  atomic energy  EATOM  =      3695.36854794
  ---------------------------------------------------
  free energy    TOTEN  =        -7.14162242 eV

  energy without entropy =       -7.14162242  energy(sigma->0) =       -7.14162242
  exchange ACFDT corr.  =        -0.00000000  see jH, gK, PRB 81, 115126


--------------------------------------------------------------------------------------------------------




--------------------------------------- Iteration      1(  14)  ---------------------------------------


    POTLOK:  cpu time      0.2088: real time      0.2088
    SETDIJ:  cpu time      0.5913: real time      0.5913
    TRIAL :  cpu time      7.3617: real time      7.3656
    CORREC:  cpu time      7.8607: real time      7.8643
    CHARGE:  cpu time      0.1131: real time      0.1132
    --------------------------------------------
      LOOP:  cpu time     16.1431: real time     16.1511

 eigenvalue-minimisations  :     0
 total energy-change (2. order) :-0.1304598E-03  (-0.3617619E-04)
 number of electron      44.0000010 magnetization 
 augmentation part       16.3468300 magnetization 

 Free energy of the ion-electron system (eV)
  ---------------------------------------------------
  alpha Z        PSCENC =         1.88600142
  Ewald energy   TEWEN  =      1545.12635124
  -Hartree energ DENC   =     -5085.09010954
  -exchange      EXHF   =        78.65647507
  -V(xc)+E(xc)   XCENC  =        43.42613910
  PAW double counting   =      4079.20307843    -4000.73623618
  entropy T*S    EENTRO =        -0.00000000
  eigenvalues    EBANDS =      -364.98200037
  atomic energy  EATOM  =      3695.36854794
  ---------------------------------------------------
  free energy    TOTEN  =        -7.14175288 eV

  energy without entropy =       -7.14175288  energy(sigma->0) =       -7.14175288
  exchange ACFDT corr.  =        -0.00000000  see jH, gK, PRB 81, 115126


--------------------------------------------------------------------------------------------------------




--------------------------------------- Iteration      1(  15)  ---------------------------------------


    POTLOK:  cpu time      0.2090: real time      0.2090
    SETDIJ:  cpu time      0.5899: real time      0.5899
    TRIAL :  cpu time      7.4213: real time      7.4259
    CORREC:  cpu time      7.8532: real time      7.8565
    CHARGE:  cpu time      0.1132: real time      0.1132
    --------------------------------------------
      LOOP:  cpu time     16.1940: real time     16.2023

 eigenvalue-minimisations  :     0
 total energy-change (2. order) :-0.3630898E-04  (-0.1066043E-04)
 number of electron      44.0000010 magnetization 
 augmentation part       16.3468164 magnetization 

 Free energy of the ion-electron system (eV)
  ---------------------------------------------------
  alpha Z        PSCENC =         1.88600142
  Ewald energy   TEWEN  =      1545.12635124
  -Hartree energ DENC   =     -5084.95516944
  -exchange      EXHF   =        78.65454819
  -V(xc)+E(xc)   XCENC  =        43.42359385
  PAW double counting   =      4079.08273572    -4000.61499150
  entropy T*S    EENTRO =        -0.00000000
  eigenvalues    EBANDS =      -365.11340662
  atomic energy  EATOM  =      3695.36854794
  ---------------------------------------------------
  free energy    TOTEN  =        -7.14178919 eV

  energy without entropy =       -7.14178919  energy(sigma->0) =       -7.14178919
  exchange ACFDT corr.  =        -0.00000000  see jH, gK, PRB 81, 115126


--------------------------------------------------------------------------------------------------------




--------------------------------------- Iteration      1(  16)  ---------------------------------------


    POTLOK:  cpu time      0.2101: real time      0.2102
    SETDIJ:  cpu time      0.5893: real time      0.5894
    TRIAL :  cpu time      7.4379: real time      7.4426
    CORREC:  cpu time      7.7638: real time      7.7666
    CHARGE:  cpu time      0.1136: real time      0.1136
    --------------------------------------------
      LOOP:  cpu time     16.1226: real time     16.1304

 eigenvalue-minimisations  :     0
 total energy-change (2. order) :-0.8203589E-05  (-0.6246534E-05)
 number of electron      44.0000010 magnetization 
 augmentation part       16.3470857 magnetization 

 Free energy of the ion-electron system (eV)
  ---------------------------------------------------
  alpha Z        PSCENC =         1.88600142
  Ewald energy   TEWEN  =      1545.12635124
  -Hartree energ DENC   =     -5084.94292349
  -exchange      EXHF   =        78.65438538
  -V(xc)+E(xc)   XCENC  =        43.42315593
  PAW double counting   =      4079.08870779    -4000.62044200
  entropy T*S    EENTRO =        -0.00000000
  eigenvalues    EBANDS =      -365.12558161
  atomic energy  EATOM  =      3695.36854794
  ---------------------------------------------------
  free energy    TOTEN  =        -7.14179739 eV

  energy without entropy =       -7.14179739  energy(sigma->0) =       -7.14179739
  exchange ACFDT corr.  =        -0.00000000  see jH, gK, PRB 81, 115126


--------------------------------------------------------------------------------------------------------




--------------------------------------- Iteration      1(  17)  ---------------------------------------


    POTLOK:  cpu time      0.2073: real time      0.2074
    SETDIJ:  cpu time      0.5908: real time      0.5908
    TRIAL :  cpu time      7.5187: real time      7.5232
    CORREC:  cpu time      7.8787: real time      7.8816
    CHARGE:  cpu time      0.1135: real time      0.1135
    --------------------------------------------
      LOOP:  cpu time     16.3165: real time     16.3242

 eigenvalue-minimisations  :     0
 total energy-change (2. order) :-0.5855036E-05  (-0.2442554E-05)
 number of electron      44.0000010 magnetization 
 augmentation part       16.3471821 magnetization 

 Free energy of the ion-electron system (eV)
  ---------------------------------------------------
  alpha Z        PSCENC =         1.88600142
  Ewald energy   TEWEN  =      1545.12635124
  -Hartree energ DENC   =     -5085.00327093
  -exchange      EXHF   =        78.65530755
  -V(xc)+E(xc)   XCENC  =        43.42446402
  PAW double counting   =      4079.18886955    -4000.71997594
  entropy T*S    EENTRO =        -0.00000000
  eigenvalues    EBANDS =      -365.06809810
  atomic energy  EATOM  =      3695.36854794
  ---------------------------------------------------
  free energy    TOTEN  =        -7.14180325 eV

  energy without entropy =       -7.14180325  energy(sigma->0) =       -7.14180325
  exchange ACFDT corr.  =        -0.00000000  see jH, gK, PRB 81, 115126


--------------------------------------------------------------------------------------------------------




--------------------------------------- Iteration      1(  18)  ---------------------------------------


    POTLOK:  cpu time      0.2072: real time      0.2072
    SETDIJ:  cpu time      0.5954: real time      0.5954
    TRIAL :  cpu time      7.4882: real time      7.4931
    CORREC:  cpu time      7.8156: real time      7.8191
    CHARGE:  cpu time      0.1132: real time      0.1132
    --------------------------------------------
      LOOP:  cpu time     16.2269: real time     16.2357

 eigenvalue-minimisations  :     0
 total energy-change (2. order) :-0.2273410E-05  (-0.1712442E-05)
 number of electron      44.0000010 magnetization 
 augmentation part       16.3471154 magnetization 

 Free energy of the ion-electron system (eV)
  ---------------------------------------------------
  alpha Z        PSCENC =         1.88600142
  Ewald energy   TEWEN  =      1545.12635124
  -Hartree energ DENC   =     -5085.02667858
  -exchange      EXHF   =        78.65566220
  -V(xc)+E(xc)   XCENC  =        43.42501717
  PAW double counting   =      4079.23719029    -4000.76822004
  entropy T*S    EENTRO =        -0.00000000
  eigenvalues    EBANDS =      -365.04567716
  atomic energy  EATOM  =      3695.36854794
  ---------------------------------------------------
  free energy    TOTEN  =        -7.14180552 eV

  energy without entropy =       -7.14180552  energy(sigma->0) =       -7.14180552
  exchange ACFDT corr.  =        -0.00000000  see jH, gK, PRB 81, 115126


--------------------------------------------------------------------------------------------------------




--------------------------------------- Iteration      1(  19)  ---------------------------------------


    POTLOK:  cpu time      0.2085: real time      0.2086
    SETDIJ:  cpu time      0.5900: real time      0.5901
    TRIAL :  cpu time      7.4419: real time      7.4460
    CORREC:  cpu time      7.8046: real time      7.8077
    CHARGE:  cpu time      0.1131: real time      0.1131
    --------------------------------------------
      LOOP:  cpu time     16.1610: real time     16.1733

 eigenvalue-minimisations  :     0
 total energy-change (2. order) :-0.1310716E-05  (-0.1818690E-05)
 number of electron      44.0000010 magnetization 
 augmentation part       16.3470730 magnetization 

 Free energy of the ion-electron system (eV)
  ---------------------------------------------------
  alpha Z        PSCENC =         1.88600142
  Ewald energy   TEWEN  =      1545.12635124
  -Hartree energ DENC   =     -5085.01757085
  -exchange      EXHF   =        78.65547504
  -V(xc)+E(xc)   XCENC  =        43.42485041
  PAW double counting   =      4079.23816146    -4000.76955867
  entropy T*S    EENTRO =        -0.00000000
  eigenvalues    EBANDS =      -365.05406483
  atomic energy  EATOM  =      3695.36854794
  ---------------------------------------------------
  free energy    TOTEN  =        -7.14180683 eV

  energy without entropy =       -7.14180683  energy(sigma->0) =       -7.14180683
  exchange ACFDT corr.  =        -0.00000000  see jH, gK, PRB 81, 115126


--------------------------------------------------------------------------------------------------------




--------------------------------------- Iteration      1(  20)  ---------------------------------------


    POTLOK:  cpu time      0.2107: real time      0.2107
    SETDIJ:  cpu time      0.5899: real time      0.5899
    TRIAL :  cpu time      7.3119: real time      7.3168
    CORREC:  cpu time      7.8818: real time      7.8858
    EDDIAG:  cpu time      6.9253: real time      6.9290
    CHARGE:  cpu time      0.1108: real time      0.1108
    --------------------------------------------
      LOOP:  cpu time     23.0377: real time     23.0506

 eigenvalue-minimisations  :     0
 total energy-change (2. order) : 0.6058890E-06  (-0.7156051E-06)
 number of electron      44.0000010 magnetization 
 augmentation part       16.3470163 magnetization 

 Free energy of the ion-electron system (eV)
  ---------------------------------------------------
  alpha Z        PSCENC =         1.88600142
  Ewald energy   TEWEN  =      1545.12635124
  -Hartree energ DENC   =     -5085.00945168
  -exchange      EXHF   =        78.65514615
  -V(xc)+E(xc)   XCENC  =        43.42456888
  PAW double counting   =      4079.22551421    -4000.75706382
  entropy T*S    EENTRO =        -0.00000000
  eigenvalues    EBANDS =      -365.06160087
  atomic energy  EATOM  =      3695.36854794
  ---------------------------------------------------
  free energy    TOTEN  =        -7.14180623 eV

  energy without entropy =       -7.14180623  energy(sigma->0) =       -7.14180623
  exchange ACFDT corr.  =        -0.00000000  see jH, gK, PRB 81, 115126


--------------------------------------------------------------------------------------------------------


  average scaling for gradient   1.1968


 average (electrostatic) potential at core
  the test charge radii are     1.2098
  (the norm of the test charge is              1.0000)
       1 -72.6015       2 -71.3458       3 -72.5591       4 -72.6009



 E-fermi :  -5.8177     XC(G=0):  -0.1822     alpha+bet : -0.0961

 Fermi energy:        -5.8176966616

 k-point     1 :       0.0000    0.0000    0.0000
  band No.  band energies     occupation 
      1     -11.2398      2.00000
      2     -10.1447      2.00000
      3      -9.8345      2.00000
      4      -9.7513      2.00000
      5      -9.1118      2.00000
      6      -8.9499      2.00000
      7      -8.8898      2.00000
      8      -8.8338      2.00000
      9      -8.3232      2.00000
     10      -8.3054      2.00000
     11      -8.1900      2.00000
     12      -8.1516      2.00000
     13      -8.0860      2.00000
     14      -7.9111      2.00000
     15      -7.8984      2.00000
     16      -7.8634      2.00000
     17      -7.1424      2.00000
     18      -7.1402      2.00000
     19      -6.9585      2.00000
     20      -6.9298      2.00000
     21      -6.8045      2.00000
     22      -6.0750      2.00000
     23      -4.1762      0.00000
     24      -2.6661      0.00000
     25      -1.3396      0.00000
     26      -0.6965      0.00000
     27      -0.5255      0.00000
     28      -0.2108      0.00000
     29       0.0926      0.00000
     30       0.1421      0.00000
     31       0.3539      0.00000
     32       0.3893      0.00000
     33       0.4096      0.00000
     34       0.4263      0.00000
     35       0.4379      0.00000
     36       0.4607      0.00000
     37       0.4697      0.00000
     38       0.6630      0.00000
     39       0.7074      0.00000
     40       0.7135      0.00000
     41       0.7189      0.00000
     42       0.7222      0.00000
     43       0.7326      0.00000
     44       0.7512      0.00000
     45       0.7744      0.00000
     46       0.8148      0.00000
     47       0.8552      0.00000
     48       0.8559      0.00000
     49       0.8622      0.00000
     50       0.9976      0.00000
     51       1.0392      0.00000
     52       1.0419      0.00000
     53       1.1007      0.00000
     54       1.1161      0.00000
     55       1.1388      0.00000
     56       1.1547      0.00000
     57       1.1754      0.00000
     58       1.2037      0.00000
     59       1.2880      0.00000
     60       1.3110      0.00000
     61       1.3894      0.00000
     62       1.4244      0.00000
     63       1.4591      0.00000
     64       1.4649      0.00000


--------------------------------------------------------------------------------------------------------


 soft charge-density along one line, spin component           1
         0         1         2         3         4         5         6         7         8         9
 total charge-density along one line

 pseudopotential strength for first ion, spin component:           1
 -8.510   0.000   0.000   0.027   0.000  -8.666   0.000   0.000
  0.000  -8.564   0.026  -0.000  -0.032   0.000  -8.719   0.025
  0.000   0.026  -8.524   0.000  -0.040   0.000   0.025  -8.679
  0.027  -0.000   0.000  -8.481   0.000   0.026  -0.000   0.000
  0.000  -0.032  -0.040   0.000  -8.523   0.000  -0.031  -0.039
 -8.666   0.000   0.000   0.026   0.000  -8.805   0.000   0.000
  0.000  -8.719   0.025  -0.000  -0.031   0.000  -8.858   0.025
  0.000   0.025  -8.679   0.000  -0.039   0.000   0.025  -8.819
  0.026  -0.000   0.000  -8.637   0.000   0.026  -0.000   0.000
  0.000  -0.031  -0.039   0.000  -8.678   0.000  -0.030  -0.038
  0.000  -0.021   0.003  -0.000  -0.030   0.000  -0.021   0.003
  0.000  -0.031   0.004  -0.000  -0.044   0.000  -0.031   0.004
  0.000  -0.013  -0.020  -0.000  -0.034   0.000  -0.012  -0.019
 -0.000   0.034  -0.015   0.000  -0.000  -0.000   0.033  -0.015
  0.034  -0.000  -0.000  -0.013   0.000   0.033  -0.000  -0.000
  0.000  -0.015  -0.022  -0.000  -0.040   0.000  -0.014  -0.022
 -0.000   0.040  -0.017   0.000   0.000  -0.000   0.039  -0.016
  0.039  -0.000  -0.000  -0.014   0.000   0.038  -0.000  -0.000
 total augmentation occupancy for first ion, spin component:           1
  2.541  -0.000  -0.000  -0.156  -0.000  -0.455   0.000   0.000   0.179   0.000  -0.001   0.000   0.000  -0.000   0.023   0.000
 -0.000   2.864  -0.223   0.000   0.226   0.000  -0.986   0.351  -0.000  -0.286   1.100  -0.358  -0.080   0.119  -0.000  -0.006
 -0.000  -0.223   3.043  -0.000   0.315   0.000   0.350  -1.045   0.000  -0.356  -0.229   0.071  -0.057  -0.148   0.000  -0.021
 -0.156   0.000  -0.000   2.578  -0.000   0.179  -0.000   0.000  -0.463   0.000   0.001  -0.000  -0.000   0.000  -0.038   0.000
 -0.000   0.226   0.315  -0.000   2.868   0.000  -0.283  -0.355   0.000  -0.891   1.439  -0.446  -0.152   0.008  -0.000  -0.025
 -0.455   0.000   0.000   0.179   0.000   0.373  -0.000  -0.000  -0.199  -0.000   0.001  -0.000  -0.000   0.000  -0.058   0.000
  0.000  -0.986   0.350  -0.000  -0.283  -0.000   1.074  -0.457   0.000   0.333  -0.970   0.329   0.106  -0.176   0.000  -0.006
  0.000   0.351  -1.045   0.000  -0.355  -0.000  -0.457   1.036  -0.000   0.388   0.236  -0.081   0.066   0.170  -0.000  -0.000
  0.179  -0.000   0.000  -0.463   0.000  -0.199   0.000  -0.000   0.357  -0.000  -0.001   0.000   0.000  -0.000   0.050  -0.000
  0.000  -0.286  -0.356   0.000  -0.891  -0.000   0.333   0.388  -0.000   0.891  -1.204   0.398   0.206  -0.019   0.000  -0.009
 -0.001   1.100  -0.229   0.001   1.439   0.001  -0.970   0.236  -0.001  -1.204   3.347  -1.024  -0.331   0.183  -0.000   0.011
  0.000  -0.358   0.071  -0.000  -0.446  -0.000   0.329  -0.081   0.000   0.398  -1.024   0.321   0.108  -0.064   0.000  -0.004
  0.000  -0.080  -0.057  -0.000  -0.152  -0.000   0.106   0.066   0.000   0.206  -0.331   0.108   0.052  -0.011   0.000  -0.003
 -0.000   0.119  -0.148   0.000   0.008   0.000  -0.176   0.170  -0.000  -0.019   0.183  -0.064  -0.011   0.045  -0.000   0.001
  0.023  -0.000   0.000  -0.038  -0.000  -0.058   0.000  -0.000   0.050   0.000  -0.000   0.000   0.000  -0.000   0.012  -0.000
  0.000  -0.006  -0.021   0.000  -0.025   0.000  -0.006  -0.000  -0.000  -0.009   0.011  -0.004  -0.003   0.001  -0.000   0.001
  0.000   0.026  -0.010   0.000  -0.004  -0.000   0.007  -0.005   0.000   0.003  -0.005   0.002   0.001  -0.002   0.000  -0.000
  0.036   0.000  -0.000  -0.014   0.000  -0.000  -0.000   0.000  -0.001  -0.000   0.000  -0.000  -0.000   0.000  -0.001   0.000


------------------------ aborting loop because EDIFF is reached ----------------------------------------


    FORLOC:  cpu time      0.0042: real time      0.0042
    FORHF :  cpu time      1.9877: real time      1.9887
    FORNL :  cpu time      0.1267: real time      0.1267
    FORCOR:  cpu time      0.7607: real time      0.7609
    OFIELD:  cpu time      0.0006: real time      0.0006

 VOLUME and BASIS-vectors are now :
 -----------------------------------------------------------------------------
  energy-cutoff  :      520.00
  volume of cell :     9881.61
      direct lattice vectors                 reciprocal lattice vectors
    21.138852197  0.000000000  0.000000000     0.047306258  0.000000000  0.000000000
     0.000000000 21.138852197  0.000000000     0.000000000  0.047306258  0.000000000
     0.000000000  0.000000000 22.113885220     0.000000000  0.000000000  0.045220457

  length of vectors
    21.138852197 21.138852197 22.113885220     0.047306258  0.047306258  0.045220457


 FORCES acting on ions:
    Electron-Ion                     Ewald-Force                    Non-Local-Force
 -----------------------------------------------------------------------------------------------
   -.154E+00 -.385E+03 0.283E+03   0.152E+00 0.379E+03 -.280E+03   0.292E-02 0.607E+01 -.320E+01
   0.319E-01 -.104E+00 -.410E+03   -.320E-01 0.987E-01 0.403E+03   0.289E-03 0.509E-02 0.747E+01
   0.161E+00 0.652E+00 -.157E+03   -.159E+00 -.643E+00 0.158E+03   -.739E-03 -.696E-02 -.658E+00
   -.401E-01 0.385E+03 0.283E+03   0.400E-01 -.378E+03 -.281E+03   0.481E-03 -.607E+01 -.322E+01
 -----------------------------------------------------------------------------------------------
   -.154E-02 -.296E-02 -.249E+00   -.833E-16 0.000E+00 0.284E-13   0.295E-02 0.126E-03 0.393E+00


 POSITION                                       TOTAL-FORCE (eV/Angst)
 -----------------------------------------------------------------------------------
      8.45440     11.94847     13.35506         0.000197     -0.390124     -0.546939
      8.45328     10.56231     18.09008        -0.000257      0.000535      0.327988
      8.45334     10.56083     15.56737        -0.000050      0.002475      0.767759
      8.45399      9.17859     13.35199         0.000110      0.387114     -0.548807
 -----------------------------------------------------------------------------------
    total drift:                                0.001345     -0.001115     -0.009996


--------------------------------------------------------------------------------------------------------



  FREE ENERGIE OF THE ION-ELECTRON SYSTEM (eV)
  ---------------------------------------------------
  free  energy   TOTEN  =        -7.14180623 eV

  energy  without entropy=       -7.14180623  energy(sigma->0) =       -7.14180623



--------------------------------------------------------------------------------------------------------


    POTLOK:  cpu time      0.7986: real time      0.7987


--------------------------------------------------------------------------------------------------------


     LOOP+:  cpu time    265.1077: real time    265.4385
    4ORBIT:  cpu time      0.0000: real time      0.0000

 total amount of memory used by VASP MPI-rank0  1219868. kBytes
=======================================================================

   base      :      30000. kBytes
   nonlr-proj:       2798. kBytes
   fftplans  :      65038. kBytes
   grid      :      53473. kBytes
   one-center:         15. kBytes
   HF        :         64. kBytes
   wavefun   :       3192. kBytes
   fock_wrk  :    1065288. kBytes

  
  
 General timing and accounting informations for this job:
 ========================================================
  
                  Total CPU time used (sec):      286.829
                            User time (sec):      270.928
                          System time (sec):       15.901
                         Elapsed time (sec):      289.899
  
                   Maximum memory used (kb):     1669448.
                   Average memory used (kb):          N/A
  
                          Minor page faults:      1590459
                          Major page faults:           53
                 Voluntary context switches:        11848
