 vasp.6.3.0 20Jan22 (build Apr  1 2022 16:44:48) complex                         
 executed on        HPECrayEX_GCC date 2023.02.15  13:20:43
 running   64 mpi-ranks, with    1 threads/rank
 distrk:  each k-point on   32 cores,    2 groups
 distr:  one band on NCORE=   4 cores,    8 groups


--------------------------------------------------------------------------------------------------------


 INCAR:
   SYSTEM = MgO-rocksalt
   ISMEAR = 0
   SIGMA = 0.05
   EDIFF = 1E-6
   ALGO = ALL
   ISTART = 0
   IBRION = -1
   NSW = 0
   ISYM = 2
   GGA = PS
   IVDW = 12
   VDW_A1 = 0.4466
   VDW_S8 = 2.9491
   VDW_A2 = 6.1742
   ENCUT = 520
   PREC = Accurate
   LASPH = .TRUE.
   LREAL = Auto
   NELM = 200
   NELMIN = 8
   NCORE = 4
   KPAR = 2
   LWAVE = .FALSE.
   LCHARG = .FALSE.
   ISPIN = 2

 POTCAR:    PAW_PBE Ag 02Apr2005                  
 -----------------------------------------------------------------------------
|                                                                             |
|           W    W    AA    RRRRR   N    N  II  N    N   GGGG   !!!           |
|           W    W   A  A   R    R  NN   N  II  NN   N  G    G  !!!           |
|           W    W  A    A  R    R  N N  N  II  N N  N  G       !!!           |
|           W WW W  AAAAAA  RRRRR   N  N N  II  N  N N  G  GGG   !            |
|           WW  WW  A    A  R   R   N   NN  II  N   NN  G    G                |
|           W    W  A    A  R    R  N    N  II  N    N   GGGG   !!!           |
|                                                                             |
|     You use a magnetic or noncollinear calculation, but did not specify     |
|     the initial magnetic moment with the MAGMOM tag. Note that a            |
|     default of 1 will be used for all atoms. This ferromagnetic setup       |
|     may break the symmetry of the crystal, in particular it may rule        |
|     out finding an antiferromagnetic solution. Thence, we recommend         |
|     setting the initial magnetic moment manually or verifying carefully     |
|     that this magnetic setup is desired.                                    |
|                                                                             |
 -----------------------------------------------------------------------------

 POTCAR:    PAW_PBE Ag 02Apr2005                  
   SHA256 =  6550cfa3543261e132c169e1b98a529204624d72be14e2da2e0242bcb74a174d Ag/POTCAR             
   COPYR  = (c) Copyright 02Apr2005 Georg Kresse                                                    
   COPYR  = This file is part of the software VASP. Any use, copying, and all other rights are regul
   COPYR  = If you do not have a valid VASP license, you may not use, copy or distribute this file. 
   VRHFIN =Ag : s1 d10                                                                              
   LEXCH  = PE                                                                                      
   EATOM  =  1037.2675 eV,   76.2370 Ry                                                             
                                                                                                    
   TITEL  = PAW_PBE Ag 02Apr2005                                                                    
   LULTRA =        F    use ultrasoft PP ?                                                          
   IUNSCR =        1    unscreen: 0-lin 1-nonlin 2-no                                               
   RPACOR =    2.000    partial core radius                                                         
   POMASS =  107.868; ZVAL   =   11.000    mass and valenz                                          
   RCORE  =    2.500    outmost cutoff radius                                                       
   RWIGS  =    2.840; RWIGS  =    1.503    wigner-seitz radius (au A)                               
   ENMAX  =  249.844; ENMIN  =  187.383 eV                                                          
   ICORE  =        3    local potential                                                             
   LCOR   =        T    correct aug charges                                                         
   LPAW   =        T    paw PP                                                                      
   EAUG   =  412.496                                                                                
   DEXC   =    0.000                                                                                
   RMAX   =    2.560    core radius for proj-oper                                                   
   RAUG   =    1.300    factor for augmentation sphere                                              
   RDEP   =    2.576    radius for radial grids                                                     
   RDEPT  =    2.072    core radius for aug-charge                                                  
                                                                                                    
   Atomic configuration                                                                             
   12 entries                                                                                       
     n  l   j            E        occ.                                                              
     1  0  0.50    -25324.9161   2.0000                                                             
     2  0  0.50     -3728.5341   2.0000                                                             
     2  1  1.50     -3344.0404   6.0000                                                             
     3  0  0.50      -683.5581   2.0000                                                             
     3  1  1.50      -557.3225   6.0000                                                             
     3  2  2.50      -358.3853  10.0000                                                             
     4  0  0.50       -95.0341   2.0000                                                             
     4  1  1.50       -58.5511   6.0000                                                             
     4  2  2.50        -7.4440  10.0000                                                             
     5  0  0.50        -4.4045   1.0000                                                             
     5  1  0.50        -1.3606   0.0000                                                             
     4  3  2.50        -1.3606   0.0000                                                             
   Description                                                                                      
     l       E           TYP  RCUT    TYP  RCUT                                                     
     2     -7.4439781     23  2.400                                                                 
     2     -8.8045607     23  2.400                                                                 
     0     -4.4044681     23  2.400                                                                 
     0      1.9520038     23  2.400                                                                 
     1     -1.3605826     23  2.500                                                                 
     1     27.2116520     23  2.500                                                                 
     3     -4.0817478     23  2.400                                                                 
  local pseudopotential read in
  partial core-charges read in
  partial kinetic energy density read in
  atomic valenz-charges read in
  non local Contribution for L=           2  read in
    real space projection operators read in
  non local Contribution for L=           2  read in
    real space projection operators read in
  non local Contribution for L=           0  read in
    real space projection operators read in
  non local Contribution for L=           0  read in
    real space projection operators read in
  non local Contribution for L=           1  read in
    real space projection operators read in
  non local Contribution for L=           1  read in
    real space projection operators read in
    PAW grid and wavefunctions read in

   number of l-projection  operators is LMAX  =           6
   number of lm-projection operators is LMMAX =          18

 -----------------------------------------------------------------------------
|                                                                             |
|               ----> ADVICE to this user running VASP <----                  |
|                                                                             |
|     You have a (more or less) 'small supercell' and for smaller cells       |
|     it is recommended to use the reciprocal-space projection scheme!        |
|     The real-space optimization is not efficient for small cells and it     |
|     is also less accurate ...                                               |
|     Therefore, set LREAL=.FALSE. in the INCAR file.                         |
|                                                                             |
 -----------------------------------------------------------------------------

 Optimization of the real space projectors (new method)

 maximal supplied QI-value         = 15.12
 optimisation between [QCUT,QGAM] = [ 11.64, 23.28] = [ 37.95,151.78] Ry 
 Optimized for a Real-space Cutoff    1.45 Angstroem

   l    n(q)    QCUT    max X(q) W(low)/X(q) W(high)/X(q)  e(spline) 
   2      9    11.641    53.897    0.22E-03    0.42E-04    0.28E-06
   2      9    11.641    52.416    0.23E-03    0.44E-04    0.29E-06
   0     10    11.641   122.045    0.51E-04    0.25E-04    0.16E-06
   0     10    11.641    73.629    0.49E-04    0.24E-04    0.16E-06
   1     10    11.641    15.255    0.99E-04    0.55E-04    0.11E-06
   1     10    11.641     9.562    0.81E-04    0.47E-04    0.95E-07
 -----------------------------------------------------------------------------
|                                                                             |
|               ----> ADVICE to this user running VASP <----                  |
|                                                                             |
|     You enforced a specific xc type in the INCAR file but a different       |
|     type was found in the POTCAR file.                                      |
|     I HOPE YOU KNOW WHAT YOU ARE DOING!                                     |
|                                                                             |
 -----------------------------------------------------------------------------

  PAW_PBE Ag 02Apr2005                  :
 energy of atom  1       EATOM=-1037.2675
 kinetic energy error for atom=    0.0047 (will be added to EATOM!!)


 POSCAR: au4
  positions in direct lattice
  No initial velocities read in
 exchange correlation table for  LEXCH =       14
   RHO(1)=    0.500       N(1)  =     2000
   RHO(2)=  100.500       N(2)  =     4000



--------------------------------------------------------------------------------------------------------


 ion  position               nearest neighbor table
   1  0.450  0.460  0.600-

  LATTYP: Found a simple cubic cell.
 ALAT       =    20.0000000000
  
  Lattice vectors:
  
 A1 = (  20.0000000000,   0.0000000000,   0.0000000000)
 A2 = (   0.0000000000,  20.0000000000,   0.0000000000)
 A3 = (   0.0000000000,   0.0000000000,  20.0000000000)


Analysis of symmetry for initial positions (statically):
=====================================================================
 Subroutine PRICEL returns:
 Original cell was already a primitive cell.
 

 Routine SETGRP: Setting up the symmetry group for a 
 simple cubic supercell.


 Subroutine GETGRP returns: Found 48 space group operations
 (whereof  1 operations were pure point group operations)
 out of a pool of 48 trial point group operations.


The static configuration has the point symmetry C_1 .
 The point group associated with its full space group is O_h .


Analysis of symmetry for dynamics (positions and initial velocities):
=====================================================================
 Subroutine PRICEL returns:
 Original cell was already a primitive cell.
 

 Routine SETGRP: Setting up the symmetry group for a 
 simple cubic supercell.


 Subroutine GETGRP returns: Found 48 space group operations
 (whereof  1 operations were pure point group operations)
 out of a pool of 48 trial point group operations.


The dynamic configuration has the point symmetry C_1 .
 The point group associated with its full space group is O_h .


Analysis of structural, dynamic, and magnetic symmetry:
=====================================================================
 Subroutine PRICEL returns:
 Original cell was already a primitive cell.
 

 Routine SETGRP: Setting up the symmetry group for a 
 simple cubic supercell.


 Subroutine GETGRP returns: Found 48 space group operations
 (whereof  1 operations were pure point group operations)
 out of a pool of 48 trial point group operations.


The overall configuration has the point symmetry C_1 .
 The point group associated with its full space group is O_h .


 Subroutine INISYM returns: Found 48 space group operations
 (whereof  1 operations are pure point group operations),
 and found     1 'primitive' translations


----------------------------------------------------------------------------------------

                                     Primitive cell                                     

  volume of cell :    8000.0000

  direct lattice vectors                    reciprocal lattice vectors
    20.000000000  0.000000000  0.000000000     0.050000000  0.000000000  0.000000000
     0.000000000 20.000000000  0.000000000     0.000000000  0.050000000  0.000000000
     0.000000000  0.000000000 20.000000000     0.000000000  0.000000000  0.050000000

  length of vectors
    20.000000000 20.000000000 20.000000000     0.050000000  0.050000000  0.050000000

  position of ions in fractional coordinates (direct lattice)
     0.450000000  0.460000000  0.600000000

  ion indices of the primitive-cell ions
   primitive index   ion index
                 1           1

----------------------------------------------------------------------------------------



 KPOINTS: KPOINTS created by Atomic Simulation Env

Automatic generation of k-mesh.
 Grid dimensions read from file:
 generate k-points for:    1    1    1

 Generating k-lattice:

  Cartesian coordinates                     Fractional coordinates (reciprocal lattice)
     0.050000000  0.000000000  0.000000000     1.000000000  0.000000000  0.000000000
     0.000000000  0.050000000  0.000000000     0.000000000  1.000000000  0.000000000
     0.000000000  0.000000000  0.050000000     0.000000000  0.000000000  1.000000000

  Length of vectors
     0.050000000  0.050000000  0.050000000

  Shift w.r.t. Gamma in fractional coordinates (k-lattice)
     0.000000000  0.000000000  0.000000000

 
 Subroutine IBZKPT returns following result:
 ===========================================
 
 Found      1 irreducible k-points:
 
 Following reciprocal coordinates:
            Coordinates               Weight
  0.000000  0.000000  0.000000      1.000000
 
 Following cartesian coordinates:
            Coordinates               Weight
  0.000000  0.000000  0.000000      1.000000
 


--------------------------------------------------------------------------------------------------------




 Dimension of arrays:
   k-points           NKPTS =      1   k-points in BZ     NKDIM =      1   number of bands    NBANDS=     16
   number of dos      NEDOS =    301   number of ions     NIONS =      1
   non local maximal  LDIM  =      6   non local SUM 2l+1 LMDIM =     18
   total plane-waves  NPLWV = ******
   max r-space proj   IRMAX =   5390   max aug-charges    IRDMAX=  20940
   dimension x,y,z NGX =   150 NGY =  150 NGZ =  150
   dimension x,y,z NGXF=   300 NGYF=  300 NGZF=  300
   support grid    NGXF=   300 NGYF=  300 NGZF=  300
   ions per type =               1
   NGX,Y,Z   is equivalent  to a cutoff of  12.47, 12.47, 12.47 a.u.
   NGXF,Y,Z  is equivalent  to a cutoff of  24.94, 24.94, 24.94 a.u.

 SYSTEM =  MgO-rocksalt                            
 POSCAR =  au4                                     

 Startparameter for this run:
   NWRITE =      2    write-flag & timer
   PREC   = accura    normal or accurate (medium, high low for compatibility)
   ISTART =      0    job   : 0-new  1-cont  2-samecut
   ICHARG =      2    charge: 1-file 2-atom 10-const
   ISPIN  =      2    spin polarized calculation?
   LNONCOLLINEAR =      F non collinear calculations
   LSORBIT =      F    spin-orbit coupling
   INIWAV =      1    electr: 0-lowe 1-rand  2-diag
   LASPH  =      T    aspherical Exc in radial PAW
 Electronic Relaxation 1
   ENCUT  =  520.0 eV  38.22 Ry    6.18 a.u.  37.19 37.19 37.19*2*pi/ulx,y,z
   ENINI  =  520.0     initial cutoff
   ENAUG  =  412.5 eV  augmentation charge cutoff
   NELM   =    200;   NELMIN=  8; NELMDL= -5     # of ELM steps 
   EDIFF  = 0.1E-05   stopping-criterion for ELM
   LREAL  =      T    real-space projection
   NLSPLINE    = F    spline interpolate recip. space projectors
   LCOMPAT=      F    compatible to vasp.4.4
   GGA_COMPAT  = T    GGA compatible to vasp.4.4-vasp.4.6
   LMAXPAW     = -100 max onsite density
   LMAXMIX     =    2 max onsite mixed and CHGCAR
   VOSKOWN=      0    Vosko Wilk Nusair interpolation
   ROPT   =   -0.00025
 Ionic relaxation
   EDIFFG = 0.1E-04   stopping-criterion for IOM
   NSW    =      0    number of steps for IOM
   NBLOCK =      1;   KBLOCK =      1    inner block; outer block 
   IBRION =     -1    ionic relax: 0-MD 1-quasi-New 2-CG
   NFREE  =      0    steps in history (QN), initial steepest desc. (CG)
   ISIF   =      2    stress and relaxation
   IWAVPR =     10    prediction:  0-non 1-charg 2-wave 3-comb
   ISYM   =      2    0-nonsym 1-usesym 2-fastsym
   LCORR  =      T    Harris-Foulkes like correction to forces

   POTIM  = 0.5000    time-step for ionic-motion
   TEIN   =    0.0    initial temperature
   TEBEG  =    0.0;   TEEND  =   0.0 temperature during run
   SMASS  =  -3.00    Nose mass-parameter (am)
   estimated Nose-frequenzy (Omega)   =  0.10E-29 period in steps = 0.13E+47 mass=  -0.914E-26a.u.
   SCALEE = 1.0000    scale energy and forces
   NPACO  =    256;   APACO  = 10.0  distance and # of slots for P.C.
   PSTRESS=    0.0 pullay stress

  Mass of Ions in am
   POMASS = 107.87
  Ionic Valenz
   ZVAL   =  11.00
  Atomic Wigner-Seitz radii
   RWIGS  =  -1.00
  virtual crystal weights 
   VCA    =   1.00
   NELECT =      11.0000    total number of electrons
   NUPDOWN=      -1.0000    fix difference up-down

 DOS related values:
   EMIN   =  10.00;   EMAX   =-10.00  energy-range for DOS
   EFERMI =   0.00
   ISMEAR =     0;   SIGMA  =   0.05  broadening in eV -4-tet -1-fermi 0-gaus

 Electronic relaxation 2 (details)
   IALGO  =     58    algorithm
   LDIAG  =      T    sub-space diagonalisation (order eigenvalues)
   LSUBROT=      F    optimize rotation matrix (better conditioning)
   TURBO    =      0    0=normal 1=particle mesh
   IRESTART =      0    0=no restart 2=restart with 2 vectors
   NREBOOT  =      0    no. of reboots
   NMIN     =      0    reboot dimension
   EREF     =   0.00    reference energy to select bands
   IMIX   =      4    mixing-type and parameters
     AMIX     =   0.40;   BMIX     =  1.00
     AMIX_MAG =   1.60;   BMIX_MAG =  1.00
     AMIN     =   0.10
     WC   =   100.;   INIMIX=   1;  MIXPRE=   1;  MAXMIX= -45

 Intra band minimization:
   WEIMIN = 0.0000     energy-eigenvalue tresh-hold
   EBREAK =  0.16E-07  absolut break condition
   DEPER  =   0.30     relativ break condition  

   TIME   =   0.40     timestep for ELM

  volume/ion in A,a.u.               =    8000.00     53986.66
  Fermi-wavevector in a.u.,A,eV,Ry     =   0.182044  0.344013  0.450896  0.033140
  Thomas-Fermi vector in A             =   0.909791

 Write flags
   LWAVE        =      F    write WAVECAR
   LDOWNSAMPLE  =      F    k-point downsampling of WAVECAR
   LCHARG       =      F    write CHGCAR
   LVTOT        =      F    write LOCPOT, total local potential
   LVHAR        =      F    write LOCPOT, Hartree potential only
   LELF         =      F    write electronic localiz. function (ELF)
   LORBIT       =      0    0 simple, 1 ext, 2 COOP (PROOUT), +10 PAW based schemes


 Dipole corrections
   LMONO  =      F    monopole corrections only (constant potential shift)
   LDIPOL =      F    correct potential (dipole corrections)
   IDIPOL =      0    1-x, 2-y, 3-z, 4-all directions 
   EPSILON=  1.0000000 bulk dielectric constant

 Exchange correlation treatment:
   GGA     =    PS    GGA type
   LEXCH   =    14    internal setting for exchange type
   LIBXC   =     F    Libxc                    
   VOSKOWN =     0    Vosko Wilk Nusair interpolation
   LHFCALC =     F    Hartree Fock is set to
   LHFONE  =     F    Hartree Fock one center treatment
   AEXX    =    0.0000 exact exchange contribution

 Linear response parameters
   LEPSILON=     F    determine dielectric tensor
   LRPA    =     F    only Hartree local field effects (RPA)
   LNABLA  =     F    use nabla operator in PAW spheres
   LVEL    =     F    velocity operator in full k-point grid
   CSHIFT  =0.1000    complex shift for real part using Kramers Kronig
   OMEGAMAX=  -1.0    maximum frequency
   DEG_THRESHOLD= 0.2000000E-02 threshold for treating states as degnerate
   RTIME   =   -0.100 relaxation time in fs
  (WPLASMAI=    0.000 imaginary part of plasma frequency in eV, 0.658/RTIME)
   DFIELD  = 0.0000000 0.0000000 0.0000000 field for delta impulse in time

  Optional k-point grid parameters
   LKPOINTS_OPT  =     F    use optional k-point grid
   KPOINTS_OPT_MODE=     1    mode for optional k-point grid

 Orbital magnetization related:
   ORBITALMAG=     F  switch on orbital magnetization
   LCHIMAG   =     F  perturbation theory with respect to B field
   DQ        =  0.001000  dq finite difference perturbation B field
   LLRAUG    =     F  two centre corrections for induced B field



--------------------------------------------------------------------------------------------------------


 Static calculation
 charge density and potential will be updated during run
 spin polarized calculation
 Conjugate gradient for all bands (Freysoldt, et al. PRB 79, 241103 (2009))
 preconditioned conjugated gradient                                        
 perform sub-space diagonalisation
    before iterative eigenvector-optimisation
 modified Broyden-mixing scheme, WC =      100.0
 initial mixing is a Kerker type mixing with AMIX =  0.4000 and BMIX =      1.0000
 Hartree-type preconditioning will be used
 using additional bands           10
 real space projection scheme for non local part
 use partial core corrections
 no Harris-corrections to forces 
 use gradient corrections 
 use of overlap-Matrix (Vanderbilt PP)
 Gauss-broadening in eV      SIGMA  =   0.05


--------------------------------------------------------------------------------------------------------


  energy-cutoff  :      520.00
  volume of cell :     8000.00
      direct lattice vectors                 reciprocal lattice vectors
    20.000000000  0.000000000  0.000000000     0.050000000  0.000000000  0.000000000
     0.000000000 20.000000000  0.000000000     0.000000000  0.050000000  0.000000000
     0.000000000  0.000000000 20.000000000     0.000000000  0.000000000  0.050000000

  length of vectors
    20.000000000 20.000000000 20.000000000     0.050000000  0.050000000  0.050000000



 k-points in units of 2pi/SCALE and weight: KPOINTS created by Atomic Simulation Env
   0.00000000  0.00000000  0.00000000       1.000

 k-points in reciprocal lattice and weights: KPOINTS created by Atomic Simulation Env
   0.00000000  0.00000000  0.00000000       1.000

 position of ions in fractional coordinates (direct lattice) 
   0.45000000  0.46000000  0.60000000

 position of ions in cartesian coordinates  (Angst):
   9.00000000  9.20000000 12.00000000



--------------------------------------------------------------------------------------------------------


 k-point   1 :   0.0000 0.0000 0.0000  plane waves:  215503

 maximum and minimum number of plane-waves per node :     53900    53857

 maximum number of plane-waves:    215503
 maximum index in each direction: 
   IXMAX=   37   IYMAX=   37   IZMAX=   37
   IXMIN=  -37   IYMIN=  -37   IZMIN=  -37


 real space projection operators:
  total allocation   :        718.59 KBytes
  max/ min on nodes  :        182.39        176.91


 parallel 3D FFT for wavefunctions:
    minimum data exchange during FFTs selected (reduces bandwidth)
 parallel 3D FFT for charge:
    minimum data exchange during FFTs selected (reduces bandwidth)


 total amount of memory used by VASP MPI-rank0   229579. kBytes
=======================================================================

   base      :      30000. kBytes
   nonlr-proj:        313. kBytes
   fftplans  :      55167. kBytes
   grid      :     133718. kBytes
   one-center:         31. kBytes
   wavefun   :      10350. kBytes

     INWAV:  cpu time      0.0000: real time      0.0000
 Broyden mixing: mesh for mixing (old mesh)
   NGX = 75   NGY = 75   NGZ = 75
  (NGX  =300   NGY  =300   NGZ  =300)
  gives a total of 421875 points

 initial charge density was supplied:
 charge density of overlapping atoms calculated
 number of electron      11.0000000 magnetization       1.0000000
 keeping initial charge density in first step


--------------------------------------------------------------------------------------------------------


 Maximum index for non-local projection operator         1297
 Maximum index for augmentation-charges          749 (set IRDMAX)


--------------------------------------------------------------------------------------------------------


 First call to EWALD:  gamma=   0.089
 Maximum number of real-space cells 3x 3x 3
 Maximum number of reciprocal cells 3x 3x 3

    FEWALD:  cpu time      0.0016: real time      0.0016


--------------------------------------- Iteration      1(   1)  ---------------------------------------


    POTLOK:  cpu time      1.7742: real time      1.7746
    SETDIJ:  cpu time      0.6503: real time      0.6506
    TRIAL :  cpu time      1.3705: real time      1.6958
    CORREC:  cpu time      0.0005: real time      0.0005
    --------------------------------------------
      LOOP:  cpu time      3.8086: real time      4.1352

 eigenvalue-minimisations  :    64
 total energy-change (2. order) : 0.7852161E+02  (-0.1313313E+03)
 number of electron      11.0000000 magnetization       1.0000000
 augmentation part       11.0000000 magnetization       1.0000000

 Free energy of the ion-electron system (eV)
  ---------------------------------------------------
  alpha Z        PSCENC =         0.10632226
  Ewald energy   TEWEN  =      -123.59085203
  -Hartree energ DENC   =      -869.22072703
  -exchange      EXHF   =         0.00000000
  -V(xc)+E(xc)   XCENC  =       -10.80955806
  PAW double counting   =      1002.10828659     -957.08059969
  entropy T*S    EENTRO =        -0.02689385
  eigenvalues    EBANDS =         0.03498399
  atomic energy  EATOM  =      1037.00065048
  ---------------------------------------------------
  free energy    TOTEN  =        78.52161265 eV

  energy without entropy =       78.54850650  energy(sigma->0) =       78.53505958


--------------------------------------------------------------------------------------------------------




--------------------------------------- Iteration      1(   2)  ---------------------------------------


    TRIAL :  cpu time      1.2657: real time      1.2660
    CORREC:  cpu time      0.0003: real time      0.0003
    --------------------------------------------
      LOOP:  cpu time      1.2714: real time      1.2808

 eigenvalue-minimisations  :    80
 total energy-change (2. order) :-0.1030038E+02  (-0.9357349E+01)
 number of electron      11.0000000 magnetization       1.0000000
 augmentation part       11.0000000 magnetization       1.0000000

 Free energy of the ion-electron system (eV)
  ---------------------------------------------------
  alpha Z        PSCENC =         0.10632226
  Ewald energy   TEWEN  =      -123.59085203
  -Hartree energ DENC   =      -869.22072703
  -exchange      EXHF   =         0.00000000
  -V(xc)+E(xc)   XCENC  =       -10.80955806
  PAW double counting   =      1002.10828659     -957.08059969
  entropy T*S    EENTRO =        -0.04773916
  eigenvalues    EBANDS =       -10.24454940
  atomic energy  EATOM  =      1037.00065048
  ---------------------------------------------------
  free energy    TOTEN  =        68.22123395 eV

  energy without entropy =       68.26897311  energy(sigma->0) =       68.24510353


--------------------------------------------------------------------------------------------------------




--------------------------------------- Iteration      1(   3)  ---------------------------------------


    TRIAL :  cpu time      1.8585: real time      1.8590
    CORREC:  cpu time      0.0003: real time      0.0003
    --------------------------------------------
      LOOP:  cpu time      1.8641: real time      1.8720

 eigenvalue-minimisations  :   128
 total energy-change (2. order) :-0.5564854E+02  (-0.5003642E+02)
 number of electron      11.0000000 magnetization       1.0000000
 augmentation part       11.0000000 magnetization       1.0000000

 Free energy of the ion-electron system (eV)
  ---------------------------------------------------
  alpha Z        PSCENC =         0.10632226
  Ewald energy   TEWEN  =      -123.59085203
  -Hartree energ DENC   =      -869.22072703
  -exchange      EXHF   =         0.00000000
  -V(xc)+E(xc)   XCENC  =       -10.80955806
  PAW double counting   =      1002.10828659     -957.08059969
  entropy T*S    EENTRO =        -0.00000897
  eigenvalues    EBANDS =       -65.94081562
  atomic energy  EATOM  =      1037.00065048
  ---------------------------------------------------
  free energy    TOTEN  =        12.57269792 eV

  energy without entropy =       12.57270689  energy(sigma->0) =       12.57270241


--------------------------------------------------------------------------------------------------------




--------------------------------------- Iteration      1(   4)  ---------------------------------------


    TRIAL :  cpu time      1.1668: real time      1.1671
    CORREC:  cpu time      0.0002: real time      0.0002
    --------------------------------------------
      LOOP:  cpu time      1.1710: real time      1.1791

 eigenvalue-minimisations  :    72
 total energy-change (2. order) :-0.1249043E+02  (-0.1246944E+02)
 number of electron      11.0000000 magnetization       1.0000000
 augmentation part       11.0000000 magnetization       1.0000000

 Free energy of the ion-electron system (eV)
  ---------------------------------------------------
  alpha Z        PSCENC =         0.10632226
  Ewald energy   TEWEN  =      -123.59085203
  -Hartree energ DENC   =      -869.22072703
  -exchange      EXHF   =         0.00000000
  -V(xc)+E(xc)   XCENC  =       -10.80955806
  PAW double counting   =      1002.10828659     -957.08059969
  entropy T*S    EENTRO =        -0.00000879
  eigenvalues    EBANDS =       -78.43124972
  atomic energy  EATOM  =      1037.00065048
  ---------------------------------------------------
  free energy    TOTEN  =         0.08226400 eV

  energy without entropy =        0.08227279  energy(sigma->0) =        0.08226840


--------------------------------------------------------------------------------------------------------




--------------------------------------- Iteration      1(   5)  ---------------------------------------


    TRIAL :  cpu time      1.3649: real time      1.3651
    CORREC:  cpu time      0.0002: real time      0.0002
    CHARGE:  cpu time      1.3752: real time      1.3757
    --------------------------------------------
      LOOP:  cpu time      2.7450: real time      2.7531

 eigenvalue-minimisations  :    88
 total energy-change (2. order) :-0.1027812E+00  (-0.1027541E+00)
 number of electron      10.9999991 magnetization       0.9999416
 augmentation part        5.3447649 magnetization      -0.0594528

 Free energy of the ion-electron system (eV)
  ---------------------------------------------------
  alpha Z        PSCENC =         0.10632226
  Ewald energy   TEWEN  =      -123.59085203
  -Hartree energ DENC   =      -869.22072703
  -exchange      EXHF   =         0.00000000
  -V(xc)+E(xc)   XCENC  =       -10.80955806
  PAW double counting   =      1002.10828659     -957.08059969
  entropy T*S    EENTRO =        -0.00000876
  eigenvalues    EBANDS =       -78.53403095
  atomic energy  EATOM  =      1037.00065048
  ---------------------------------------------------
  free energy    TOTEN  =        -0.02051720 eV

  energy without entropy =       -0.02050844  energy(sigma->0) =       -0.02051282


--------------------------------------------------------------------------------------------------------




--------------------------------------- Iteration      1(   6)  ---------------------------------------


    POTLOK:  cpu time      1.7616: real time      1.7618
    SETDIJ:  cpu time      0.6707: real time      0.6709
    TRIAL :  cpu time      0.6425: real time      0.6430
    CORREC:  cpu time      3.8916: real time      3.8927
    CHARGE:  cpu time      1.2807: real time      1.2810
    --------------------------------------------
      LOOP:  cpu time      8.2623: real time      8.2651

 eigenvalue-minimisations  :     0
 total energy-change (2. order) :-0.1809506E+00  (-0.2525797E-01)
 number of electron      10.9999991 magnetization       1.0000000
 augmentation part        5.3667375 magnetization      -0.1109027

 Free energy of the ion-electron system (eV)
  ---------------------------------------------------
  alpha Z        PSCENC =         0.10632226
  Ewald energy   TEWEN  =      -123.59085203
  -Hartree energ DENC   =      -868.29301288
  -exchange      EXHF   =         0.00000000
  -V(xc)+E(xc)   XCENC  =       -10.83466030
  PAW double counting   =       989.17898364     -944.18158830
  entropy T*S    EENTRO =        -0.00000000
  eigenvalues    EBANDS =       -79.58730194
  atomic energy  EATOM  =      1037.00065048
  ---------------------------------------------------
  free energy    TOTEN  =        -0.20146783 eV

  energy without entropy =       -0.20146783  energy(sigma->0) =       -0.20146783


--------------------------------------------------------------------------------------------------------




--------------------------------------- Iteration      1(   7)  ---------------------------------------


    POTLOK:  cpu time      1.7662: real time      1.7665
    SETDIJ:  cpu time      0.6713: real time      0.6713
    TRIAL :  cpu time      0.6395: real time      0.6397
    CORREC:  cpu time      3.8837: real time      3.8844
    CHARGE:  cpu time      1.2815: real time      1.2817
    --------------------------------------------
      LOOP:  cpu time      8.2569: real time      8.2588

 eigenvalue-minimisations  :     0
 total energy-change (2. order) :-0.2536730E-01  (-0.3983865E-02)
 number of electron      10.9999991 magnetization       1.0000000
 augmentation part        5.3556981 magnetization      -0.1256011

 Free energy of the ion-electron system (eV)
  ---------------------------------------------------
  alpha Z        PSCENC =         0.10632226
  Ewald energy   TEWEN  =      -123.59085203
  -Hartree energ DENC   =      -871.10682509
  -exchange      EXHF   =         0.00000000
  -V(xc)+E(xc)   XCENC  =       -10.73164381
  PAW double counting   =       997.21690150     -952.23213227
  entropy T*S    EENTRO =        -0.00000000
  eigenvalues    EBANDS =       -76.88925617
  atomic energy  EATOM  =      1037.00065048
  ---------------------------------------------------
  free energy    TOTEN  =        -0.22683514 eV

  energy without entropy =       -0.22683514  energy(sigma->0) =       -0.22683514


--------------------------------------------------------------------------------------------------------




--------------------------------------- Iteration      1(   8)  ---------------------------------------


    POTLOK:  cpu time      1.7653: real time      1.7665
    SETDIJ:  cpu time      0.6756: real time      0.6757
    TRIAL :  cpu time      0.6391: real time      0.6391
    CORREC:  cpu time      3.8583: real time      3.8591
    CHARGE:  cpu time      1.2817: real time      1.2819
    --------------------------------------------
      LOOP:  cpu time      8.2251: real time      8.2372

 eigenvalue-minimisations  :     0
 total energy-change (2. order) :-0.3984267E-02  (-0.5446274E-03)
 number of electron      10.9999991 magnetization       1.0000000
 augmentation part        5.3576088 magnetization      -0.1282285

 Free energy of the ion-electron system (eV)
  ---------------------------------------------------
  alpha Z        PSCENC =         0.10632226
  Ewald energy   TEWEN  =      -123.59085203
  -Hartree energ DENC   =      -869.27270797
  -exchange      EXHF   =         0.00000000
  -V(xc)+E(xc)   XCENC  =       -10.78545014
  PAW double counting   =       996.80603968     -951.78291438
  entropy T*S    EENTRO =        -0.00000000
  eigenvalues    EBANDS =       -78.71190729
  atomic energy  EATOM  =      1037.00065048
  ---------------------------------------------------
  free energy    TOTEN  =        -0.23081941 eV

  energy without entropy =       -0.23081941  energy(sigma->0) =       -0.23081941


--------------------------------------------------------------------------------------------------------




--------------------------------------- Iteration      1(   9)  ---------------------------------------


    POTLOK:  cpu time      1.7369: real time      1.7374
    SETDIJ:  cpu time      0.6770: real time      0.6772
    TRIAL :  cpu time      0.6383: real time      0.6386
    CORREC:  cpu time      3.8475: real time      3.8484
    CHARGE:  cpu time      1.2797: real time      1.2802
    --------------------------------------------
      LOOP:  cpu time      8.1842: real time      8.1969

 eigenvalue-minimisations  :     0
 total energy-change (2. order) :-0.5438477E-03  (-0.4699789E-04)
 number of electron      10.9999991 magnetization       1.0000000
 augmentation part        5.3573714 magnetization      -0.1287102

 Free energy of the ion-electron system (eV)
  ---------------------------------------------------
  alpha Z        PSCENC =         0.10632226
  Ewald energy   TEWEN  =      -123.59085203
  -Hartree energ DENC   =      -869.53138028
  -exchange      EXHF   =         0.00000000
  -V(xc)+E(xc)   XCENC  =       -10.77669071
  PAW double counting   =       997.96630096     -952.94886710
  entropy T*S    EENTRO =        -0.00000000
  eigenvalues    EBANDS =       -78.45684682
  atomic energy  EATOM  =      1037.00065048
  ---------------------------------------------------
  free energy    TOTEN  =        -0.23136325 eV

  energy without entropy =       -0.23136325  energy(sigma->0) =       -0.23136325


--------------------------------------------------------------------------------------------------------




--------------------------------------- Iteration      1(  10)  ---------------------------------------


    POTLOK:  cpu time      1.7277: real time      1.7279
    SETDIJ:  cpu time      0.6741: real time      0.6743
    TRIAL :  cpu time      0.6381: real time      0.6383
    CORREC:  cpu time      3.8420: real time      3.8427
    CHARGE:  cpu time      1.2813: real time      1.2816
    --------------------------------------------
      LOOP:  cpu time      8.1838: real time      8.1857

 eigenvalue-minimisations  :     0
 total energy-change (2. order) :-0.4700754E-04  (-0.9674846E-05)
 number of electron      10.9999991 magnetization       1.0000000
 augmentation part        5.3572671 magnetization      -0.1288436

 Free energy of the ion-electron system (eV)
  ---------------------------------------------------
  alpha Z        PSCENC =         0.10632226
  Ewald energy   TEWEN  =      -123.59085203
  -Hartree energ DENC   =      -869.52651194
  -exchange      EXHF   =         0.00000000
  -V(xc)+E(xc)   XCENC  =       -10.77673718
  PAW double counting   =       998.20984803     -953.19466815
  entropy T*S    EENTRO =        -0.00000000
  eigenvalues    EBANDS =       -78.45946173
  atomic energy  EATOM  =      1037.00065048
  ---------------------------------------------------
  free energy    TOTEN  =        -0.23141026 eV

  energy without entropy =       -0.23141026  energy(sigma->0) =       -0.23141026


--------------------------------------------------------------------------------------------------------




--------------------------------------- Iteration      1(  11)  ---------------------------------------


    POTLOK:  cpu time      1.7203: real time      1.7207
    SETDIJ:  cpu time      0.6773: real time      0.6773
    TRIAL :  cpu time      0.6383: real time      0.6386
    CORREC:  cpu time      3.8358: real time      3.8370
    CHARGE:  cpu time      1.2809: real time      1.2812
    --------------------------------------------
      LOOP:  cpu time      8.1573: real time      8.1738

 eigenvalue-minimisations  :     0
 total energy-change (2. order) :-0.9568839E-05  (-0.3570302E-05)
 number of electron      10.9999991 magnetization       1.0000000
 augmentation part        5.3573342 magnetization      -0.1287641

 Free energy of the ion-electron system (eV)
  ---------------------------------------------------
  alpha Z        PSCENC =         0.10632226
  Ewald energy   TEWEN  =      -123.59085203
  -Hartree energ DENC   =      -869.53595147
  -exchange      EXHF   =         0.00000000
  -V(xc)+E(xc)   XCENC  =       -10.77637624
  PAW double counting   =       998.48391370     -953.47063179
  entropy T*S    EENTRO =        -0.00000000
  eigenvalues    EBANDS =       -78.44849474
  atomic energy  EATOM  =      1037.00065048
  ---------------------------------------------------
  free energy    TOTEN  =        -0.23141983 eV

  energy without entropy =       -0.23141983  energy(sigma->0) =       -0.23141983


--------------------------------------------------------------------------------------------------------




--------------------------------------- Iteration      1(  12)  ---------------------------------------


    POTLOK:  cpu time      1.7138: real time      1.7142
    SETDIJ:  cpu time      0.6785: real time      0.6785
    TRIAL :  cpu time      0.6390: real time      0.6393
    CORREC:  cpu time      3.8294: real time      3.8304
    CHARGE:  cpu time      1.2823: real time      1.2825
    --------------------------------------------
      LOOP:  cpu time      8.1488: real time      8.1602

 eigenvalue-minimisations  :     0
 total energy-change (2. order) :-0.3417697E-05  (-0.4994558E-06)
 number of electron      10.9999991 magnetization       1.0000000
 augmentation part        5.3572783 magnetization      -0.1287416

 Free energy of the ion-electron system (eV)
  ---------------------------------------------------
  alpha Z        PSCENC =         0.10632226
  Ewald energy   TEWEN  =      -123.59085203
  -Hartree energ DENC   =      -869.54956501
  -exchange      EXHF   =         0.00000000
  -V(xc)+E(xc)   XCENC  =       -10.77593047
  PAW double counting   =       998.77880398     -953.76606963
  entropy T*S    EENTRO =        -0.00000000
  eigenvalues    EBANDS =       -78.43478282
  atomic energy  EATOM  =      1037.00065048
  ---------------------------------------------------
  free energy    TOTEN  =        -0.23142325 eV

  energy without entropy =       -0.23142325  energy(sigma->0) =       -0.23142325


--------------------------------------------------------------------------------------------------------




--------------------------------------- Iteration      1(  13)  ---------------------------------------


    POTLOK:  cpu time      1.7122: real time      1.7132
    SETDIJ:  cpu time      0.6757: real time      0.6757
    TRIAL :  cpu time      0.6387: real time      0.6388
    CORREC:  cpu time      3.8352: real time      3.8361
    EDDIAG:  cpu time      0.2530: real time      0.2530
    CHARGE:  cpu time      1.2821: real time      1.2822
    --------------------------------------------
      LOOP:  cpu time      8.4112: real time      8.4137

 eigenvalue-minimisations  :     0
 total energy-change (2. order) :-0.5130520E-06  (-0.2101003E-06)
 number of electron      10.9999991 magnetization       1.0000000
 augmentation part        5.3573619 magnetization      -0.1287275

 Free energy of the ion-electron system (eV)
  ---------------------------------------------------
  alpha Z        PSCENC =         0.10632226
  Ewald energy   TEWEN  =      -123.59085203
  -Hartree energ DENC   =      -869.53879465
  -exchange      EXHF   =         0.00000000
  -V(xc)+E(xc)   XCENC  =       -10.77626837
  PAW double counting   =       998.83198657     -953.81895557
  entropy T*S    EENTRO =        -0.00000000
  eigenvalues    EBANDS =       -78.44551245
  atomic energy  EATOM  =      1037.00065048
  ---------------------------------------------------
  free energy    TOTEN  =        -0.23142376 eV

  energy without entropy =       -0.23142376  energy(sigma->0) =       -0.23142376


--------------------------------------------------------------------------------------------------------


  average scaling for gradient   1.4714


 average (electrostatic) potential at core
  the test charge radii are     1.1249
  (the norm of the test charge is              1.0000)
       1 -81.9762



 E-fermi :  -4.5198     XC(G=0):  -0.1122     alpha+bet : -0.0287

 Fermi energy:        -4.5198078419

 spin component 1

 k-point     1 :       0.0000    0.0000    0.0000
  band No.  band energies     occupation 
      1      -7.4728      1.00000
      2      -7.4728      1.00000
      3      -7.4728      1.00000
      4      -7.4728      1.00000
      5      -7.4727      1.00000
      6      -4.7519      1.00000
      7      -0.8914      0.00000
      8      -0.8914      0.00000
      9      -0.8914      0.00000
     10      -0.0642      0.00000
     11       0.2909      0.00000
     12       0.3626      0.00000
     13       0.3630      0.00000
     14       0.3990      0.00000
     15       0.3990      0.00000
     16       0.3991      0.00000
 Fermi energy:        -4.5198078419

 spin component 2

 k-point     1 :       0.0000    0.0000    0.0000
  band No.  band energies     occupation 
      1      -7.2650      1.00000
      2      -7.2650      1.00000
      3      -7.2650      1.00000
      4      -7.2650      1.00000
      5      -7.2649      1.00000
      6      -3.8844      0.00000
      7      -0.1562      0.00000
      8      -0.1562      0.00000
      9      -0.1562      0.00000
     10       0.0310      0.00000
     11       0.3967      0.00000
     12       0.3967      0.00000
     13       0.4429      0.00000
     14       0.4527      0.00000
     15       0.4528      0.00000
     16       0.4528      0.00000


--------------------------------------------------------------------------------------------------------


 soft charge-density along one line, spin component           1
         0         1         2         3         4         5         6         7         8         9
 total charge-density along one line

 soft charge-density along one line, spin component           2
         0         1         2         3         4         5         6         7         8         9
 total charge-density along one line

 pseudopotential strength for first ion, spin component:           1
-10.338   0.000   0.000  -0.000  -0.000 -10.314   0.000   0.000
  0.000 -10.338  -0.000  -0.000   0.000   0.000 -10.314  -0.000
  0.000  -0.000 -10.338   0.000   0.000   0.000  -0.000 -10.314
 -0.000  -0.000   0.000 -10.338   0.000  -0.000  -0.000   0.000
 -0.000   0.000   0.000   0.000 -10.338  -0.000   0.000   0.000
-10.314   0.000   0.000  -0.000  -0.000 -10.266   0.000   0.000
  0.000 -10.314  -0.000  -0.000   0.000   0.000 -10.266  -0.000
  0.000  -0.000 -10.314   0.000   0.000   0.000  -0.000 -10.266
 -0.000  -0.000   0.000 -10.314   0.000  -0.000  -0.000   0.000
 -0.000   0.000   0.000   0.000 -10.314  -0.000   0.000   0.000
  0.000   0.000   0.000  -0.000   0.000   0.000   0.000   0.000
  0.000   0.000   0.000  -0.000   0.000   0.000   0.000   0.000
 -0.000   0.000   0.000   0.000   0.000  -0.000   0.000   0.000
  0.000  -0.000   0.000  -0.000  -0.000   0.000  -0.000   0.000
 -0.000   0.000   0.000   0.000  -0.000  -0.000   0.000   0.000
 -0.000   0.000   0.000   0.000   0.000  -0.000   0.000   0.000
  0.000  -0.000   0.000  -0.000  -0.000   0.000  -0.000   0.000
 -0.000   0.000   0.000   0.000  -0.000  -0.000   0.000   0.000
 pseudopotential strength for first ion, spin component:           2
-10.360   0.000   0.000  -0.000  -0.000 -10.336   0.000   0.000
  0.000 -10.360  -0.000  -0.000   0.000   0.000 -10.336  -0.000
  0.000  -0.000 -10.360   0.000   0.000   0.000  -0.000 -10.336
 -0.000  -0.000   0.000 -10.360   0.000  -0.000  -0.000   0.000
 -0.000   0.000   0.000   0.000 -10.360  -0.000   0.000   0.000
-10.336   0.000   0.000  -0.000  -0.000 -10.288   0.000   0.000
  0.000 -10.336  -0.000  -0.000   0.000   0.000 -10.288  -0.000
  0.000  -0.000 -10.336   0.000   0.000   0.000  -0.000 -10.288
 -0.000  -0.000   0.000 -10.336   0.000  -0.000  -0.000   0.000
 -0.000   0.000   0.000   0.000 -10.336  -0.000   0.000   0.000
  0.000   0.000   0.000  -0.000   0.000   0.000   0.000   0.000
  0.000   0.000   0.000  -0.000   0.000   0.000   0.000   0.000
 -0.000   0.000   0.000   0.000   0.000  -0.000   0.000   0.000
  0.000  -0.000   0.000  -0.000  -0.000   0.000  -0.000   0.000
 -0.000   0.000   0.000   0.000  -0.000  -0.000   0.000   0.000
 -0.000   0.000   0.000   0.000   0.000  -0.000   0.000   0.000
  0.000  -0.000   0.000  -0.000  -0.000   0.000  -0.000   0.000
 -0.000   0.000   0.000   0.000  -0.000  -0.000   0.000   0.000
 total augmentation occupancy for first ion, spin component:           1
  1.933   0.000  -0.000  -0.000   0.000   0.027  -0.000   0.000   0.000   0.000   0.000  -0.000   0.000   0.000   0.000   0.000
  0.000   1.933   0.000   0.000   0.000   0.000   0.027   0.000  -0.000   0.000   0.000  -0.000   0.000   0.000   0.000   0.000
 -0.000   0.000   1.933   0.000   0.000  -0.000   0.000   0.027  -0.000   0.000  -0.000   0.000   0.000   0.000   0.000   0.000
 -0.000   0.000   0.000   1.933   0.000  -0.000   0.000  -0.000   0.027  -0.000   0.000  -0.000   0.000   0.000   0.000   0.000
  0.000   0.000   0.000   0.000   1.933   0.000  -0.000   0.000   0.000   0.027   0.000   0.000   0.000   0.000   0.000   0.000
  0.027   0.000  -0.000  -0.000   0.000   0.014   0.000  -0.000  -0.000  -0.000  -0.000   0.000   0.000   0.000   0.000   0.000
 -0.000   0.027   0.000   0.000  -0.000   0.000   0.014  -0.000   0.000  -0.000  -0.000  -0.000   0.000   0.000   0.000   0.000
  0.000   0.000   0.027  -0.000   0.000  -0.000  -0.000   0.014   0.000   0.000   0.000  -0.000   0.000   0.000   0.000   0.000
  0.000  -0.000  -0.000   0.027   0.000  -0.000   0.000   0.000   0.014   0.000   0.000   0.000   0.000   0.000   0.000   0.000
  0.000   0.000   0.000  -0.000   0.027  -0.000  -0.000   0.000   0.000   0.014   0.000   0.000   0.000   0.000   0.000   0.000
  0.000   0.000  -0.000   0.000   0.000  -0.000  -0.000  -0.000   0.000  -0.000   0.924   0.029   0.000   0.000   0.000   0.000
 -0.000  -0.000   0.000  -0.000   0.000   0.000  -0.000  -0.000   0.000   0.000   0.029   0.001   0.000   0.000   0.000   0.000
  0.000   0.000   0.000   0.000   0.000   0.000   0.000   0.000   0.000   0.000   0.000   0.000   0.000   0.000  -0.000  -0.000
  0.000   0.000   0.000   0.000   0.000   0.000   0.000   0.000   0.000   0.000   0.000   0.000   0.000   0.000   0.000   0.000
  0.000   0.000   0.000   0.000   0.000   0.000   0.000   0.000   0.000   0.000   0.000   0.000  -0.000   0.000   0.000   0.000
  0.000   0.000   0.000   0.000   0.000   0.000   0.000   0.000   0.000   0.000   0.000   0.000  -0.000   0.000   0.000   0.000
  0.000   0.000   0.000   0.000   0.000   0.000   0.000   0.000   0.000   0.000   0.000   0.000  -0.000  -0.000   0.000  -0.000
  0.000   0.000   0.000   0.000   0.000   0.000   0.000   0.000   0.000   0.000   0.000   0.000   0.000   0.000  -0.000  -0.000
 total augmentation occupancy for first ion, spin component:           2
 -0.328  -0.000   0.000   0.000   0.000   0.158   0.000   0.000   0.000  -0.000  -0.000   0.000   0.000   0.000   0.000   0.000
 -0.000  -0.328   0.000   0.000  -0.000  -0.000   0.158   0.000  -0.000   0.000  -0.000   0.000   0.000   0.000   0.000   0.000
  0.000   0.000  -0.328   0.000  -0.000  -0.000   0.000   0.158  -0.000   0.000   0.000  -0.000   0.000   0.000   0.000   0.000
  0.000   0.000   0.000  -0.328   0.000  -0.000  -0.000   0.000   0.158   0.000  -0.000  -0.000   0.000   0.000   0.000   0.000
  0.000  -0.000  -0.000   0.000  -0.328   0.000   0.000   0.000   0.000   0.158  -0.000   0.000   0.000   0.000   0.000   0.000
  0.158  -0.000  -0.000  -0.000   0.000   0.007   0.000   0.000   0.000  -0.000  -0.000  -0.000   0.000   0.000   0.000   0.000
  0.000   0.158   0.000  -0.000   0.000   0.000   0.007   0.000   0.000   0.000  -0.000   0.000   0.000   0.000   0.000   0.000
  0.000   0.000   0.158   0.000   0.000   0.000   0.000   0.007   0.000   0.000   0.000  -0.000   0.000   0.000   0.000   0.000
  0.000  -0.000  -0.000   0.158   0.000   0.000   0.000   0.000   0.007  -0.000   0.000  -0.000   0.000   0.000   0.000   0.000
 -0.000   0.000   0.000   0.000   0.158  -0.000   0.000   0.000  -0.000   0.007   0.000   0.000   0.000   0.000   0.000   0.000
 -0.000  -0.000   0.000  -0.000   0.000  -0.000  -0.000  -0.000   0.000   0.000   0.924   0.029   0.000   0.000   0.000   0.000
  0.000   0.000  -0.000  -0.000   0.000  -0.000   0.000  -0.000  -0.000   0.000   0.029   0.001   0.000   0.000   0.000   0.000
  0.000   0.000   0.000   0.000   0.000   0.000   0.000   0.000   0.000   0.000   0.000   0.000  -0.000   0.000   0.000   0.000
  0.000   0.000   0.000   0.000   0.000   0.000   0.000   0.000   0.000   0.000   0.000   0.000   0.000  -0.000   0.000   0.000
  0.000   0.000   0.000   0.000   0.000   0.000   0.000   0.000   0.000   0.000   0.000   0.000   0.000   0.000  -0.000   0.000
  0.000   0.000   0.000   0.000   0.000   0.000   0.000   0.000   0.000   0.000   0.000   0.000   0.000   0.000   0.000  -0.000
  0.000   0.000   0.000   0.000   0.000   0.000   0.000   0.000   0.000   0.000   0.000   0.000  -0.000   0.000  -0.000  -0.000
  0.000   0.000   0.000   0.000   0.000   0.000   0.000   0.000   0.000   0.000   0.000   0.000  -0.000   0.000   0.000   0.000


------------------------ aborting loop because EDIFF is reached ----------------------------------------


    FORLOC:  cpu time      0.0158: real time      0.0158
    FORNL :  cpu time      0.4314: real time      0.4319
    STRESS:  cpu time      1.3374: real time      1.3375
    FORCOR:  cpu time      1.6252: real time      1.6253
    OFIELD:  cpu time      0.0072: real time      0.0072
 -----------------------------------------------------------------------------
|                                                                             |
|           W    W    AA    RRRRR   N    N  II  N    N   GGGG   !!!           |
|           W    W   A  A   R    R  NN   N  II  NN   N  G    G  !!!           |
|           W    W  A    A  R    R  N N  N  II  N N  N  G       !!!           |
|           W WW W  AAAAAA  RRRRR   N  N N  II  N  N N  G  GGG   !            |
|           WW  WW  A    A  R   R   N   NN  II  N   NN  G    G                |
|           W    W  A    A  R    R  N    N  II  N    N   GGGG   !!!           |
|                                                                             |
|     Specifying the vdW parameters                                           |
|     VDW_A1 = 0.447                                                          |
|     VDW_A2 = 6.174                                                          |
|     VDW_S8 = 2.949                                                          |
|     in the INCAR file will overwrite the defaults for pbesol. Please        |
|     make sure that is what you intended.                                    |
|                                                                             |
 -----------------------------------------------------------------------------


 ---------------------------------------------------------------------------------------------

         DFTD3 V3.0 Rev 1        
 IVDW         = 12
 DF pbesol    
 parameters
 VDW_S6       =    1.0000
 VDW_S8       =    2.9491
 VDW_A1       =    0.4466
 VDW_A2       =    6.1742
 k1-k3        =   16.0000    1.3333   -4.0000
 VDW_RADIUS   =   50.2022 A
 VDW_CNRADIUS =   21.1671 A
 Edisp (eV)   -0.00002

 E6    (eV) :    -0.0000
 E8    (eV) :    -0.0000
 % E8        : 13.44
    FORVDW:  cpu time      0.0043: real time      0.0045

  FORCE on cell =-STRESS in cart. coord.  units (eV):
  Direction    XX          YY          ZZ          XY          YZ          ZX
  --------------------------------------------------------------------------------------
  Alpha Z     0.10632     0.10632     0.10632
  Ewald     -41.19695   -41.19695   -41.19695     0.00000    -0.00000    -0.00000
  Hartree   289.84997   289.84997   289.84997    -0.00000    -0.00000    -0.00000
  E(xc)     -56.94965   -56.94965   -56.94965     0.00000    -0.00000     0.00000
  Local    -406.31238  -406.31238  -406.31238     0.00000    -0.00000     0.00000
  n-local   -15.60992   -15.60900   -15.60907     0.00006     0.00010     0.00011
  augment    91.50497    91.50497    91.50497    -0.00000     0.00000     0.00000
  Kinetic   138.59279   138.59276   138.59284    -0.00005    -0.00011    -0.00011
  Fock        0.00000     0.00000     0.00000     0.00000     0.00000     0.00000
  vdW        -0.00004    -0.00004    -0.00004    -0.00000     0.00000     0.00000
  -------------------------------------------------------------------------------------
  Total      -0.01430    -0.01430    -0.01430    -0.00000     0.00000    -0.00000
  in kB      -0.00286    -0.00286    -0.00286    -0.00000     0.00000    -0.00000
  external pressure =       -0.00 kB  Pullay stress =        0.00 kB


 VOLUME and BASIS-vectors are now :
 -----------------------------------------------------------------------------
  energy-cutoff  :      520.00
  volume of cell :     8000.00
      direct lattice vectors                 reciprocal lattice vectors
    20.000000000  0.000000000  0.000000000     0.050000000  0.000000000  0.000000000
     0.000000000 20.000000000  0.000000000     0.000000000  0.050000000  0.000000000
     0.000000000  0.000000000 20.000000000     0.000000000  0.000000000  0.050000000

  length of vectors
    20.000000000 20.000000000 20.000000000     0.050000000  0.050000000  0.050000000


 FORCES acting on ions:
    Electron-Ion                     Ewald-Force                    Non-Local-Force
 -----------------------------------------------------------------------------------------------
   0.332E-12 0.701E-10 -.515E-10   0.106E-16 -.303E-16 -.392E-16   0.000E+00 0.000E+00 0.106E-21
 -----------------------------------------------------------------------------------------------
   0.361E-12 0.719E-10 -.521E-10   0.106E-16 -.303E-16 -.392E-16   0.000E+00 0.000E+00 0.106E-21


 POSITION                                       TOTAL-FORCE (eV/Angst)
 -----------------------------------------------------------------------------------
      9.00000      9.20000     12.00000         0.000000      0.000000      0.000000
 -----------------------------------------------------------------------------------
    total drift:                                0.000000      0.000000     -0.000000


--------------------------------------------------------------------------------------------------------



  FREE ENERGIE OF THE ION-ELECTRON SYSTEM (eV)
  ---------------------------------------------------
  free  energy   TOTEN  =        -0.23144242 eV

  energy  without entropy=       -0.23144242  energy(sigma->0) =       -0.23144242



--------------------------------------------------------------------------------------------------------


    POTLOK:  cpu time      2.4064: real time      2.4066


--------------------------------------------------------------------------------------------------------


     LOOP+:  cpu time     83.1928: real time     83.6265
    4ORBIT:  cpu time      0.0000: real time      0.0000

 total amount of memory used by VASP MPI-rank0   229579. kBytes
=======================================================================

   base      :      30000. kBytes
   nonlr-proj:        313. kBytes
   fftplans  :      55167. kBytes
   grid      :     133718. kBytes
   one-center:         31. kBytes
   wavefun   :      10350. kBytes

  
  
 General timing and accounting informations for this job:
 ========================================================
  
                  Total CPU time used (sec):       93.153
                            User time (sec):       90.673
                          System time (sec):        2.480
                         Elapsed time (sec):       95.288
  
                   Maximum memory used (kb):      351476.
                   Average memory used (kb):          N/A
  
                          Minor page faults:       131930
                          Major page faults:           53
                 Voluntary context switches:         2191
