 vasp.6.3.0 20Jan22 (build Apr  1 2022 16:44:48) complex                         
 executed on        HPECrayEX_GCC date 2023.01.06  18:17:14
 running  768 mpi-ranks, with    1 threads/rank
 distrk:  each k-point on  384 cores,    2 groups
 distr:  one band on NCORE=   4 cores,   96 groups


--------------------------------------------------------------------------------------------------------


 INCAR:
   SYSTEM = MgO-rocksalt
   ISMEAR = 0
   SIGMA = 0.05
   EDIFF = 1E-6
   ALGO = ALL
   ISTART = 0
   IBRION = -1
   NSW = 0
   ISYM = 2
   LHFCALC = .TRUE.
   HFSCREEN = 0.2
   GGA = PE
   ENCUT = 520
   PREC = Accurate
   LASPH = .TRUE.
   LREAL = Auto
   ISPIN = 1
   NELM = 200
   NELMIN = 8
   NCORE = 4
   KPAR = 2
   LWAVE = .FALSE.
   LCHARG = .FALSE.

 POTCAR:    PAW_PBE Au 04Oct2007                  
 -----------------------------------------------------------------------------
|                                                                             |
|           W    W    AA    RRRRR   N    N  II  N    N   GGGG   !!!           |
|           W    W   A  A   R    R  NN   N  II  NN   N  G    G  !!!           |
|           W    W  A    A  R    R  N N  N  II  N N  N  G       !!!           |
|           W WW W  AAAAAA  RRRRR   N  N N  II  N  N N  G  GGG   !            |
|           WW  WW  A    A  R   R   N   NN  II  N   NN  G    G                |
|           W    W  A    A  R    R  N    N  II  N    N   GGGG   !!!           |
|                                                                             |
|     You have selected ISYM=2 for a HF type calculation. This will           |
|     symmetrize the charge density but not the exchange potential. I         |
|     suggest to use ISYM=3 instead. This uses symmetry to obtain the         |
|     orbitals at all k-points in the Brillouin zone, but does not apply      |
|     symmetry to the Hartree potential directly. The resultant charge        |
|     might have lower symmetry than the crystal but, at least, Hartree       |
|     and exchange are fully compatible.                                      |
|                                                                             |
 -----------------------------------------------------------------------------

 POTCAR:    PAW_PBE Au 04Oct2007                  
   SHA256 =  d0044ae04e2bdce24051b198fc5c053d722a5bc6fe3c3b100514a13fc5d2db88 Au/POTCAR             
   COPYR  = (c) Copyright 04Oct2007 Georg Kresse                                                    
   COPYR  = This file is part of the software VASP. Any use, copying, and all other rights are regul
   COPYR  = If you do not have a valid VASP license, you may not use, copy or distribute this file. 
   VRHFIN =Au: s1d10                                                                                
   LEXCH  = PE                                                                                      
   EATOM  =   926.0867 eV,   68.0654 Ry                                                             
                                                                                                    
   TITEL  = PAW_PBE Au 04Oct2007                                                                    
   LULTRA =        F    use ultrasoft PP ?                                                          
   IUNSCR =        1    unscreen: 0-lin 1-nonlin 2-no                                               
   RPACOR =    2.330    partial core radius                                                         
   POMASS =  196.966; ZVAL   =   11.000    mass and valenz                                          
   RCORE  =    2.500    outmost cutoff radius                                                       
   RWIGS  =    2.840; RWIGS  =    1.503    wigner-seitz radius (au A)                               
   ENMAX  =  229.943; ENMIN  =  172.457 eV                                                          
   ICORE  =        3    local potential                                                             
   LCOR   =        T    correct aug charges                                                         
   LPAW   =        T    paw PP                                                                      
   EAUG   =  356.670                                                                                
   DEXC   =    0.000                                                                                
   RMAX   =    2.562    core radius for proj-oper                                                   
   RAUG   =    1.300    factor for augmentation sphere                                              
   RDEP   =    2.598    radius for radial grids                                                     
   RDEPT  =    2.193    core radius for aug-charge                                                  
                                                                                                    
   Atomic configuration                                                                             
   16 entries                                                                                       
     n  l   j            E        occ.                                                              
     1  0  0.50    -80748.5001   2.0000                                                             
     2  0  0.50    -14244.7466   2.0000                                                             
     2  1  1.50    -12310.9591   6.0000                                                             
     3  0  0.50     -3362.1768   2.0000                                                             
     3  1  1.50     -2801.5463   6.0000                                                             
     3  2  2.50     -2203.8206  10.0000                                                             
     4  0  0.50      -729.8168   2.0000                                                             
     4  1  1.50      -546.0527   6.0000                                                             
     4  2  2.50      -325.7302  10.0000                                                             
     4  3  3.50       -81.1472  14.0000                                                             
     5  0  0.50      -108.3201   2.0000                                                             
     5  1  1.50       -59.7479   6.0000                                                             
     5  2  2.50        -6.8783  10.0000                                                             
     6  0  0.50        -5.7602   1.0000                                                             
     6  1  1.50        -6.8029   0.0000                                                             
     5  3  2.50        -1.3606   0.0000                                                             
   Description                                                                                      
     l       E           TYP  RCUT    TYP  RCUT                                                     
     2     -6.8782861     23  2.500                                                                 
     2     -8.2388687     23  2.500                                                                 
     0     -5.7601759     23  2.500                                                                 
     0     -0.8493231     23  2.500                                                                 
     1     -2.7211652     23  2.500                                                                 
     1     27.2116520     23  2.500                                                                 
     3     -1.3605826     23  2.500                                                                 
  local pseudopotential read in
  partial core-charges read in
  partial kinetic energy density read in
  atomic valenz-charges read in
  non local Contribution for L=           2  read in
    real space projection operators read in
  non local Contribution for L=           2  read in
    real space projection operators read in
  non local Contribution for L=           0  read in
    real space projection operators read in
  non local Contribution for L=           0  read in
    real space projection operators read in
  non local Contribution for L=           1  read in
    real space projection operators read in
  non local Contribution for L=           1  read in
    real space projection operators read in
    PAW grid and wavefunctions read in

   number of l-projection  operators is LMAX  =           6
   number of lm-projection operators is LMMAX =          18

 -----------------------------------------------------------------------------
|                                                                             |
|               ----> ADVICE to this user running VASP <----                  |
|                                                                             |
|     You have a (more or less) 'small supercell' and for smaller cells       |
|     it is recommended to use the reciprocal-space projection scheme!        |
|     The real-space optimization is not efficient for small cells and it     |
|     is also less accurate ...                                               |
|     Therefore, set LREAL=.FALSE. in the INCAR file.                         |
|                                                                             |
 -----------------------------------------------------------------------------

 Optimization of the real space projectors (new method)

 maximal supplied QI-value         = 15.12
 optimisation between [QCUT,QGAM] = [ 11.64, 23.28] = [ 37.95,151.78] Ry 
 Optimized for a Real-space Cutoff    1.49 Angstroem

   l    n(q)    QCUT    max X(q) W(low)/X(q) W(high)/X(q)  e(spline) 
   2      9    11.641    60.898    0.24E-03    0.10E-03    0.19E-06
   2      9    11.641    58.894    0.25E-03    0.10E-03    0.19E-06
   0     10    11.641   109.617    0.73E-04    0.33E-04    0.11E-06
   0     10    11.641    75.026    0.71E-04    0.32E-04    0.11E-06
   1     10    11.641    16.344    0.27E-04    0.97E-04    0.16E-06
   1     10    11.641    10.160    0.23E-04    0.77E-04    0.13E-06
  PAW_PBE Au 04Oct2007                  :
 energy of atom  1       EATOM= -926.0867
 kinetic energy error for atom=    0.0034 (will be added to EATOM!!)


 POSCAR: au4
  positions in direct lattice
  velocities in cartesian coordinates
 exchange correlation table for  LEXCH =        8
   RHO(1)=    0.500       N(1)  =     2000
   RHO(2)=  100.500       N(2)  =     4000



--------------------------------------------------------------------------------------------------------


 ion  position               nearest neighbor table
   1  0.972  0.107  0.999-   4 2.58   3 2.66
   2  0.960  0.861  0.953-   3 2.51
   3  0.993  0.975  0.992-   2 2.51   4 2.66   1 2.66
   4  0.076  0.057  0.056-   1 2.58   3 2.66

  LATTYP: Found a simple cubic cell.
 ALAT       =    20.0000000000
  
  Lattice vectors:
  
 A1 = (  20.0000000000,   0.0000000000,   0.0000000000)
 A2 = (   0.0000000000,  20.0000000000,   0.0000000000)
 A3 = (   0.0000000000,   0.0000000000,  20.0000000000)


Analysis of symmetry for initial positions (statically):
=====================================================================
 Subroutine PRICEL returns:
 Original cell was already a primitive cell.
 

 Routine SETGRP: Setting up the symmetry group for a 
 simple cubic supercell.


 Subroutine GETGRP returns: Found  1 space group operations
 (whereof  1 operations were pure point group operations)
 out of a pool of 48 trial point group operations.


The static configuration has the point symmetry C_1 .


Analysis of symmetry for dynamics (positions and initial velocities):
=====================================================================
 Subroutine PRICEL returns:
 Original cell was already a primitive cell.
 

 Routine SETGRP: Setting up the symmetry group for a 
 simple cubic supercell.


 Subroutine GETGRP returns: Found  1 space group operations
 (whereof  1 operations were pure point group operations)
 out of a pool of 48 trial point group operations.


The dynamic configuration has the point symmetry C_1 .


 Subroutine INISYM returns: Found  1 space group operations
 (whereof  1 operations are pure point group operations),
 and found     1 'primitive' translations


----------------------------------------------------------------------------------------

                                     Primitive cell                                     

  volume of cell :    8000.0000

  direct lattice vectors                    reciprocal lattice vectors
    20.000000000  0.000000000  0.000000000     0.050000000  0.000000000  0.000000000
     0.000000000 20.000000000  0.000000000     0.000000000  0.050000000  0.000000000
     0.000000000  0.000000000 20.000000000     0.000000000  0.000000000  0.050000000

  length of vectors
    20.000000000 20.000000000 20.000000000     0.050000000  0.050000000  0.050000000

  position of ions in fractional coordinates (direct lattice)
     0.971513168  0.106654628  0.999023488
     0.959562945  0.860818041  0.953391080
     0.992833549  0.975340255  0.991717852
     0.076090339  0.057187077  0.055867579

  ion indices of the primitive-cell ions
   primitive index   ion index
                 1           1
                 2           2
                 3           3
                 4           4

----------------------------------------------------------------------------------------



 KPOINTS: KPOINTS created by Atomic Simulation Env

Automatic generation of k-mesh.
 Grid dimensions read from file:
 generate k-points for:    1    1    1

 Generating k-lattice:

  Cartesian coordinates                     Fractional coordinates (reciprocal lattice)
     0.050000000  0.000000000  0.000000000     1.000000000  0.000000000  0.000000000
     0.000000000  0.050000000  0.000000000     0.000000000  1.000000000  0.000000000
     0.000000000  0.000000000  0.050000000     0.000000000  0.000000000  1.000000000

  Length of vectors
     0.050000000  0.050000000  0.050000000

  Shift w.r.t. Gamma in fractional coordinates (k-lattice)
     0.000000000  0.000000000  0.000000000

 
 Subroutine IBZKPT returns following result:
 ===========================================
 
 Found      1 irreducible k-points:
 
 Following reciprocal coordinates:
            Coordinates               Weight
  0.000000  0.000000  0.000000      1.000000
 
 Following cartesian coordinates:
            Coordinates               Weight
  0.000000  0.000000  0.000000      1.000000
 
 
 Subroutine IBZKPT_HF returns following result:
 ==============================================
 
 Found      1 k-points in 1st BZ
 the following      1 k-points will be used (e.g. in the exchange kernel)
 Following reciprocal coordinates:   # in IRBZ
  0.000000  0.000000  0.000000    1.00000000   1 t-inv F


--------------------------------------------------------------------------------------------------------




 Dimension of arrays:
   k-points           NKPTS =      1   k-points in BZ     NKDIM =      1   number of bands    NBANDS=     96
   number of dos      NEDOS =    301   number of ions     NIONS =      4
   non local maximal  LDIM  =      6   non local SUM 2l+1 LMDIM =     18
   total plane-waves  NPLWV = ******
   max r-space proj   IRMAX =   5885   max aug-charges    IRDMAX=  25995
   dimension x,y,z NGX =   150 NGY =  150 NGZ =  150
   dimension x,y,z NGXF=   300 NGYF=  300 NGZF=  300
   support grid    NGXF=   300 NGYF=  300 NGZF=  300
   ions per type =               4
   NGX,Y,Z   is equivalent  to a cutoff of  12.47, 12.47, 12.47 a.u.
   NGXF,Y,Z  is equivalent  to a cutoff of  24.94, 24.94, 24.94 a.u.

 SYSTEM =  MgO-rocksalt                            
 POSCAR =  au4                                     

 Startparameter for this run:
   NWRITE =      2    write-flag & timer
   PREC   = accura    normal or accurate (medium, high low for compatibility)
   ISTART =      0    job   : 0-new  1-cont  2-samecut
   ICHARG =      2    charge: 1-file 2-atom 10-const
   ISPIN  =      1    spin polarized calculation?
   LNONCOLLINEAR =      F non collinear calculations
   LSORBIT =      F    spin-orbit coupling
   INIWAV =      1    electr: 0-lowe 1-rand  2-diag
   LASPH  =      T    aspherical Exc in radial PAW
 Electronic Relaxation 1
   ENCUT  =  520.0 eV  38.22 Ry    6.18 a.u.  37.19 37.19 37.19*2*pi/ulx,y,z
   ENINI  =  520.0     initial cutoff
   ENAUG  =  356.7 eV  augmentation charge cutoff
   NELM   =    200;   NELMIN=  8; NELMDL= -5     # of ELM steps 
   EDIFF  = 0.1E-05   stopping-criterion for ELM
   LREAL  =      T    real-space projection
   NLSPLINE    = F    spline interpolate recip. space projectors
   LCOMPAT=      F    compatible to vasp.4.4
   GGA_COMPAT  = T    GGA compatible to vasp.4.4-vasp.4.6
   LMAXPAW     = -100 max onsite density
   LMAXMIX     =    2 max onsite mixed and CHGCAR
   VOSKOWN=      0    Vosko Wilk Nusair interpolation
   ROPT   =   -0.00025
 Ionic relaxation
   EDIFFG = 0.1E-04   stopping-criterion for IOM
   NSW    =      0    number of steps for IOM
   NBLOCK =      1;   KBLOCK =      1    inner block; outer block 
   IBRION =     -1    ionic relax: 0-MD 1-quasi-New 2-CG
   NFREE  =      0    steps in history (QN), initial steepest desc. (CG)
   ISIF   =      0    stress and relaxation
   IWAVPR =     10    prediction:  0-non 1-charg 2-wave 3-comb
   ISYM   =      2    0-nonsym 1-usesym 2-fastsym
   LCORR  =      T    Harris-Foulkes like correction to forces

   POTIM  = 0.5000    time-step for ionic-motion
   TEIN   =    0.0    initial temperature
   TEBEG  =    0.0;   TEEND  =   0.0 temperature during run
   SMASS  =  -3.00    Nose mass-parameter (am)
   estimated Nose-frequenzy (Omega)   =  0.10E-29 period in steps = 0.13E+47 mass=  -0.914E-26a.u.
   SCALEE = 1.0000    scale energy and forces
   NPACO  =    256;   APACO  = 10.0  distance and # of slots for P.C.
   PSTRESS=    0.0 pullay stress

  Mass of Ions in am
   POMASS = 196.97
  Ionic Valenz
   ZVAL   =  11.00
  Atomic Wigner-Seitz radii
   RWIGS  =  -1.00
  virtual crystal weights 
   VCA    =   1.00
   NELECT =      44.0000    total number of electrons
   NUPDOWN=      -1.0000    fix difference up-down

 DOS related values:
   EMIN   =  10.00;   EMAX   =-10.00  energy-range for DOS
   EFERMI =   0.00
   ISMEAR =     0;   SIGMA  =   0.05  broadening in eV -4-tet -1-fermi 0-gaus

 Electronic relaxation 2 (details)
   IALGO  =     58    algorithm
   LDIAG  =      T    sub-space diagonalisation (order eigenvalues)
   LSUBROT=      F    optimize rotation matrix (better conditioning)
   TURBO    =      0    0=normal 1=particle mesh
   IRESTART =      0    0=no restart 2=restart with 2 vectors
   NREBOOT  =      0    no. of reboots
   NMIN     =      0    reboot dimension
   EREF     =   0.00    reference energy to select bands
   IMIX   =      4    mixing-type and parameters
     AMIX     =   0.40;   BMIX     =  1.00
     AMIX_MAG =   1.60;   BMIX_MAG =  1.00
     AMIN     =   0.10
     WC   =   100.;   INIMIX=   1;  MIXPRE=   1;  MAXMIX= -45

 Intra band minimization:
   WEIMIN = 0.0000     energy-eigenvalue tresh-hold
   EBREAK =  0.26E-08  absolut break condition
   DEPER  =   0.30     relativ break condition  

   TIME   =   0.40     timestep for ELM

  volume/ion in A,a.u.               =    2000.00     13496.67
  Fermi-wavevector in a.u.,A,eV,Ry     =   0.288976  0.546086  1.136187  0.083507
  Thomas-Fermi vector in A             =   1.146265

 Write flags
   LWAVE        =      F    write WAVECAR
   LDOWNSAMPLE  =      F    k-point downsampling of WAVECAR
   LCHARG       =      F    write CHGCAR
   LVTOT        =      F    write LOCPOT, total local potential
   LVHAR        =      F    write LOCPOT, Hartree potential only
   LELF         =      F    write electronic localiz. function (ELF)
   LORBIT       =      0    0 simple, 1 ext, 2 COOP (PROOUT), +10 PAW based schemes


 Dipole corrections
   LMONO  =      F    monopole corrections only (constant potential shift)
   LDIPOL =      F    correct potential (dipole corrections)
   IDIPOL =      0    1-x, 2-y, 3-z, 4-all directions 
   EPSILON=  1.0000000 bulk dielectric constant

 Exchange correlation treatment:
   GGA     =    PE    GGA type
   LEXCH   =     8    internal setting for exchange type
   LIBXC   =     F    Libxc                    
   VOSKOWN =     0    Vosko Wilk Nusair interpolation
   EXXOEP  =     0    0=HF, 1=EXX-LHF (local Hartree Fock) 2=EXX OEP
   LHFCALC =     T    Hartree Fock is set to
   LSYMGRAD=     F    symmetrize gradient (conserves proper symmetry)
   PRECFOCK=normal    Normal, Fast or Accurate (Low or Medium for compatibility)
   LRHFCALC=     F    long range Hartree Fock
   LRSCOR  =     F    long range correlation only (use DFT for short range part)
   LTHOMAS =     F    Thomas Fermi screening in HF
   LMODELHF=     F    short range full HF, long range fraction AEXX
   LFOCKACE=     T    use Adeptively-Compressed-Exchange operator
   ENCUT4O =  -1.0   cutoff for four orbital integrals eV
   LMAXFOCK=     4    L truncation for augmentation on plane wave grid
   LMAXFOCKAE=  -1    L truncation for all-electron charge restoration on plane wave grid
   NMAXFOCKAE=   1    number of basis functions for all-electron charge restoration
   LFOCKAEDFT=     F  apply the AE augmentation even for DFT
   NKREDX  =     1    reduce k-point grid by
   NKREDY  =     1    reduce k-point grid by
   NKREDZ  =     1    reduce k-point grid by
   SHIFTRED=     F    shift reduced grid of Gamma
   HFKIDENT=     F    idential grid for each k-point
   ODDONLY =     F    use only odd q-grid points
   EVENONLY=     F    use only even q-grid points
   HFALPHA =   -1.0000 decay constant for conv. correction
   MCALPHA =    0.0000 extent of test-charge in conv. correction in multipole expansion
   AEXX    =    0.2500 exact exchange contribution
   HFSCREEN=    0.2000 screening length (either q_TF or 0.3 A-1)
   HFSCREENC=   0.2000 screening length for correlation (either q_TF or 0.3 A-1)
   HFRCUT  =    0.0000 spherical cutoff for potential kernel
   ALDAX   =    0.7500 LDA exchange part
   AGGAX   =    0.7500 GGA exchange part
   ALDAC   =    1.0000 LDA correlation
   AGGAC   =    1.0000 GGA correlation
   ENCUTFOCK=  -1.0 apply spherical cutoff to Coloumb kernel
   NBANDSGWLOW=     1    first orbital included in HF term
   NBLOCK_FOCK=    64    blocking factor in FOCK_ACC

 Linear response parameters
   LEPSILON=     F    determine dielectric tensor
   LRPA    =     F    only Hartree local field effects (RPA)
   LNABLA  =     F    use nabla operator in PAW spheres
   LVEL    =     F    velocity operator in full k-point grid
   CSHIFT  =0.1000    complex shift for real part using Kramers Kronig
   OMEGAMAX=  -1.0    maximum frequency
   DEG_THRESHOLD= 0.2000000E-02 threshold for treating states as degnerate
   RTIME   =   -0.100 relaxation time in fs
  (WPLASMAI=    0.000 imaginary part of plasma frequency in eV, 0.658/RTIME)
   DFIELD  = 0.0000000 0.0000000 0.0000000 field for delta impulse in time

  Optional k-point grid parameters
   LKPOINTS_OPT  =     F    use optional k-point grid
   KPOINTS_OPT_MODE=     1    mode for optional k-point grid

 Orbital magnetization related:
   ORBITALMAG=     F  switch on orbital magnetization
   LCHIMAG   =     F  perturbation theory with respect to B field
   DQ        =  0.001000  dq finite difference perturbation B field
   LLRAUG    =     F  two centre corrections for induced B field



--------------------------------------------------------------------------------------------------------


 Static calculation
 charge density and potential will be updated during run
 non-spin polarized calculation
 Conjugate gradient for all bands (Freysoldt, et al. PRB 79, 241103 (2009))
 preconditioned conjugated gradient                                        
 perform sub-space diagonalisation
    before iterative eigenvector-optimisation
 modified Broyden-mixing scheme, WC =      100.0
 initial mixing is a Kerker type mixing with AMIX =  0.4000 and BMIX =      1.0000
 Hartree-type preconditioning will be used
 using additional bands           74
 real space projection scheme for non local part
 use partial core corrections
 no Harris-corrections to forces 
 use gradient corrections 
 use of overlap-Matrix (Vanderbilt PP)
 Gauss-broadening in eV      SIGMA  =   0.05


--------------------------------------------------------------------------------------------------------


  energy-cutoff  :      520.00
  volume of cell :     8000.00
      direct lattice vectors                 reciprocal lattice vectors
    20.000000000  0.000000000  0.000000000     0.050000000  0.000000000  0.000000000
     0.000000000 20.000000000  0.000000000     0.000000000  0.050000000  0.000000000
     0.000000000  0.000000000 20.000000000     0.000000000  0.000000000  0.050000000

  length of vectors
    20.000000000 20.000000000 20.000000000     0.050000000  0.050000000  0.050000000



 k-points in units of 2pi/SCALE and weight: KPOINTS created by Atomic Simulation Env
   0.00000000  0.00000000  0.00000000       1.000

 k-points in reciprocal lattice and weights: KPOINTS created by Atomic Simulation Env
   0.00000000  0.00000000  0.00000000       1.000

 position of ions in fractional coordinates (direct lattice) 
   0.97151317  0.10665463  0.99902349
   0.95956294  0.86081804  0.95339108
   0.99283355  0.97534025  0.99171785
   0.07609034  0.05718708  0.05586758

 position of ions in cartesian coordinates  (Angst):
  19.43026335  2.13309255 19.98046977
  19.19125889 17.21636081 19.06782160
  19.85667098 19.50680509 19.83435705
   1.52180678  1.14374154  1.11735158



--------------------------------------------------------------------------------------------------------


 k-point   1 :   0.0000 0.0000 0.0000  plane waves:  215503

 maximum and minimum number of plane-waves per node :     53900    53857

 maximum number of plane-waves:    215503
 maximum index in each direction: 
   IXMAX=   37   IYMAX=   37   IZMAX=   37
   IXMIN=  -37   IYMIN=  -37   IZMIN=  -37


 real space projection operators:
  total allocation   :       3184.03 KBytes
  max/ min on nodes  :        877.64        717.61


 parallel 3D FFT for wavefunctions:
    minimum data exchange during FFTs selected (reduces bandwidth)
 parallel 3D FFT for charge:
    minimum data exchange during FFTs selected (reduces bandwidth)


 FFT grid for exact exchange (Hartree Fock) 
  NGX =112; NGY =112; NGZ =112


 Radii for the augmentation spheres in the non-local exchange
 for species   1 augmentation radius   1.512 (default was   1.210)
       energy cutoff for augmentation   2080.0

 real space projection operators:
  total allocation   :       1985.74 KBytes
  max/ min on nodes  :        501.56        488.67

 Maximum index for augmentation-charges in exchange          635
  SETUP_FOCK is finished

 total amount of memory used by VASP MPI-rank0   122549. kBytes
=======================================================================

   base      :      30000. kBytes
   nonlr-proj:       2257. kBytes
   fftplans  :      48991. kBytes
   grid      :      38630. kBytes
   one-center:         15. kBytes
   HF        :         64. kBytes
   wavefun   :       2592. kBytes

     INWAV:  cpu time      0.0000: real time      0.0000
 Broyden mixing: mesh for mixing (old mesh)
   NGX = 75   NGY = 75   NGZ = 75
  (NGX  =300   NGY  =300   NGZ  =300)
  gives a total of 421875 points

 initial charge density was supplied:
 charge density of overlapping atoms calculated
 number of electron      44.0000000 magnetization 
 keeping initial charge density in first step


--------------------------------------------------------------------------------------------------------


 Maximum index for non-local projection operator         1633
 Maximum index for augmentation-charges         1022 (set IRDMAX)


--------------------------------------------------------------------------------------------------------


 First call to EWALD:  gamma=   0.089
 Maximum number of real-space cells 3x 3x 3
 Maximum number of reciprocal cells 3x 3x 3

    FEWALD:  cpu time      0.0014: real time      0.0014


--------------------------------------- Iteration      1(   1)  ---------------------------------------


    POTLOK:  cpu time      0.1185: real time      0.1186
    SETDIJ:  cpu time      0.1828: real time      0.1829
    TRIAL :  cpu time      0.5462: real time      0.5465
    CORREC:  cpu time      0.0015: real time      0.0015
    --------------------------------------------
      LOOP:  cpu time      0.8502: real time      0.8507

 eigenvalue-minimisations  :   192
 total energy-change (2. order) :-0.9131623E+04  (-0.9684393E+03)
 number of electron      44.0000000 magnetization 
 augmentation part       44.0000000 magnetization 

 Free energy of the ion-electron system (eV)
  ---------------------------------------------------
  alpha Z        PSCENC =         2.32959210
  Ewald energy   TEWEN  =      1433.62714800
  -Hartree energ DENC   =     -4980.45595042
  -exchange      EXHF   =         0.00000000
  -V(xc)+E(xc)   XCENC  =        57.06399068
  PAW double counting   =      3496.39001341   -12813.86011352
  entropy T*S    EENTRO =        -0.06629707
  eigenvalues    EBANDS =       -30.33230160
  atomic energy  EATOM  =      3703.68095235
  ---------------------------------------------------
  free energy    TOTEN  =     -9131.62296607 eV

  energy without entropy =    -9131.55666900  energy(sigma->0) =    -9131.58981754
  exchange ACFDT corr.  =         0.00000000  see jH, gK, PRB 81, 115126


--------------------------------------------------------------------------------------------------------




--------------------------------------- Iteration      1(   2)  ---------------------------------------


    TRIAL :  cpu time      1.9094: real time      1.9096
    CORREC:  cpu time      0.0003: real time      0.0003
    --------------------------------------------
      LOOP:  cpu time      1.9114: real time      1.9170

 eigenvalue-minimisations  :   384
 total energy-change (2. order) :-0.4060919E+03  (-0.4042052E+03)
 number of electron      44.0000000 magnetization 
 augmentation part       44.0000000 magnetization 

 Free energy of the ion-electron system (eV)
  ---------------------------------------------------
  alpha Z        PSCENC =         2.32959210
  Ewald energy   TEWEN  =      1433.62714800
  -Hartree energ DENC   =     -4980.45595042
  -exchange      EXHF   =         0.00000000
  -V(xc)+E(xc)   XCENC  =        57.06399068
  PAW double counting   =      3496.39001341   -12813.86011352
  entropy T*S    EENTRO =        -0.00000000
  eigenvalues    EBANDS =      -436.49054657
  atomic energy  EATOM  =      3703.68095235
  ---------------------------------------------------
  free energy    TOTEN  =     -9537.71491398 eV

  energy without entropy =    -9537.71491398  energy(sigma->0) =    -9537.71491398
  exchange ACFDT corr.  =         0.00000000  see jH, gK, PRB 81, 115126


--------------------------------------------------------------------------------------------------------




--------------------------------------- Iteration      1(   3)  ---------------------------------------


    TRIAL :  cpu time      0.5398: real time      0.5399
    CORREC:  cpu time      0.0003: real time      0.0003
    --------------------------------------------
      LOOP:  cpu time      0.5430: real time      0.5472

 eigenvalue-minimisations  :   192
 total energy-change (2. order) :-0.9893098E+01  (-0.9893040E+01)
 number of electron      44.0000000 magnetization 
 augmentation part       44.0000000 magnetization 

 Free energy of the ion-electron system (eV)
  ---------------------------------------------------
  alpha Z        PSCENC =         2.32959210
  Ewald energy   TEWEN  =      1433.62714800
  -Hartree energ DENC   =     -4980.45595042
  -exchange      EXHF   =         0.00000000
  -V(xc)+E(xc)   XCENC  =        57.06399068
  PAW double counting   =      3496.39001341   -12813.86011352
  entropy T*S    EENTRO =        -0.00000000
  eigenvalues    EBANDS =      -446.38364424
  atomic energy  EATOM  =      3703.68095235
  ---------------------------------------------------
  free energy    TOTEN  =     -9547.60801164 eV

  energy without entropy =    -9547.60801164  energy(sigma->0) =    -9547.60801164
  exchange ACFDT corr.  =         0.00000000  see jH, gK, PRB 81, 115126


--------------------------------------------------------------------------------------------------------




--------------------------------------- Iteration      1(   4)  ---------------------------------------


    TRIAL :  cpu time      1.8226: real time      1.8227
    CORREC:  cpu time      0.0003: real time      0.0003
    --------------------------------------------
      LOOP:  cpu time      1.8296: real time      1.8300

 eigenvalue-minimisations  :   384
 total energy-change (2. order) :-0.5448850E-01  (-0.5448779E-01)
 number of electron      44.0000000 magnetization 
 augmentation part       44.0000000 magnetization 

 Free energy of the ion-electron system (eV)
  ---------------------------------------------------
  alpha Z        PSCENC =         2.32959210
  Ewald energy   TEWEN  =      1433.62714800
  -Hartree energ DENC   =     -4980.45595042
  -exchange      EXHF   =         0.00000000
  -V(xc)+E(xc)   XCENC  =        57.06399068
  PAW double counting   =      3496.39001341   -12813.86011352
  entropy T*S    EENTRO =        -0.00000000
  eigenvalues    EBANDS =      -446.43813274
  atomic energy  EATOM  =      3703.68095235
  ---------------------------------------------------
  free energy    TOTEN  =     -9547.66250014 eV

  energy without entropy =    -9547.66250014  energy(sigma->0) =    -9547.66250014
  exchange ACFDT corr.  =         0.00000000  see jH, gK, PRB 81, 115126


--------------------------------------------------------------------------------------------------------




--------------------------------------- Iteration      1(   5)  ---------------------------------------


    POTLOK:  cpu time      0.1984: real time      0.1984
    SETDIJ:  cpu time      0.5274: real time      0.5274
    TRIAL :  cpu time      8.1942: real time      8.1984
    CORREC:  cpu time      0.0003: real time      0.0003
    CHARGE:  cpu time      0.0994: real time      0.0997
    --------------------------------------------
      LOOP:  cpu time      9.0225: real time      9.0315

 eigenvalue-minimisations  :   192
 total energy-change (2. order) : 0.9539839E+04  (-0.4360535E+01)
 number of electron      44.0000003 magnetization 
 augmentation part       16.6503869 magnetization 

 Free energy of the ion-electron system (eV)
  ---------------------------------------------------
  alpha Z        PSCENC =         2.32959210
  Ewald energy   TEWEN  =      1433.62714800
  -Hartree energ DENC   =     -4980.45595042
  -exchange      EXHF   =        86.74346993
  -V(xc)+E(xc)   XCENC  =        40.69507862
  PAW double counting   =      3512.22494776    -3422.06680400
  entropy T*S    EENTRO =        -0.00000000
  eigenvalues    EBANDS =      -384.60229938
  atomic energy  EATOM  =      3703.68095235
  ---------------------------------------------------
  free energy    TOTEN  =        -7.82386503 eV

  energy without entropy =       -7.82386503  energy(sigma->0) =       -7.82386503
  exchange ACFDT corr.  =        -0.00000000  see jH, gK, PRB 81, 115126


--------------------------------------------------------------------------------------------------------




--------------------------------------- Iteration      1(   6)  ---------------------------------------


    POTLOK:  cpu time      0.2212: real time      0.2212
    SETDIJ:  cpu time      0.5294: real time      0.5294
    TRIAL :  cpu time      9.1506: real time      9.1561
    CORREC:  cpu time      8.6830: real time      8.6884
    CHARGE:  cpu time      0.0934: real time      0.0937
    --------------------------------------------
      LOOP:  cpu time     18.6812: real time     18.6972

 eigenvalue-minimisations  :     0
 total energy-change (2. order) : 0.1502414E+01  (-0.9739091E+00)
 number of electron      44.0000003 magnetization 
 augmentation part       16.4143631 magnetization 

 Free energy of the ion-electron system (eV)
  ---------------------------------------------------
  alpha Z        PSCENC =         2.32959210
  Ewald energy   TEWEN  =      1433.62714800
  -Hartree energ DENC   =     -5054.99418256
  -exchange      EXHF   =        82.40747017
  -V(xc)+E(xc)   XCENC  =        41.65795314
  PAW double counting   =      4251.65739294    -4165.87595891
  entropy T*S    EENTRO =        -0.00000000
  eigenvalues    EBANDS =      -300.81181864
  atomic energy  EATOM  =      3703.68095235
  ---------------------------------------------------
  free energy    TOTEN  =        -6.32145141 eV

  energy without entropy =       -6.32145141  energy(sigma->0) =       -6.32145141
  exchange ACFDT corr.  =        -0.00000000  see jH, gK, PRB 81, 115126


--------------------------------------------------------------------------------------------------------




--------------------------------------- Iteration      1(   7)  ---------------------------------------


    POTLOK:  cpu time      0.2275: real time      0.2276
    SETDIJ:  cpu time      0.5258: real time      0.5258
    TRIAL :  cpu time      8.0785: real time      8.0835
    CORREC:  cpu time      8.7427: real time      8.7482
    CHARGE:  cpu time      0.0951: real time      0.0953
    --------------------------------------------
      LOOP:  cpu time     17.6771: real time     17.6881

 eigenvalue-minimisations  :     0
 total energy-change (2. order) :-0.9778441E+00  (-0.2024581E+00)
 number of electron      44.0000003 magnetization 
 augmentation part       16.4825809 magnetization 

 Free energy of the ion-electron system (eV)
  ---------------------------------------------------
  alpha Z        PSCENC =         2.32959210
  Ewald energy   TEWEN  =      1433.62714800
  -Hartree energ DENC   =     -4993.22962322
  -exchange      EXHF   =        81.31193922
  -V(xc)+E(xc)   XCENC  =        40.58327454
  PAW double counting   =      4169.41378900    -4083.93930050
  entropy T*S    EENTRO =        -0.00000000
  eigenvalues    EBANDS =      -361.07706698
  atomic energy  EATOM  =      3703.68095235
  ---------------------------------------------------
  free energy    TOTEN  =        -7.29929551 eV

  energy without entropy =       -7.29929551  energy(sigma->0) =       -7.29929551
  exchange ACFDT corr.  =        -0.00000000  see jH, gK, PRB 81, 115126


--------------------------------------------------------------------------------------------------------




--------------------------------------- Iteration      1(   8)  ---------------------------------------


    POTLOK:  cpu time      0.2175: real time      0.2175
    SETDIJ:  cpu time      0.5352: real time      0.5352
    TRIAL :  cpu time      7.8925: real time      7.8976
    CORREC:  cpu time      8.6354: real time      8.6402
    CHARGE:  cpu time      0.0943: real time      0.0946
    --------------------------------------------
      LOOP:  cpu time     17.3825: real time     17.3931

 eigenvalue-minimisations  :     0
 total energy-change (2. order) :-0.2017075E+00  (-0.6642636E-01)
 number of electron      44.0000003 magnetization 
 augmentation part       16.4484386 magnetization 

 Free energy of the ion-electron system (eV)
  ---------------------------------------------------
  alpha Z        PSCENC =         2.32959210
  Ewald energy   TEWEN  =      1433.62714800
  -Hartree energ DENC   =     -4998.85758580
  -exchange      EXHF   =        81.55291521
  -V(xc)+E(xc)   XCENC  =        40.84823739
  PAW double counting   =      4181.35726215    -4095.69963431
  entropy T*S    EENTRO =        -0.00000000
  eigenvalues    EBANDS =      -356.33989007
  atomic energy  EATOM  =      3703.68095235
  ---------------------------------------------------
  free energy    TOTEN  =        -7.50100298 eV

  energy without entropy =       -7.50100298  energy(sigma->0) =       -7.50100298
  exchange ACFDT corr.  =        -0.00000000  see jH, gK, PRB 81, 115126


--------------------------------------------------------------------------------------------------------




--------------------------------------- Iteration      1(   9)  ---------------------------------------


    POTLOK:  cpu time      0.2192: real time      0.2192
    SETDIJ:  cpu time      0.5326: real time      0.5326
    TRIAL :  cpu time      7.9287: real time      7.9334
    CORREC:  cpu time      8.5928: real time      8.5981
    CHARGE:  cpu time      0.0950: real time      0.0953
    --------------------------------------------
      LOOP:  cpu time     17.3713: real time     17.3865

 eigenvalue-minimisations  :     0
 total energy-change (2. order) :-0.6527034E-01  (-0.1276886E-01)
 number of electron      44.0000003 magnetization 
 augmentation part       16.4488197 magnetization 

 Free energy of the ion-electron system (eV)
  ---------------------------------------------------
  alpha Z        PSCENC =         2.32959210
  Ewald energy   TEWEN  =      1433.62714800
  -Hartree energ DENC   =     -4996.26409545
  -exchange      EXHF   =        81.43820243
  -V(xc)+E(xc)   XCENC  =        40.74603198
  PAW double counting   =      4187.61630356    -4102.11538315
  entropy T*S    EENTRO =        -0.00000000
  eigenvalues    EBANDS =      -358.62502514
  atomic energy  EATOM  =      3703.68095235
  ---------------------------------------------------
  free energy    TOTEN  =        -7.56627331 eV

  energy without entropy =       -7.56627331  energy(sigma->0) =       -7.56627331
  exchange ACFDT corr.  =        -0.00000000  see jH, gK, PRB 81, 115126


--------------------------------------------------------------------------------------------------------




--------------------------------------- Iteration      1(  10)  ---------------------------------------


    POTLOK:  cpu time      0.2190: real time      0.2190
    SETDIJ:  cpu time      0.5323: real time      0.5324
    TRIAL :  cpu time      8.0126: real time      8.0177
    CORREC:  cpu time      8.7725: real time      8.7779
    CHARGE:  cpu time      0.0952: real time      0.0955
    --------------------------------------------
      LOOP:  cpu time     17.6394: real time     17.6506

 eigenvalue-minimisations  :     0
 total energy-change (2. order) :-0.1277530E-01  (-0.3530674E-02)
 number of electron      44.0000003 magnetization 
 augmentation part       16.4595510 magnetization 

 Free energy of the ion-electron system (eV)
  ---------------------------------------------------
  alpha Z        PSCENC =         2.32959210
  Ewald energy   TEWEN  =      1433.62714800
  -Hartree energ DENC   =     -4994.04163152
  -exchange      EXHF   =        81.39773495
  -V(xc)+E(xc)   XCENC  =        40.70580866
  PAW double counting   =      4192.30368785    -4106.78681354
  entropy T*S    EENTRO =        -0.00000000
  eigenvalues    EBANDS =      -360.79552747
  atomic energy  EATOM  =      3703.68095235
  ---------------------------------------------------
  free energy    TOTEN  =        -7.57904862 eV

  energy without entropy =       -7.57904862  energy(sigma->0) =       -7.57904862
  exchange ACFDT corr.  =        -0.00000000  see jH, gK, PRB 81, 115126


--------------------------------------------------------------------------------------------------------




--------------------------------------- Iteration      1(  11)  ---------------------------------------


    POTLOK:  cpu time      0.2077: real time      0.2077
    SETDIJ:  cpu time      0.5352: real time      0.5352
    TRIAL :  cpu time      7.9295: real time      7.9344
    CORREC:  cpu time      8.7806: real time      8.7862
    CHARGE:  cpu time      0.0942: real time      0.0945
    --------------------------------------------
      LOOP:  cpu time     17.5546: real time     17.5660

 eigenvalue-minimisations  :     0
 total energy-change (2. order) :-0.3527987E-02  (-0.1262607E-02)
 number of electron      44.0000003 magnetization 
 augmentation part       16.4552201 magnetization 

 Free energy of the ion-electron system (eV)
  ---------------------------------------------------
  alpha Z        PSCENC =         2.32959210
  Ewald energy   TEWEN  =      1433.62714800
  -Hartree energ DENC   =     -4994.92503874
  -exchange      EXHF   =        81.41911189
  -V(xc)+E(xc)   XCENC  =        40.72924303
  PAW double counting   =      4196.75523511    -4111.20595573
  entropy T*S    EENTRO =        -0.00000000
  eigenvalues    EBANDS =      -359.99286463
  atomic energy  EATOM  =      3703.68095235
  ---------------------------------------------------
  free energy    TOTEN  =        -7.58257660 eV

  energy without entropy =       -7.58257660  energy(sigma->0) =       -7.58257660
  exchange ACFDT corr.  =        -0.00000000  see jH, gK, PRB 81, 115126


--------------------------------------------------------------------------------------------------------




--------------------------------------- Iteration      1(  12)  ---------------------------------------


    POTLOK:  cpu time      0.1989: real time      0.1990
    SETDIJ:  cpu time      0.5301: real time      0.5302
    TRIAL :  cpu time      7.8856: real time      7.8909
    CORREC:  cpu time      8.6614: real time      8.6663
    CHARGE:  cpu time      0.0946: real time      0.0948
    --------------------------------------------
      LOOP:  cpu time     17.3783: real time     17.3891

 eigenvalue-minimisations  :     0
 total energy-change (2. order) :-0.1264018E-02  (-0.3581663E-03)
 number of electron      44.0000003 magnetization 
 augmentation part       16.4560688 magnetization 

 Free energy of the ion-electron system (eV)
  ---------------------------------------------------
  alpha Z        PSCENC =         2.32959210
  Ewald energy   TEWEN  =      1433.62714800
  -Hartree energ DENC   =     -4994.09463270
  -exchange      EXHF   =        81.39950623
  -V(xc)+E(xc)   XCENC  =        40.71129359
  PAW double counting   =      4196.92288571    -4111.38729779
  entropy T*S    EENTRO =        -0.00000000
  eigenvalues    EBANDS =      -360.77328811
  atomic energy  EATOM  =      3703.68095235
  ---------------------------------------------------
  free energy    TOTEN  =        -7.58384062 eV

  energy without entropy =       -7.58384062  energy(sigma->0) =       -7.58384062
  exchange ACFDT corr.  =        -0.00000000  see jH, gK, PRB 81, 115126


--------------------------------------------------------------------------------------------------------




--------------------------------------- Iteration      1(  13)  ---------------------------------------


    POTLOK:  cpu time      0.1937: real time      0.1937
    SETDIJ:  cpu time      0.5285: real time      0.5285
    TRIAL :  cpu time      7.9793: real time      7.9839
    CORREC:  cpu time      8.6564: real time      8.6615
    CHARGE:  cpu time      0.0950: real time      0.0952
    --------------------------------------------
      LOOP:  cpu time     17.4548: real time     17.4706

 eigenvalue-minimisations  :     0
 total energy-change (2. order) :-0.3577060E-03  (-0.8754048E-04)
 number of electron      44.0000003 magnetization 
 augmentation part       16.4558742 magnetization 

 Free energy of the ion-electron system (eV)
  ---------------------------------------------------
  alpha Z        PSCENC =         2.32959210
  Ewald energy   TEWEN  =      1433.62714800
  -Hartree energ DENC   =     -4994.25276473
  -exchange      EXHF   =        81.40250599
  -V(xc)+E(xc)   XCENC  =        40.71460258
  PAW double counting   =      4197.73011915    -4112.19150921
  entropy T*S    EENTRO =        -0.00000000
  eigenvalues    EBANDS =      -360.62484456
  atomic energy  EATOM  =      3703.68095235
  ---------------------------------------------------
  free energy    TOTEN  =        -7.58419833 eV

  energy without entropy =       -7.58419833  energy(sigma->0) =       -7.58419833
  exchange ACFDT corr.  =        -0.00000000  see jH, gK, PRB 81, 115126


--------------------------------------------------------------------------------------------------------




--------------------------------------- Iteration      1(  14)  ---------------------------------------


    POTLOK:  cpu time      0.1878: real time      0.1879
    SETDIJ:  cpu time      0.5314: real time      0.5314
    TRIAL :  cpu time      8.0035: real time      8.0083
    CORREC:  cpu time      8.6692: real time      8.6744
    CHARGE:  cpu time      0.0937: real time      0.0939
    --------------------------------------------
      LOOP:  cpu time     17.4887: real time     17.5040

 eigenvalue-minimisations  :     0
 total energy-change (2. order) :-0.8767775E-04  (-0.2057327E-04)
 number of electron      44.0000003 magnetization 
 augmentation part       16.4562014 magnetization 

 Free energy of the ion-electron system (eV)
  ---------------------------------------------------
  alpha Z        PSCENC =         2.32959210
  Ewald energy   TEWEN  =      1433.62714800
  -Hartree energ DENC   =     -4994.10883275
  -exchange      EXHF   =        81.40055329
  -V(xc)+E(xc)   XCENC  =        40.71255252
  PAW double counting   =      4197.76871340    -4112.22876589
  entropy T*S    EENTRO =        -0.00000000
  eigenvalues    EBANDS =      -360.76619902
  atomic energy  EATOM  =      3703.68095235
  ---------------------------------------------------
  free energy    TOTEN  =        -7.58428601 eV

  energy without entropy =       -7.58428601  energy(sigma->0) =       -7.58428601
  exchange ACFDT corr.  =        -0.00000000  see jH, gK, PRB 81, 115126


--------------------------------------------------------------------------------------------------------




--------------------------------------- Iteration      1(  15)  ---------------------------------------


    POTLOK:  cpu time      0.1880: real time      0.1880
    SETDIJ:  cpu time      0.5352: real time      0.5353
    TRIAL :  cpu time      8.0007: real time      8.0050
    CORREC:  cpu time      8.7100: real time      8.7156
    CHARGE:  cpu time      0.0940: real time      0.0943
    --------------------------------------------
      LOOP:  cpu time     17.5329: real time     17.5460

 eigenvalue-minimisations  :     0
 total energy-change (2. order) :-0.2045716E-04  (-0.4881985E-05)
 number of electron      44.0000003 magnetization 
 augmentation part       16.4560316 magnetization 

 Free energy of the ion-electron system (eV)
  ---------------------------------------------------
  alpha Z        PSCENC =         2.32959210
  Ewald energy   TEWEN  =      1433.62714800
  -Hartree energ DENC   =     -4994.17041690
  -exchange      EXHF   =        81.40170442
  -V(xc)+E(xc)   XCENC  =        40.71366947
  PAW double counting   =      4197.85427981    -4112.31342081
  entropy T*S    EENTRO =        -0.00000000
  eigenvalues    EBANDS =      -360.70781489
  atomic energy  EATOM  =      3703.68095235
  ---------------------------------------------------
  free energy    TOTEN  =        -7.58430646 eV

  energy without entropy =       -7.58430646  energy(sigma->0) =       -7.58430646
  exchange ACFDT corr.  =        -0.00000000  see jH, gK, PRB 81, 115126


--------------------------------------------------------------------------------------------------------




--------------------------------------- Iteration      1(  16)  ---------------------------------------


    POTLOK:  cpu time      0.1889: real time      0.1889
    SETDIJ:  cpu time      0.5292: real time      0.5292
    TRIAL :  cpu time      8.0031: real time      8.0075
    CORREC:  cpu time      8.6357: real time      8.6404
    CHARGE:  cpu time      0.0929: real time      0.0932
    --------------------------------------------
      LOOP:  cpu time     17.4527: real time     17.4670

 eigenvalue-minimisations  :     0
 total energy-change (2. order) :-0.4905700E-05  (-0.1861706E-05)
 number of electron      44.0000003 magnetization 
 augmentation part       16.4560766 magnetization 

 Free energy of the ion-electron system (eV)
  ---------------------------------------------------
  alpha Z        PSCENC =         2.32959210
  Ewald energy   TEWEN  =      1433.62714800
  -Hartree energ DENC   =     -4994.13858097
  -exchange      EXHF   =        81.40109704
  -V(xc)+E(xc)   XCENC  =        40.71308559
  PAW double counting   =      4197.76805170    -4112.22765440
  entropy T*S    EENTRO =        -0.00000000
  eigenvalues    EBANDS =      -360.73800277
  atomic energy  EATOM  =      3703.68095235
  ---------------------------------------------------
  free energy    TOTEN  =        -7.58431137 eV

  energy without entropy =       -7.58431137  energy(sigma->0) =       -7.58431137
  exchange ACFDT corr.  =        -0.00000000  see jH, gK, PRB 81, 115126


--------------------------------------------------------------------------------------------------------




--------------------------------------- Iteration      1(  17)  ---------------------------------------


    POTLOK:  cpu time      0.1887: real time      0.1887
    SETDIJ:  cpu time      0.5318: real time      0.5318
    TRIAL :  cpu time      8.0664: real time      8.0711
    CORREC:  cpu time      8.5874: real time      8.5921
    CHARGE:  cpu time      0.0937: real time      0.0939
    --------------------------------------------
      LOOP:  cpu time     17.4757: real time     17.4856

 eigenvalue-minimisations  :     0
 total energy-change (2. order) :-0.1840568E-05  (-0.6580725E-06)
 number of electron      44.0000003 magnetization 
 augmentation part       16.4560731 magnetization 

 Free energy of the ion-electron system (eV)
  ---------------------------------------------------
  alpha Z        PSCENC =         2.32959210
  Ewald energy   TEWEN  =      1433.62714800
  -Hartree energ DENC   =     -4994.15717743
  -exchange      EXHF   =        81.40132596
  -V(xc)+E(xc)   XCENC  =        40.71332766
  PAW double counting   =      4197.71791621    -4112.17752476
  entropy T*S    EENTRO =        -0.00000000
  eigenvalues    EBANDS =      -360.71987330
  atomic energy  EATOM  =      3703.68095235
  ---------------------------------------------------
  free energy    TOTEN  =        -7.58431321 eV

  energy without entropy =       -7.58431321  energy(sigma->0) =       -7.58431321
  exchange ACFDT corr.  =        -0.00000000  see jH, gK, PRB 81, 115126


--------------------------------------------------------------------------------------------------------




--------------------------------------- Iteration      1(  18)  ---------------------------------------


    POTLOK:  cpu time      0.1901: real time      0.1901
    SETDIJ:  cpu time      0.5294: real time      0.5295
    TRIAL :  cpu time      7.9804: real time      7.9854
    CORREC:  cpu time      8.6755: real time      8.6811
    EDDIAG:  cpu time      7.8649: real time      7.8700
    CHARGE:  cpu time      0.0935: real time      0.0938
    --------------------------------------------
      LOOP:  cpu time     25.3375: real time     25.3587

 eigenvalue-minimisations  :     0
 total energy-change (2. order) :-0.6509417E-06  (-0.1946141E-06)
 number of electron      44.0000003 magnetization 
 augmentation part       16.4560318 magnetization 

 Free energy of the ion-electron system (eV)
  ---------------------------------------------------
  alpha Z        PSCENC =         2.32959210
  Ewald energy   TEWEN  =      1433.62714800
  -Hartree energ DENC   =     -4994.16164773
  -exchange      EXHF   =        81.40130501
  -V(xc)+E(xc)   XCENC  =        40.71343776
  PAW double counting   =      4197.68005019    -4112.13982158
  entropy T*S    EENTRO =        -0.00000000
  eigenvalues    EBANDS =      -360.71544045
  atomic energy  EATOM  =      3703.68095235
  ---------------------------------------------------
  free energy    TOTEN  =        -7.58431386 eV

  energy without entropy =       -7.58431386  energy(sigma->0) =       -7.58431386
  exchange ACFDT corr.  =        -0.00000000  see jH, gK, PRB 81, 115126


--------------------------------------------------------------------------------------------------------


  average scaling for gradient   1.5451


 average (electrostatic) potential at core
  the test charge radii are     1.2098
  (the norm of the test charge is              1.0000)
       1 -71.5406       2 -70.1326       3 -71.1320       4 -71.5407



 E-fermi :  -5.5859     XC(G=0):  -0.2573     alpha+bet : -0.1187

 Fermi energy:        -5.5859287701

 k-point     1 :       0.0000    0.0000    0.0000
  band No.  band energies     occupation 
      1     -11.1969      2.00000
      2     -10.1974      2.00000
      3      -9.7801      2.00000
      4      -9.7607      2.00000
      5      -9.1586      2.00000
      6      -9.0533      2.00000
      7      -8.7854      2.00000
      8      -8.7210      2.00000
      9      -8.2569      2.00000
     10      -8.1893      2.00000
     11      -8.0489      2.00000
     12      -7.9946      2.00000
     13      -7.9623      2.00000
     14      -7.7615      2.00000
     15      -7.7297      2.00000
     16      -7.7134      2.00000
     17      -7.0409      2.00000
     18      -7.0396      2.00000
     19      -6.7735      2.00000
     20      -6.7640      2.00000
     21      -6.5902      2.00000
     22      -5.8411      2.00000
     23      -4.1194      0.00000
     24      -2.8095      0.00000
     25      -1.4783      0.00000
     26      -0.7737      0.00000
     27      -0.5852      0.00000
     28      -0.4045      0.00000
     29      -0.0078      0.00000
     30       0.0892      0.00000
     31       0.3433      0.00000
     32       0.3602      0.00000
     33       0.4443      0.00000
     34       0.4741      0.00000
     35       0.4989      0.00000
     36       0.5106      0.00000
     37       0.5967      0.00000
     38       0.7165      0.00000
     39       0.7546      0.00000
     40       0.7888      0.00000
     41       0.7969      0.00000
     42       0.8192      0.00000
     43       0.8238      0.00000
     44       0.8278      0.00000
     45       0.8759      0.00000
     46       0.9233      0.00000
     47       0.9366      0.00000
     48       0.9576      0.00000
     49       0.9596      0.00000
     50       0.9692      0.00000
     51       1.1746      0.00000
     52       1.1822      0.00000
     53       1.1905      0.00000
     54       1.2179      0.00000
     55       1.2505      0.00000
     56       1.3069      0.00000
     57       1.3161      0.00000
     58       1.3723      0.00000
     59       1.4831      0.00000
     60       1.5456      0.00000
     61       1.5558      0.00000
     62       1.5841      0.00000
     63       1.6151      0.00000
     64       1.6512      0.00000
     65       1.6669      0.00000
     66       1.7608      0.00000
     67       1.7924      0.00000
     68       1.8238      0.00000
     69       1.8662      0.00000
     70       1.8720      0.00000
     71       1.8869      0.00000
     72       1.8981      0.00000
     73       1.9188      0.00000
     74       1.9205      0.00000
     75       1.9372      0.00000
     76       1.9484      0.00000
     77       1.9555      0.00000
     78       1.9599      0.00000
     79       1.9641      0.00000
     80       1.9704      0.00000
     81       1.9725      0.00000
     82       1.9771      0.00000
     83       2.0209      0.00000
     84       2.0429      0.00000
     85       2.0629      0.00000
     86       2.0710      0.00000
     87       2.1119      0.00000
     88       2.1455      0.00000
     89       2.1991      0.00000
     90       2.2031      0.00000
     91       2.2313      0.00000
     92       2.2548      0.00000
     93       2.2679      0.00000
     94       2.2711      0.00000
     95       2.2754      0.00000
     96       2.2961      0.00000


--------------------------------------------------------------------------------------------------------


 soft charge-density along one line, spin component           1
         0         1         2         3         4         5         6         7         8         9
 total charge-density along one line

 pseudopotential strength for first ion, spin component:           1
 -8.577  -0.025  -0.038   0.015  -0.001  -8.731  -0.025  -0.037
 -0.025  -8.539   0.005   0.032  -0.007  -0.025  -8.694   0.005
 -0.038   0.005  -8.529  -0.011  -0.009  -0.037   0.005  -8.684
  0.015   0.032  -0.011  -8.541  -0.030   0.015   0.031  -0.011
 -0.001  -0.007  -0.009  -0.030  -8.586  -0.001  -0.006  -0.009
 -8.731  -0.025  -0.037   0.015  -0.001  -8.869  -0.024  -0.036
 -0.025  -8.694   0.005   0.031  -0.006  -0.024  -8.833   0.005
 -0.037   0.005  -8.684  -0.011  -0.009  -0.036   0.005  -8.823
  0.015   0.031  -0.011  -8.696  -0.029   0.015   0.030  -0.011
 -0.001  -0.006  -0.009  -0.029  -8.740  -0.001  -0.006  -0.009
 -0.029  -0.009  -0.022   0.027  -0.003  -0.029  -0.009  -0.022
 -0.042  -0.013  -0.032   0.039  -0.004  -0.042  -0.013  -0.032
 -0.030  -0.014  -0.018   0.000  -0.031  -0.030  -0.013  -0.018
  0.000   0.029  -0.016  -0.030  -0.001   0.000   0.029  -0.016
  0.029   0.000   0.017  -0.015  -0.030   0.029   0.000   0.017
 -0.035  -0.016  -0.021   0.000  -0.036  -0.035  -0.015  -0.021
  0.000   0.033  -0.018  -0.035  -0.001   0.000   0.032  -0.018
  0.034   0.000   0.020  -0.018  -0.034   0.033   0.000   0.020
 total augmentation occupancy for first ion, spin component:           1
  3.347   0.240   0.271  -0.288  -0.150  -1.248  -0.280  -0.356   0.356   0.137   1.312  -0.436  -0.081   0.056   0.145  -0.023
  0.240   3.025   0.005  -0.273  -0.092  -0.280  -0.846  -0.000   0.338   0.118   0.402  -0.136  -0.007   0.073   0.058  -0.013
  0.271   0.005   2.916  -0.029   0.095  -0.355   0.001  -0.771   0.036  -0.168   1.016  -0.330  -0.100   0.006   0.050  -0.010
 -0.288  -0.273  -0.029   3.023   0.217   0.354   0.336   0.035  -0.924  -0.321  -1.156   0.363   0.040  -0.077  -0.111  -0.005
 -0.150  -0.092   0.095   0.217   3.322   0.138   0.118  -0.168  -0.321  -1.370   0.207  -0.076  -0.117  -0.058  -0.091  -0.025
 -1.248  -0.280  -0.355   0.354   0.138   1.145   0.313   0.425  -0.409  -0.128  -1.156   0.408   0.130  -0.059  -0.184  -0.007
 -0.280  -0.846   0.001   0.336   0.118   0.313   0.677  -0.006  -0.390  -0.139  -0.348   0.124   0.024  -0.105  -0.060  -0.001
 -0.356  -0.000  -0.771   0.035  -0.168   0.425  -0.006   0.630  -0.039   0.229  -0.905   0.316   0.135   0.010  -0.078  -0.007
  0.356   0.338   0.036  -0.924  -0.321  -0.409  -0.390  -0.039   0.820   0.407   1.009  -0.343  -0.048   0.120   0.143   0.004
  0.137   0.118  -0.168  -0.321  -1.370  -0.128  -0.139   0.229   0.407   1.391  -0.210   0.082   0.167   0.063   0.130  -0.005
  1.312   0.402   1.016  -1.156   0.207  -1.156  -0.348  -0.905   1.009  -0.210   3.767  -1.218  -0.320   0.134   0.298   0.015
 -0.436  -0.136  -0.330   0.363  -0.076   0.408   0.124   0.316  -0.343   0.082  -1.218   0.401   0.114  -0.045  -0.101  -0.006
 -0.081  -0.007  -0.100   0.040  -0.117   0.130   0.024   0.135  -0.048   0.167  -0.320   0.114   0.057  -0.004  -0.017  -0.004
  0.056   0.073   0.006  -0.077  -0.058  -0.059  -0.105   0.010   0.120   0.063   0.134  -0.045  -0.004   0.026   0.020   0.001
  0.145   0.058   0.050  -0.111  -0.091  -0.184  -0.060  -0.078   0.143   0.130   0.298  -0.101  -0.017   0.020   0.051   0.002
 -0.023  -0.013  -0.010  -0.005  -0.025  -0.007  -0.001  -0.007   0.004  -0.005   0.015  -0.006  -0.004   0.001   0.002   0.001
 -0.005   0.030  -0.019  -0.028   0.004   0.004   0.001   0.002  -0.003  -0.003  -0.005   0.002   0.001  -0.002  -0.001  -0.000
  0.022  -0.005   0.014  -0.005  -0.029   0.007   0.004   0.004  -0.008  -0.002  -0.012   0.005   0.002  -0.001  -0.004  -0.000


------------------------ aborting loop because EDIFF is reached ----------------------------------------


    FORLOC:  cpu time      0.0023: real time      0.0023
    FORHF :  cpu time      1.7749: real time      1.7756
    FORNL :  cpu time      0.0947: real time      0.0947
    FORCOR:  cpu time      0.6869: real time      0.6870
    OFIELD:  cpu time      0.0002: real time      0.0002

 VOLUME and BASIS-vectors are now :
 -----------------------------------------------------------------------------
  energy-cutoff  :      520.00
  volume of cell :     8000.00
      direct lattice vectors                 reciprocal lattice vectors
    20.000000000  0.000000000  0.000000000     0.050000000  0.000000000  0.000000000
     0.000000000 20.000000000  0.000000000     0.000000000  0.050000000  0.000000000
     0.000000000  0.000000000 20.000000000     0.000000000  0.000000000  0.050000000

  length of vectors
    20.000000000 20.000000000 20.000000000     0.050000000  0.050000000  0.050000000


 FORCES acting on ions:
    Electron-Ion                     Ewald-Force                    Non-Local-Force
 -----------------------------------------------------------------------------------------------
   0.252E+03 -.408E+03 0.919E+02   -.247E+03 0.402E+03 -.892E+02   -.553E+01 0.548E+01 -.256E+01
   0.109E+03 0.373E+03 0.126E+03   -.107E+03 -.366E+03 -.123E+03   -.218E+01 -.748E+01 -.251E+01
   0.392E+02 0.135E+03 0.454E+02   -.399E+02 -.137E+03 -.461E+02   0.529E+00 0.182E+01 0.603E+00
   -.401E+03 -.100E+03 -.263E+03   0.393E+03 0.101E+03 0.259E+03   0.700E+01 -.444E+00 0.425E+01
 -----------------------------------------------------------------------------------------------
   0.143E+00 0.488E+00 0.163E+00   0.000E+00 0.000E+00 -.284E-13   -.180E+00 -.625E+00 -.216E+00


 POSITION                                       TOTAL-FORCE (eV/Angst)
 -----------------------------------------------------------------------------------
     19.43026      2.13309     19.98047         0.039959      0.070091      0.035535
     19.19126     17.21636     19.06782        -0.042242     -0.142419     -0.047816
     19.85667     19.50681     19.83436        -0.003616     -0.014252     -0.005280
      1.52181      1.14374      1.11735         0.005900      0.086580      0.017561
 -----------------------------------------------------------------------------------
    total drift:                                0.002534      0.001804     -0.003609


--------------------------------------------------------------------------------------------------------



  FREE ENERGIE OF THE ION-ELECTRON SYSTEM (eV)
  ---------------------------------------------------
  free  energy   TOTEN  =        -7.58431386 eV

  energy  without entropy=       -7.58431386  energy(sigma->0) =       -7.58431386



--------------------------------------------------------------------------------------------------------


    POTLOK:  cpu time      0.7168: real time      0.7170


--------------------------------------------------------------------------------------------------------


     LOOP+:  cpu time    253.8668: real time    254.0697
    4ORBIT:  cpu time      0.0000: real time      0.0000

 total amount of memory used by VASP MPI-rank0   953100. kBytes
=======================================================================

   base      :      30000. kBytes
   nonlr-proj:       2794. kBytes
   fftplans  :      48991. kBytes
   grid      :      38630. kBytes
   one-center:         15. kBytes
   HF        :         64. kBytes
   wavefun   :       2592. kBytes
   fock_wrk  :     830014. kBytes

  
  
 General timing and accounting informations for this job:
 ========================================================
  
                  Total CPU time used (sec):      279.880
                            User time (sec):      266.166
                          System time (sec):       13.714
                         Elapsed time (sec):      282.307
  
                   Maximum memory used (kb):     1760580.
                   Average memory used (kb):          N/A
  
                          Minor page faults:      1735139
                          Major page faults:            0
                 Voluntary context switches:        17111
