 vasp.6.3.2 27Jun22 (build Jan 05 2024 11:34:19) complex                        
  
 executed on           IFC15_impi date 2024.01.08  19:36:50
 running   64 mpi-ranks, with    1 threads/rank
 distrk:  each k-point on   64 cores,    1 groups
 distr:  one band on NCORE=   2 cores,   32 groups


--------------------------------------------------------------------------------------------------------


 INCAR:
   SYSTEM = MgO-rocksalt
   ISMEAR = 0
   SIGMA = 0.05
   EDIFF = 1E-6
   ALGO = ALL
   ISTART = 0
   IBRION = -1
   NSW = 0
   ISYM = 2
   METAGGA = M06L
   ENCUT = 520
   PREC = Accurate
   LASPH = .TRUE.
   LREAL = Auto
   ISPIN = 1
   NELM = 2000
   NELMIN = 8
   NCORE = 2
   LWAVE = .FALSE.
   LCHARG = .FALSE.

 POTCAR:    PAW_PBE Au 04Oct2007                  
 POTCAR:    PAW_PBE Au 04Oct2007                  
   SHA256 =  d0044ae04e2bdce24051b198fc5c053d722a5bc6fe3c3b100514a13fc5d2db88 Au/POTCAR             
   COPYR  = (c) Copyright 04Oct2007 Georg Kresse                                                    
   COPYR  = This file is part of the software VASP. Any use, copying, and all other rights are regul
   COPYR  = If you do not have a valid VASP license, you may not use, copy or distribute this file. 
   VRHFIN =Au: s1d10                                                                                
   LEXCH  = PE                                                                                      
   EATOM  =   926.0867 eV,   68.0654 Ry                                                             
                                                                                                    
   TITEL  = PAW_PBE Au 04Oct2007                                                                    
   LULTRA =        F    use ultrasoft PP ?                                                          
   IUNSCR =        1    unscreen: 0-lin 1-nonlin 2-no                                               
   RPACOR =    2.330    partial core radius                                                         
   POMASS =  196.966; ZVAL   =   11.000    mass and valenz                                          
   RCORE  =    2.500    outmost cutoff radius                                                       
   RWIGS  =    2.840; RWIGS  =    1.503    wigner-seitz radius (au A)                               
   ENMAX  =  229.943; ENMIN  =  172.457 eV                                                          
   ICORE  =        3    local potential                                                             
   LCOR   =        T    correct aug charges                                                         
   LPAW   =        T    paw PP                                                                      
   EAUG   =  356.670                                                                                
   DEXC   =    0.000                                                                                
   RMAX   =    2.562    core radius for proj-oper                                                   
   RAUG   =    1.300    factor for augmentation sphere                                              
   RDEP   =    2.598    radius for radial grids                                                     
   RDEPT  =    2.193    core radius for aug-charge                                                  
                                                                                                    
   Atomic configuration                                                                             
   16 entries                                                                                       
     n  l   j            E        occ.                                                              
     1  0  0.50    -80748.5001   2.0000                                                             
     2  0  0.50    -14244.7466   2.0000                                                             
     2  1  1.50    -12310.9591   6.0000                                                             
     3  0  0.50     -3362.1768   2.0000                                                             
     3  1  1.50     -2801.5463   6.0000                                                             
     3  2  2.50     -2203.8206  10.0000                                                             
     4  0  0.50      -729.8168   2.0000                                                             
     4  1  1.50      -546.0527   6.0000                                                             
     4  2  2.50      -325.7302  10.0000                                                             
     4  3  3.50       -81.1472  14.0000                                                             
     5  0  0.50      -108.3201   2.0000                                                             
     5  1  1.50       -59.7479   6.0000                                                             
     5  2  2.50        -6.8783  10.0000                                                             
     6  0  0.50        -5.7602   1.0000                                                             
     6  1  1.50        -6.8029   0.0000                                                             
     5  3  2.50        -1.3606   0.0000                                                             
   Description                                                                                      
     l       E           TYP  RCUT    TYP  RCUT                                                     
     2     -6.8782861     23  2.500                                                                 
     2     -8.2388687     23  2.500                                                                 
     0     -5.7601759     23  2.500                                                                 
     0     -0.8493231     23  2.500                                                                 
     1     -2.7211652     23  2.500                                                                 
     1     27.2116520     23  2.500                                                                 
     3     -1.3605826     23  2.500                                                                 
  local pseudopotential read in
  partial core-charges read in
  partial kinetic energy density read in
  atomic valenz-charges read in
  non local Contribution for L=           2  read in
    real space projection operators read in
  non local Contribution for L=           2  read in
    real space projection operators read in
  non local Contribution for L=           0  read in
    real space projection operators read in
  non local Contribution for L=           0  read in
    real space projection operators read in
  non local Contribution for L=           1  read in
    real space projection operators read in
  non local Contribution for L=           1  read in
    real space projection operators read in
    PAW grid and wavefunctions read in
 
   number of l-projection  operators is LMAX  =           6
   number of lm-projection operators is LMMAX =          18
 
 -----------------------------------------------------------------------------
|                                                                             |
|               ----> ADVICE to this user running VASP <----                  |
|                                                                             |
|     You have a (more or less) 'small supercell' and for smaller cells       |
|     it is recommended to use the reciprocal-space projection scheme!        |
|     The real-space optimization is not efficient for small cells and it     |
|     is also less accurate ...                                               |
|     Therefore, set LREAL=.FALSE. in the INCAR file.                         |
|                                                                             |
 -----------------------------------------------------------------------------

 Optimization of the real space projectors (new method)

 maximal supplied QI-value         = 15.12
 optimisation between [QCUT,QGAM] = [ 11.64, 23.28] = [ 37.95,151.78] Ry 
 Optimized for a Real-space Cutoff    1.49 Angstroem

   l    n(q)    QCUT    max X(q) W(low)/X(q) W(high)/X(q)  e(spline) 
   2      9    11.641    60.898    0.24E-03    0.10E-03    0.19E-06
   2      9    11.641    58.894    0.25E-03    0.10E-03    0.19E-06
   0     10    11.641   109.617    0.73E-04    0.33E-04    0.11E-06
   0     10    11.641    75.026    0.71E-04    0.32E-04    0.11E-06
   1     10    11.641    16.344    0.27E-04    0.97E-04    0.16E-06
   1     10    11.641    10.160    0.23E-04    0.77E-04    0.13E-06
  PAW_PBE Au 04Oct2007                  :
 energy of atom  1       EATOM= -926.0867
 kinetic energy error for atom=    0.0034 (will be added to EATOM!!)
 
 
 POSCAR: Au
  positions in direct lattice
  velocities in cartesian coordinates

 METAGGA = M06L     LMAXTAU =  6    LMIXTAU =  F

 exchange correlation table for  LEXCH =        8
   RHO(1)=    0.500       N(1)  =     2000
   RHO(2)=  100.500       N(2)  =     4000

 VTST: version 4.1, (05/19/21)

 CHAIN: initializing optimizer
 
 OPT: Using VASP Dynamics algorithm
 CHAIN: Read ICHAIN            0
 
 POSCAR: Au
  positions in direct lattice
  velocities in cartesian coordinates
 


--------------------------------------------------------------------------------------------------------


 ion  position               nearest neighbor table
   1  0.586  0.499  0.465-   5 2.61   2 2.61   3 2.77   4 2.77
   2  0.543  0.377  0.449-   1 2.61   3 2.61
   3  0.458  0.462  0.500-   6 2.61   2 2.61   4 2.77   1 2.77
   4  0.499  0.593  0.519-   6 2.61   5 2.61   3 2.77   1 2.77
   5  0.621  0.623  0.484-   4 2.61   1 2.61
   6  0.379  0.553  0.551-   4 2.61   3 2.61
 
  LATTYP: Found a simple cubic cell.
 ALAT       =    20.0000000000
  
  Lattice vectors:
  
 A1 = (  20.0000000000,   0.0000000000,   0.0000000000)
 A2 = (   0.0000000000,  20.0000000000,   0.0000000000)
 A3 = (   0.0000000000,   0.0000000000,  20.0000000000)


Analysis of symmetry for initial positions (statically):
=====================================================================
 Subroutine PRICEL returns:
 Original cell was already a primitive cell.
 

 Routine SETGRP: Setting up the symmetry group for a 
 simple cubic supercell.


 Subroutine GETGRP returns: Found  1 space group operations
 (whereof  1 operations were pure point group operations)
 out of a pool of 48 trial point group operations.


The static configuration has the point symmetry C_1 .


Analysis of symmetry for dynamics (positions and initial velocities):
=====================================================================
 Subroutine PRICEL returns:
 Original cell was already a primitive cell.
 

 Routine SETGRP: Setting up the symmetry group for a 
 simple cubic supercell.


 Subroutine GETGRP returns: Found  1 space group operations
 (whereof  1 operations were pure point group operations)
 out of a pool of 48 trial point group operations.


The dynamic configuration has the point symmetry C_1 .


 Subroutine INISYM returns: Found  1 space group operations
 (whereof  1 operations are pure point group operations),
 and found     1 'primitive' translations


----------------------------------------------------------------------------------------

                                     Primitive cell                                     

  volume of cell :    8000.0000

  direct lattice vectors                    reciprocal lattice vectors
    20.000000000  0.000000000  0.000000000     0.050000000  0.000000000  0.000000000
     0.000000000 20.000000000  0.000000000     0.000000000  0.050000000  0.000000000
     0.000000000  0.000000000 20.000000000     0.000000000  0.000000000  0.050000000

  length of vectors
    20.000000000 20.000000000 20.000000000     0.050000000  0.050000000  0.050000000

  position of ions in fractional coordinates (direct lattice)
     0.586114519  0.499077915  0.464837290
     0.542611727  0.376960621  0.449417976
     0.457508876  0.461858746  0.500350500
     0.499236180  0.592645883  0.518714566
     0.621281712  0.623315270  0.484029815
     0.378926066  0.553232015  0.550505831

  ion indices of the primitive-cell ions
   primitive index   ion index
                 1           1
                 2           2
                 3           3
                 4           4
                 5           5
                 6           6

----------------------------------------------------------------------------------------

 
 
 KPOINTS: KPOINTS created by Atomic Simulation Env

Automatic generation of k-mesh.
 Grid dimensions read from file:
 generate k-points for:    1    1    1

 Generating k-lattice:

  Cartesian coordinates                     Fractional coordinates (reciprocal lattice)
     0.050000000  0.000000000  0.000000000     1.000000000  0.000000000  0.000000000
     0.000000000  0.050000000  0.000000000     0.000000000  1.000000000  0.000000000
     0.000000000  0.000000000  0.050000000     0.000000000  0.000000000  1.000000000

  Length of vectors
     0.050000000  0.050000000  0.050000000

  Shift w.r.t. Gamma in fractional coordinates (k-lattice)
     0.000000000  0.000000000  0.000000000

 
 Subroutine IBZKPT returns following result:
 ===========================================
 
 Found      1 irreducible k-points:
 
 Following reciprocal coordinates:
            Coordinates               Weight
  0.000000  0.000000  0.000000      1.000000
 
 Following cartesian coordinates:
            Coordinates               Weight
  0.000000  0.000000  0.000000      1.000000
 


--------------------------------------------------------------------------------------------------------




 Dimension of arrays:
   k-points           NKPTS =      1   k-points in BZ     NKDIM =      1   number of bands    NBANDS=     64
   number of dos      NEDOS =    301   number of ions     NIONS =      6
   non local maximal  LDIM  =      6   non local SUM 2l+1 LMDIM =     18
   total plane-waves  NPLWV = ******
   max r-space proj   IRMAX =   5885   max aug-charges    IRDMAX=  25995
   dimension x,y,z NGX =   150 NGY =  150 NGZ =  150
   dimension x,y,z NGXF=   300 NGYF=  300 NGZF=  300
   support grid    NGXF=   300 NGYF=  300 NGZF=  300
   ions per type =               6
   NGX,Y,Z   is equivalent  to a cutoff of  12.47, 12.47, 12.47 a.u.
   NGXF,Y,Z  is equivalent  to a cutoff of  24.94, 24.94, 24.94 a.u.

 SYSTEM =  MgO-rocksalt                            
 POSCAR =  Au                                      

 Startparameter for this run:
   NWRITE =      2    write-flag & timer
   PREC   = accura    normal or accurate (medium, high low for compatibility)
   ISTART =      0    job   : 0-new  1-cont  2-samecut
   ICHARG =      2    charge: 1-file 2-atom 10-const
   ISPIN  =      1    spin polarized calculation?
   LNONCOLLINEAR =      F non collinear calculations
   LSORBIT =      F    spin-orbit coupling
   INIWAV =      1    electr: 0-lowe 1-rand  2-diag
   LASPH  =      T    aspherical Exc in radial PAW
 Electronic Relaxation 1
   ENCUT  =  520.0 eV  38.22 Ry    6.18 a.u.  37.19 37.19 37.19*2*pi/ulx,y,z
   ENINI  =  520.0     initial cutoff
   ENAUG  =  356.7 eV  augmentation charge cutoff
   NELM   =   2000;   NELMIN=  8; NELMDL= -5     # of ELM steps 
   EDIFF  = 0.1E-05   stopping-criterion for ELM
   LREAL  =      T    real-space projection
   NLSPLINE    = F    spline interpolate recip. space projectors
   LCOMPAT=      F    compatible to vasp.4.4
   GGA_COMPAT  = T    GGA compatible to vasp.4.4-vasp.4.6
   LMAXPAW     = -100 max onsite density
   LMAXMIX     =    2 max onsite mixed and CHGCAR
   VOSKOWN=      0    Vosko Wilk Nusair interpolation
   ROPT   =   -0.00025
 Ionic relaxation
   EDIFFG = 0.1E-04   stopping-criterion for IOM
   NSW    =      0    number of steps for IOM
   NBLOCK =      1;   KBLOCK =      1    inner block; outer block 
   IBRION =     -1    ionic relax: 0-MD 1-quasi-New 2-CG
   NFREE  =      0    steps in history (QN), initial steepest desc. (CG)
   ISIF   =      2    stress and relaxation
   IWAVPR =     10    prediction:  0-non 1-charg 2-wave 3-comb
   ISYM   =      2    0-nonsym 1-usesym 2-fastsym
   LCORR  =      T    Harris-Foulkes like correction to forces

   POTIM  = 0.5000    time-step for ionic-motion
   TEIN   =    0.0    initial temperature
   TEBEG  =    0.0;   TEEND  =   0.0 temperature during run
   SMASS  =  -3.00    Nose mass-parameter (am)
   estimated Nose-frequenzy (Omega)   =  0.10E-29 period in steps = 0.13E+47 mass=  -0.914E-26a.u.
   SCALEE = 1.0000    scale energy and forces
   NPACO  =    256;   APACO  = 10.0  distance and # of slots for P.C.
   PSTRESS=    0.0 pullay stress

  Mass of Ions in am
   POMASS = 196.97
  Ionic Valenz
   ZVAL   =  11.00
  Atomic Wigner-Seitz radii
   RWIGS  =  -1.00
  virtual crystal weights 
   VCA    =   1.00
   NELECT =      66.0000    total number of electrons
   NUPDOWN=      -1.0000    fix difference up-down

 DOS related values:
   EMIN   =  10.00;   EMAX   =-10.00  energy-range for DOS
   EFERMI =   0.00
   ISMEAR =     0;   SIGMA  =   0.05  broadening in eV -4-tet -1-fermi 0-gaus

 Electronic relaxation 2 (details)
   IALGO  =     58    algorithm
   LDIAG  =      T    sub-space diagonalisation (order eigenvalues)
   LSUBROT=      F    optimize rotation matrix (better conditioning)
   TURBO    =      0    0=normal 1=particle mesh
   IRESTART =      0    0=no restart 2=restart with 2 vectors
   NREBOOT  =      0    no. of reboots
   NMIN     =      0    reboot dimension
   EREF     =   0.00    reference energy to select bands
   IMIX   =      4    mixing-type and parameters
     AMIX     =   0.40;   BMIX     =  1.00
     AMIX_MAG =   1.60;   BMIX_MAG =  1.00
     AMIN     =   0.10
     WC   =   100.;   INIMIX=   1;  MIXPRE=   1;  MAXMIX= -45

 Intra band minimization:
   WEIMIN = 0.0000     energy-eigenvalue tresh-hold
   EBREAK =  0.39E-08  absolut break condition
   DEPER  =   0.30     relativ break condition  

   TIME   =   0.40     timestep for ELM

  volume/ion in A,a.u.               =    1333.33      8997.78
  Fermi-wavevector in a.u.,A,eV,Ry     =   0.330795  0.625113  1.488826  0.109426
  Thomas-Fermi vector in A             =   1.226404
 
 Write flags
   LWAVE        =      F    write WAVECAR
   LDOWNSAMPLE  =      F    k-point downsampling of WAVECAR
   LCHARG       =      F    write CHGCAR
   LVTOT        =      F    write LOCPOT, total local potential
   LVHAR        =      F    write LOCPOT, Hartree potential only
   LELF         =      F    write electronic localiz. function (ELF)
   LORBIT       =      0    0 simple, 1 ext, 2 COOP (PROOUT), +10 PAW based schemes


 Dipole corrections
   LMONO  =      F    monopole corrections only (constant potential shift)
   LDIPOL =      F    correct potential (dipole corrections)
   IDIPOL =      0    1-x, 2-y, 3-z, 4-all directions 
   EPSILON=  1.0000000 bulk dielectric constant

 Exchange correlation treatment:
   GGA     =    --    GGA type
   LEXCH   =     8    internal setting for exchange type
   LIBXC   =     F    Libxc                    
   VOSKOWN =     0    Vosko Wilk Nusair interpolation
   LHFCALC =     F    Hartree Fock is set to
   LHFONE  =     F    Hartree Fock one center treatment
   AEXX    =    0.0000 exact exchange contribution

 Linear response parameters
   LEPSILON=     F    determine dielectric tensor
   LRPA    =     F    only Hartree local field effects (RPA)
   LNABLA  =     F    use nabla operator in PAW spheres
   LVEL    =     F    velocity operator in full k-point grid
   CSHIFT  =0.1000    complex shift for real part using Kramers Kronig
   OMEGAMAX=  -1.0    maximum frequency
   DEG_THRESHOLD= 0.2000000E-02 threshold for treating states as degnerate
   RTIME   =   -0.100 relaxation time in fs
  (WPLASMAI=    0.000 imaginary part of plasma frequency in eV, 0.658/RTIME)
   DFIELD  = 0.0000000 0.0000000 0.0000000 field for delta impulse in time
 
  Optional k-point grid parameters
   LKPOINTS_OPT  =     F    use optional k-point grid
   KPOINTS_OPT_MODE=     1    mode for optional k-point grid
 
 Orbital magnetization related:
   ORBITALMAG=     F  switch on orbital magnetization
   LCHIMAG   =     F  perturbation theory with respect to B field
   DQ        =  0.001000  dq finite difference perturbation B field
   LLRAUG    =     F  two centre corrections for induced B field



--------------------------------------------------------------------------------------------------------


 Static calculation
 charge density and potential will be updated during run
 non-spin polarized calculation
 Conjugate gradient for all bands (Freysoldt, et al. PRB 79, 241103 (2009))
 preconditioned conjugated gradient                                        
 perform sub-space diagonalisation
    before iterative eigenvector-optimisation
 modified Broyden-mixing scheme, WC =      100.0
 initial mixing is a Kerker type mixing with AMIX =  0.4000 and BMIX =      1.0000
 Hartree-type preconditioning will be used
 using additional bands           31
 real space projection scheme for non local part
 use partial core corrections
 no Harris-corrections to forces 
 use gradient corrections 
 use of overlap-Matrix (Vanderbilt PP)
 Gauss-broadening in eV      SIGMA  =   0.05


--------------------------------------------------------------------------------------------------------


  energy-cutoff  :      520.00
  volume of cell :     8000.00
      direct lattice vectors                 reciprocal lattice vectors
    20.000000000  0.000000000  0.000000000     0.050000000  0.000000000  0.000000000
     0.000000000 20.000000000  0.000000000     0.000000000  0.050000000  0.000000000
     0.000000000  0.000000000 20.000000000     0.000000000  0.000000000  0.050000000

  length of vectors
    20.000000000 20.000000000 20.000000000     0.050000000  0.050000000  0.050000000


 
 k-points in units of 2pi/SCALE and weight: KPOINTS created by Atomic Simulation Env
   0.00000000  0.00000000  0.00000000       1.000
 
 k-points in reciprocal lattice and weights: KPOINTS created by Atomic Simulation Env
   0.00000000  0.00000000  0.00000000       1.000
 
 position of ions in fractional coordinates (direct lattice) 
   0.58611452  0.49907792  0.46483729
   0.54261173  0.37696062  0.44941798
   0.45750888  0.46185875  0.50035050
   0.49923618  0.59264588  0.51871457
   0.62128171  0.62331527  0.48402982
   0.37892607  0.55323202  0.55050583
 
 position of ions in cartesian coordinates  (Angst):
  11.72229038  9.98155831  9.29674580
  10.85223454  7.53921241  8.98835953
   9.15017751  9.23717492 10.00701001
   9.98472361 11.85291766 10.37429133
  12.42563424 12.46630540  9.68059630
   7.57852132 11.06464031 11.01011662
 


--------------------------------------------------------------------------------------------------------


 k-point   1 :   0.0000 0.0000 0.0000  plane waves:  215503

 maximum and minimum number of plane-waves per node :    107789   107714

 maximum number of plane-waves:    215503
 maximum index in each direction: 
   IXMAX=   37   IYMAX=   37   IZMAX=   37
   IXMIN=  -37   IYMIN=  -37   IZMIN=  -37


 real space projection operators:
  total allocation   :       4781.11 KBytes
  max/ min on nodes  :       2393.86       2387.25


 parallel 3D FFT for wavefunctions:
    minimum data exchange during FFTs selected (reduces bandwidth)
 parallel 3D FFT for charge:
    minimum data exchange during FFTs selected (reduces bandwidth)


 total amount of memory used by VASP MPI-rank0   255923. kBytes
=======================================================================

   base      :      30000. kBytes
   nonlr-proj:       3533. kBytes
   fftplans  :      64991. kBytes
   grid      :     147000. kBytes
   one-center:         46. kBytes
   wavefun   :      10353. kBytes
 
     INWAV:  cpu time      0.0002: real time      0.0002
 Broyden mixing: mesh for mixing (old mesh)
   NGX = 75   NGY = 75   NGZ = 75
  (NGX  =300   NGY  =300   NGZ  =300)
  gives a total of 421875 points

 initial charge density was supplied:
 charge density of overlapping atoms calculated
 number of electron      66.0000000 magnetization 
 keeping initial charge density in first step


--------------------------------------------------------------------------------------------------------


 Maximum index for non-local projection operator         2847
 Maximum index for augmentation-charges          937 (set IRDMAX)


--------------------------------------------------------------------------------------------------------


 First call to EWALD:  gamma=   0.089
 Maximum number of real-space cells 3x 3x 3
 Maximum number of reciprocal cells 3x 3x 3

    FEWALD:  cpu time      0.0066: real time      0.0066


--------------------------------------- Iteration      1(   1)  ---------------------------------------


    POTLOK:  cpu time      1.3119: real time      1.3180
    SETDIJ:  cpu time      4.5621: real time      4.5655
    TRIAL :  cpu time      6.1590: real time      6.2231
    CORREC:  cpu time      0.0017: real time      0.0017
    --------------------------------------------
      LOOP:  cpu time     12.0428: real time     12.1181

 eigenvalue-minimisations  :   128
 total energy-change (2. order) : 0.2341644E+03  (-0.1237524E+04)
 number of electron      66.0000000 magnetization 
 augmentation part       66.0000000 magnetization 

 Free energy of the ion-electron system (eV)
  ---------------------------------------------------
  alpha Z        PSCENC =         5.24158223
  Ewald energy   TEWEN  =      3672.85811332
  -Hartree energ DENC   =     -8993.24597104
  -exchange      EXHF   =         0.00000000
  -V(xc)+E(xc)   XCENC  =      -107.84818714
  PAW double counting   =      5330.96284469    -5321.47349690
  entropy T*S    EENTRO =        -0.05679595
  eigenvalues    EBANDS =        91.22633450
  atomic energy  EATOM  =      5556.49993434
  ---------------------------------------------------
  free energy    TOTEN  =       234.16435806 eV

  energy without entropy =      234.22115400  energy(sigma->0) =      234.19275603


--------------------------------------------------------------------------------------------------------




--------------------------------------- Iteration      1(   2)  ---------------------------------------


    TRIAL :  cpu time      7.6295: real time      7.6405
    CORREC:  cpu time      0.0014: real time      0.0014
    --------------------------------------------
      LOOP:  cpu time      7.6333: real time      7.6514

 eigenvalue-minimisations  :   192
 total energy-change (2. order) :-0.6572608E+02  (-0.4645179E+02)
 number of electron      66.0000000 magnetization 
 augmentation part       66.0000000 magnetization 

 Free energy of the ion-electron system (eV)
  ---------------------------------------------------
  alpha Z        PSCENC =         5.24158223
  Ewald energy   TEWEN  =      3672.85811332
  -Hartree energ DENC   =     -8993.24597104
  -exchange      EXHF   =         0.00000000
  -V(xc)+E(xc)   XCENC  =      -107.84818714
  PAW double counting   =      5330.96284469    -5321.47349690
  entropy T*S    EENTRO =        -0.07370633
  eigenvalues    EBANDS =        25.51716000
  atomic energy  EATOM  =      5556.49993434
  ---------------------------------------------------
  free energy    TOTEN  =       168.43827318 eV

  energy without entropy =      168.51197951  energy(sigma->0) =      168.47512635


--------------------------------------------------------------------------------------------------------




--------------------------------------- Iteration      1(   3)  ---------------------------------------


    TRIAL :  cpu time      9.2867: real time      9.2932
    CORREC:  cpu time      0.0007: real time      0.0007
    --------------------------------------------
      LOOP:  cpu time      9.2891: real time      9.3027

 eigenvalue-minimisations  :   256
 total energy-change (2. order) :-0.2179045E+03  (-0.2064972E+03)
 number of electron      66.0000000 magnetization 
 augmentation part       66.0000000 magnetization 

 Free energy of the ion-electron system (eV)
  ---------------------------------------------------
  alpha Z        PSCENC =         5.24158223
  Ewald energy   TEWEN  =      3672.85811332
  -Hartree energ DENC   =     -8993.24597104
  -exchange      EXHF   =         0.00000000
  -V(xc)+E(xc)   XCENC  =      -107.84818714
  PAW double counting   =      5330.96284469    -5321.47349690
  entropy T*S    EENTRO =        -0.00000000
  eigenvalues    EBANDS =      -192.46102030
  atomic energy  EATOM  =      5556.49993434
  ---------------------------------------------------
  free energy    TOTEN  =       -49.46620079 eV

  energy without entropy =      -49.46620079  energy(sigma->0) =      -49.46620079


--------------------------------------------------------------------------------------------------------




--------------------------------------- Iteration      1(   4)  ---------------------------------------


    TRIAL :  cpu time      5.9273: real time      5.9324
    CORREC:  cpu time      0.0007: real time      0.0007
    --------------------------------------------
      LOOP:  cpu time      5.9300: real time      5.9416

 eigenvalue-minimisations  :   128
 total energy-change (2. order) :-0.3063653E+02  (-0.3005943E+02)
 number of electron      66.0000000 magnetization 
 augmentation part       66.0000000 magnetization 

 Free energy of the ion-electron system (eV)
  ---------------------------------------------------
  alpha Z        PSCENC =         5.24158223
  Ewald energy   TEWEN  =      3672.85811332
  -Hartree energ DENC   =     -8993.24597104
  -exchange      EXHF   =         0.00000000
  -V(xc)+E(xc)   XCENC  =      -107.84818714
  PAW double counting   =      5330.96284469    -5321.47349690
  entropy T*S    EENTRO =        -0.00000000
  eigenvalues    EBANDS =      -223.09754877
  atomic energy  EATOM  =      5556.49993434
  ---------------------------------------------------
  free energy    TOTEN  =       -80.10272926 eV

  energy without entropy =      -80.10272926  energy(sigma->0) =      -80.10272926


--------------------------------------------------------------------------------------------------------




--------------------------------------- Iteration      1(   5)  ---------------------------------------


    TRIAL :  cpu time      7.6239: real time      7.6298
    CORREC:  cpu time      0.0006: real time      0.0006
    CHARGE:  cpu time      1.0252: real time      1.0263
    --------------------------------------------
      LOOP:  cpu time      8.6580: real time      8.6653

 eigenvalue-minimisations  :   192
 total energy-change (2. order) :-0.1017052E+01  (-0.1016779E+01)
 number of electron      66.0000005 magnetization 
 augmentation part       27.8299519 magnetization 

 Free energy of the ion-electron system (eV)
  ---------------------------------------------------
  alpha Z        PSCENC =         5.24158223
  Ewald energy   TEWEN  =      3672.85811332
  -Hartree energ DENC   =     -8993.24597104
  -exchange      EXHF   =         0.00000000
  -V(xc)+E(xc)   XCENC  =      -107.84818714
  PAW double counting   =      5330.96284469    -5321.47349690
  entropy T*S    EENTRO =        -0.00000000
  eigenvalues    EBANDS =      -224.11460076
  atomic energy  EATOM  =      5556.49993434
  ---------------------------------------------------
  free energy    TOTEN  =       -81.11978126 eV

  energy without entropy =      -81.11978126  energy(sigma->0) =      -81.11978126


--------------------------------------------------------------------------------------------------------




--------------------------------------- Iteration      1(   6)  ---------------------------------------


    POTLOK:  cpu time      5.0004: real time      5.0037
    SETDIJ:  cpu time      4.3659: real time      4.3711
    TRIAL :  cpu time      5.3666: real time      5.3712
    CORREC:  cpu time     11.1931: real time     11.2021
    CHARGE:  cpu time      1.0015: real time      1.0021
    --------------------------------------------
      LOOP:  cpu time     26.9302: real time     26.9601

 eigenvalue-minimisations  :     0
 total energy-change (2. order) :-0.1380698E+03  (-0.1846515E+02)
 number of electron      66.0000005 magnetization 
 augmentation part       24.6739718 magnetization 

 Free energy of the ion-electron system (eV)
  ---------------------------------------------------
  alpha Z        PSCENC =         5.24158223
  Ewald energy   TEWEN  =      3672.85811332
  -Hartree energ DENC   =     -9012.00497390
  -exchange      EXHF   =         0.00000000
  -V(xc)+E(xc)   XCENC  =       -14.34133341
  PAW double counting   =      9206.75142127    -9171.42373562
  entropy T*S    EENTRO =        -0.00000000
  eigenvalues    EBANDS =      -462.77055241
  atomic energy  EATOM  =      5556.49993434
  ---------------------------------------------------
  free energy    TOTEN  =      -219.18954418 eV

  energy without entropy =     -219.18954418  energy(sigma->0) =     -219.18954418


--------------------------------------------------------------------------------------------------------




--------------------------------------- Iteration      1(   7)  ---------------------------------------


    POTLOK:  cpu time      4.5208: real time      4.5241
    SETDIJ:  cpu time      4.3622: real time      4.3655
    TRIAL :  cpu time      5.3558: real time      5.3590
    CORREC:  cpu time     11.2775: real time     11.2878
    CHARGE:  cpu time      1.0015: real time      1.0026
    --------------------------------------------
      LOOP:  cpu time     26.5273: real time     26.5486

 eigenvalue-minimisations  :     0
 total energy-change (2. order) :-0.1833705E+02  (-0.4527775E+01)
 number of electron      66.0000005 magnetization 
 augmentation part       24.5677401 magnetization 

 Free energy of the ion-electron system (eV)
  ---------------------------------------------------
  alpha Z        PSCENC =         5.24158223
  Ewald energy   TEWEN  =      3672.85811332
  -Hartree energ DENC   =     -8833.34698102
  -exchange      EXHF   =         0.00000000
  -V(xc)+E(xc)   XCENC  =        -3.01020330
  PAW double counting   =      7186.52419680    -7188.36178778
  entropy T*S    EENTRO =        -0.00000000
  eigenvalues    EBANDS =      -633.93145326
  atomic energy  EATOM  =      5556.49993434
  ---------------------------------------------------
  free energy    TOTEN  =      -237.52659866 eV

  energy without entropy =     -237.52659866  energy(sigma->0) =     -237.52659866


--------------------------------------------------------------------------------------------------------




--------------------------------------- Iteration      1(   8)  ---------------------------------------


    POTLOK:  cpu time      4.5594: real time      4.5627
    SETDIJ:  cpu time      4.3623: real time      4.3656
    TRIAL :  cpu time      5.3101: real time      5.3140
    CORREC:  cpu time     10.6791: real time     10.6871
    CHARGE:  cpu time      1.0030: real time      1.0036
    --------------------------------------------
      LOOP:  cpu time     25.9321: real time     25.9581

 eigenvalue-minimisations  :     0
 total energy-change (2. order) :-0.4547382E+01  (-0.7196749E+00)
 number of electron      66.0000005 magnetization 
 augmentation part       24.6327823 magnetization 

 Free energy of the ion-electron system (eV)
  ---------------------------------------------------
  alpha Z        PSCENC =         5.24158223
  Ewald energy   TEWEN  =      3672.85811332
  -Hartree energ DENC   =     -8994.32252718
  -exchange      EXHF   =         0.00000000
  -V(xc)+E(xc)   XCENC  =         0.07006209
  PAW double counting   =      6680.51713749    -6682.60053098
  entropy T*S    EENTRO =        -0.00000000
  eigenvalues    EBANDS =      -480.33775219
  atomic energy  EATOM  =      5556.49993434
  ---------------------------------------------------
  free energy    TOTEN  =      -242.07398087 eV

  energy without entropy =     -242.07398087  energy(sigma->0) =     -242.07398087


--------------------------------------------------------------------------------------------------------




--------------------------------------- Iteration      1(   9)  ---------------------------------------


    POTLOK:  cpu time      3.7884: real time      3.7929
    SETDIJ:  cpu time      4.3614: real time      4.3648
    TRIAL :  cpu time      5.2926: real time      5.2967
    CORREC:  cpu time     10.0825: real time     10.0902
    CHARGE:  cpu time      1.0020: real time      1.0025
    --------------------------------------------
      LOOP:  cpu time     24.5297: real time     24.5568

 eigenvalue-minimisations  :     0
 total energy-change (2. order) :-0.7167024E+00  (-0.2266546E+00)
 number of electron      66.0000005 magnetization 
 augmentation part       24.4907950 magnetization 

 Free energy of the ion-electron system (eV)
  ---------------------------------------------------
  alpha Z        PSCENC =         5.24158223
  Ewald energy   TEWEN  =      3672.85811332
  -Hartree energ DENC   =     -9001.10674711
  -exchange      EXHF   =         0.00000000
  -V(xc)+E(xc)   XCENC  =        -0.11811250
  PAW double counting   =      6370.22865180    -6371.05476176
  entropy T*S    EENTRO =        -0.00000000
  eigenvalues    EBANDS =      -475.33934361
  atomic energy  EATOM  =      5556.49993434
  ---------------------------------------------------
  free energy    TOTEN  =      -242.79068329 eV

  energy without entropy =     -242.79068329  energy(sigma->0) =     -242.79068329


--------------------------------------------------------------------------------------------------------




--------------------------------------- Iteration      1(  10)  ---------------------------------------


    POTLOK:  cpu time      3.1598: real time      3.1626
    SETDIJ:  cpu time      4.3642: real time      4.3675
    TRIAL :  cpu time      5.2980: real time      5.3018
    CORREC:  cpu time      9.7857: real time      9.7932
    CHARGE:  cpu time      0.9977: real time      0.9991
    --------------------------------------------
      LOOP:  cpu time     23.6087: real time     23.6344

 eigenvalue-minimisations  :     0
 total energy-change (2. order) :-0.2242285E+00  (-0.7610342E-01)
 number of electron      66.0000005 magnetization 
 augmentation part       24.4894770 magnetization 

 Free energy of the ion-electron system (eV)
  ---------------------------------------------------
  alpha Z        PSCENC =         5.24158223
  Ewald energy   TEWEN  =      3672.85811332
  -Hartree energ DENC   =     -8984.78774591
  -exchange      EXHF   =         0.00000000
  -V(xc)+E(xc)   XCENC  =        -0.18662368
  PAW double counting   =      6180.68210122    -6183.05418079
  entropy T*S    EENTRO =        -0.00000000
  eigenvalues    EBANDS =      -490.26809256
  atomic energy  EATOM  =      5556.49993434
  ---------------------------------------------------
  free energy    TOTEN  =      -243.01491183 eV

  energy without entropy =     -243.01491183  energy(sigma->0) =     -243.01491183


--------------------------------------------------------------------------------------------------------




--------------------------------------- Iteration      1(  11)  ---------------------------------------


    POTLOK:  cpu time      2.9955: real time      2.9974
    SETDIJ:  cpu time      4.3716: real time      4.3749
    TRIAL :  cpu time      5.3168: real time      5.3203
    CORREC:  cpu time      9.6480: real time      9.6545
    CHARGE:  cpu time      0.9942: real time      0.9957
    --------------------------------------------
      LOOP:  cpu time     23.3298: real time     23.3544

 eigenvalue-minimisations  :     0
 total energy-change (2. order) :-0.7633098E-01  (-0.3257610E-01)
 number of electron      66.0000005 magnetization 
 augmentation part       24.4941222 magnetization 

 Free energy of the ion-electron system (eV)
  ---------------------------------------------------
  alpha Z        PSCENC =         5.24158223
  Ewald energy   TEWEN  =      3672.85811332
  -Hartree energ DENC   =     -8995.16668379
  -exchange      EXHF   =         0.00000000
  -V(xc)+E(xc)   XCENC  =        -0.13858111
  PAW double counting   =      6139.97279049    -6142.43668714
  entropy T*S    EENTRO =        -0.00000000
  eigenvalues    EBANDS =      -479.92171116
  atomic energy  EATOM  =      5556.49993434
  ---------------------------------------------------
  free energy    TOTEN  =      -243.09124281 eV

  energy without entropy =     -243.09124281  energy(sigma->0) =     -243.09124281


--------------------------------------------------------------------------------------------------------




--------------------------------------- Iteration      1(  12)  ---------------------------------------


    POTLOK:  cpu time      2.7988: real time      2.8016
    SETDIJ:  cpu time      4.3547: real time      4.3582
    TRIAL :  cpu time      5.3237: real time      5.3270
    CORREC:  cpu time      9.3459: real time      9.3538
    CHARGE:  cpu time      0.9960: real time      0.9966
    --------------------------------------------
      LOOP:  cpu time     22.8218: real time     22.8473

 eigenvalue-minimisations  :     0
 total energy-change (2. order) :-0.3255497E-01  (-0.8119213E-02)
 number of electron      66.0000005 magnetization 
 augmentation part       24.4704877 magnetization 

 Free energy of the ion-electron system (eV)
  ---------------------------------------------------
  alpha Z        PSCENC =         5.24158223
  Ewald energy   TEWEN  =      3672.85811332
  -Hartree energ DENC   =     -8996.79925759
  -exchange      EXHF   =         0.00000000
  -V(xc)+E(xc)   XCENC  =        -0.09327635
  PAW double counting   =      6137.85815282    -6140.34417883
  entropy T*S    EENTRO =        -0.00000000
  eigenvalues    EBANDS =      -478.34486773
  atomic energy  EATOM  =      5556.49993434
  ---------------------------------------------------
  free energy    TOTEN  =      -243.12379777 eV

  energy without entropy =     -243.12379777  energy(sigma->0) =     -243.12379777


--------------------------------------------------------------------------------------------------------




--------------------------------------- Iteration      1(  13)  ---------------------------------------


    POTLOK:  cpu time      2.5772: real time      2.5792
    SETDIJ:  cpu time      4.3637: real time      4.3670
    TRIAL :  cpu time      5.3192: real time      5.3233
    CORREC:  cpu time      9.2701: real time      9.2775
    CHARGE:  cpu time      0.9983: real time      0.9989
    --------------------------------------------
      LOOP:  cpu time     22.5394: real time     22.5570

 eigenvalue-minimisations  :     0
 total energy-change (2. order) :-0.8111754E-02  (-0.2147484E-02)
 number of electron      66.0000005 magnetization 
 augmentation part       24.4702166 magnetization 

 Free energy of the ion-electron system (eV)
  ---------------------------------------------------
  alpha Z        PSCENC =         5.24158223
  Ewald energy   TEWEN  =      3672.85811332
  -Hartree energ DENC   =     -8992.80992925
  -exchange      EXHF   =         0.00000000
  -V(xc)+E(xc)   XCENC  =        -0.04231243
  PAW double counting   =      6136.51224011    -6139.30335217
  entropy T*S    EENTRO =        -0.00000000
  eigenvalues    EBANDS =      -482.08818568
  atomic energy  EATOM  =      5556.49993434
  ---------------------------------------------------
  free energy    TOTEN  =      -243.13190953 eV

  energy without entropy =     -243.13190953  energy(sigma->0) =     -243.13190953


--------------------------------------------------------------------------------------------------------




--------------------------------------- Iteration      1(  14)  ---------------------------------------


    POTLOK:  cpu time      2.5064: real time      2.5082
    SETDIJ:  cpu time      4.3698: real time      4.3730
    TRIAL :  cpu time      5.3118: real time      5.3154
    CORREC:  cpu time      9.2685: real time      9.2751
    CHARGE:  cpu time      0.9998: real time      1.0004
    --------------------------------------------
      LOOP:  cpu time     22.4588: real time     22.4816

 eigenvalue-minimisations  :     0
 total energy-change (2. order) :-0.2148077E-02  (-0.5949188E-03)
 number of electron      66.0000005 magnetization 
 augmentation part       24.4688363 magnetization 

 Free energy of the ion-electron system (eV)
  ---------------------------------------------------
  alpha Z        PSCENC =         5.24158223
  Ewald energy   TEWEN  =      3672.85811332
  -Hartree energ DENC   =     -8994.49095526
  -exchange      EXHF   =         0.00000000
  -V(xc)+E(xc)   XCENC  =        -0.00662125
  PAW double counting   =      6139.99701995    -6142.80941762
  entropy T*S    EENTRO =        -0.00000000
  eigenvalues    EBANDS =      -480.42371332
  atomic energy  EATOM  =      5556.49993434
  ---------------------------------------------------
  free energy    TOTEN  =      -243.13405761 eV

  energy without entropy =     -243.13405761  energy(sigma->0) =     -243.13405761


--------------------------------------------------------------------------------------------------------




--------------------------------------- Iteration      1(  15)  ---------------------------------------


    POTLOK:  cpu time      2.5023: real time      2.5051
    SETDIJ:  cpu time      4.3741: real time      4.3774
    TRIAL :  cpu time      5.2825: real time      5.2864
    CORREC:  cpu time      9.2047: real time      9.2119
    CHARGE:  cpu time      0.9961: real time      0.9967
    --------------------------------------------
      LOOP:  cpu time     22.3647: real time     22.3885

 eigenvalue-minimisations  :     0
 total energy-change (2. order) :-0.5956898E-03  (-0.1266693E-03)
 number of electron      66.0000005 magnetization 
 augmentation part       24.4669138 magnetization 

 Free energy of the ion-electron system (eV)
  ---------------------------------------------------
  alpha Z        PSCENC =         5.24158223
  Ewald energy   TEWEN  =      3672.85811332
  -Hartree energ DENC   =     -8995.01030673
  -exchange      EXHF   =         0.00000000
  -V(xc)+E(xc)   XCENC  =         0.00538313
  PAW double counting   =      6140.91016958    -6143.74434385
  entropy T*S    EENTRO =        -0.00000000
  eigenvalues    EBANDS =      -479.89518531
  atomic energy  EATOM  =      5556.49993434
  ---------------------------------------------------
  free energy    TOTEN  =      -243.13465330 eV

  energy without entropy =     -243.13465330  energy(sigma->0) =     -243.13465330


--------------------------------------------------------------------------------------------------------




--------------------------------------- Iteration      1(  16)  ---------------------------------------


    POTLOK:  cpu time      2.4611: real time      2.4633
    SETDIJ:  cpu time      4.3634: real time      4.3668
    TRIAL :  cpu time      5.3292: real time      5.3325
    CORREC:  cpu time      9.2382: real time      9.2460
    CHARGE:  cpu time      0.9992: real time      1.0002
    --------------------------------------------
      LOOP:  cpu time     22.3936: real time     22.4186

 eigenvalue-minimisations  :     0
 total energy-change (2. order) :-0.1272434E-03  (-0.4451678E-04)
 number of electron      66.0000005 magnetization 
 augmentation part       24.4682455 magnetization 

 Free energy of the ion-electron system (eV)
  ---------------------------------------------------
  alpha Z        PSCENC =         5.24158223
  Ewald energy   TEWEN  =      3672.85811332
  -Hartree energ DENC   =     -8994.42521942
  -exchange      EXHF   =         0.00000000
  -V(xc)+E(xc)   XCENC  =         0.00142558
  PAW double counting   =      6140.53191649    -6143.38817038
  entropy T*S    EENTRO =        -0.00000000
  eigenvalues    EBANDS =      -480.45436270
  atomic energy  EATOM  =      5556.49993434
  ---------------------------------------------------
  free energy    TOTEN  =      -243.13478054 eV

  energy without entropy =     -243.13478054  energy(sigma->0) =     -243.13478054


--------------------------------------------------------------------------------------------------------




--------------------------------------- Iteration      1(  17)  ---------------------------------------


    POTLOK:  cpu time      2.4493: real time      2.4515
    SETDIJ:  cpu time      4.3599: real time      4.3626
    TRIAL :  cpu time      5.3036: real time      5.3077
    CORREC:  cpu time      9.1863: real time      9.1937
    CHARGE:  cpu time      1.0050: real time      1.0057
    --------------------------------------------
      LOOP:  cpu time     22.3134: real time     22.3305

 eigenvalue-minimisations  :     0
 total energy-change (2. order) :-0.4330497E-04  (-0.2349882E-04)
 number of electron      66.0000005 magnetization 
 augmentation part       24.4682202 magnetization 

 Free energy of the ion-electron system (eV)
  ---------------------------------------------------
  alpha Z        PSCENC =         5.24158223
  Ewald energy   TEWEN  =      3672.85811332
  -Hartree energ DENC   =     -8994.66913321
  -exchange      EXHF   =         0.00000000
  -V(xc)+E(xc)   XCENC  =        -0.00239561
  PAW double counting   =      6141.48792370    -6144.33006699
  entropy T*S    EENTRO =        -0.00000000
  eigenvalues    EBANDS =      -480.22078163
  atomic energy  EATOM  =      5556.49993434
  ---------------------------------------------------
  free energy    TOTEN  =      -243.13482384 eV

  energy without entropy =     -243.13482384  energy(sigma->0) =     -243.13482384


--------------------------------------------------------------------------------------------------------




--------------------------------------- Iteration      1(  18)  ---------------------------------------


    POTLOK:  cpu time      2.4486: real time      2.4498
    SETDIJ:  cpu time      4.3554: real time      4.3606
    TRIAL :  cpu time      5.2851: real time      5.2889
    CORREC:  cpu time      9.2090: real time      9.2161
    CHARGE:  cpu time      0.9972: real time      0.9987
    --------------------------------------------
      LOOP:  cpu time     22.2983: real time     22.3234

 eigenvalue-minimisations  :     0
 total energy-change (2. order) :-0.8459958E-05  (-0.1365993E-04)
 number of electron      66.0000005 magnetization 
 augmentation part       24.4682343 magnetization 

 Free energy of the ion-electron system (eV)
  ---------------------------------------------------
  alpha Z        PSCENC =         5.24158223
  Ewald energy   TEWEN  =      3672.85811332
  -Hartree energ DENC   =     -8994.81067060
  -exchange      EXHF   =         0.00000000
  -V(xc)+E(xc)   XCENC  =        -0.00131632
  PAW double counting   =      6143.35613698    -6146.20064362
  entropy T*S    EENTRO =        -0.00000000
  eigenvalues    EBANDS =      -480.07796863
  atomic energy  EATOM  =      5556.49993434
  ---------------------------------------------------
  free energy    TOTEN  =      -243.13483230 eV

  energy without entropy =     -243.13483230  energy(sigma->0) =     -243.13483230


--------------------------------------------------------------------------------------------------------




--------------------------------------- Iteration      1(  19)  ---------------------------------------


    POTLOK:  cpu time      2.4536: real time      2.4548
    SETDIJ:  cpu time      4.3589: real time      4.3623
    TRIAL :  cpu time      5.3198: real time      5.3233
    CORREC:  cpu time      9.2166: real time      9.2249
    CHARGE:  cpu time      1.0016: real time      1.0026
    --------------------------------------------
      LOOP:  cpu time     22.3542: real time     22.3787

 eigenvalue-minimisations  :     0
 total energy-change (2. order) :-0.1365747E-04  (-0.2294203E-05)
 number of electron      66.0000005 magnetization 
 augmentation part       24.4686837 magnetization 

 Free energy of the ion-electron system (eV)
  ---------------------------------------------------
  alpha Z        PSCENC =         5.24158223
  Ewald energy   TEWEN  =      3672.85811332
  -Hartree energ DENC   =     -8994.64548430
  -exchange      EXHF   =         0.00000000
  -V(xc)+E(xc)   XCENC  =        -0.00319014
  PAW double counting   =      6143.24448069    -6146.08816872
  entropy T*S    EENTRO =        -0.00000000
  eigenvalues    EBANDS =      -480.24211339
  atomic energy  EATOM  =      5556.49993434
  ---------------------------------------------------
  free energy    TOTEN  =      -243.13484596 eV

  energy without entropy =     -243.13484596  energy(sigma->0) =     -243.13484596


--------------------------------------------------------------------------------------------------------




--------------------------------------- Iteration      1(  20)  ---------------------------------------


    POTLOK:  cpu time      2.4636: real time      2.4656
    SETDIJ:  cpu time      4.3587: real time      4.3621
    TRIAL :  cpu time      5.3141: real time      5.3178
    CORREC:  cpu time      9.2076: real time      9.2145
    CHARGE:  cpu time      1.0014: real time      1.0021
    --------------------------------------------
      LOOP:  cpu time     22.3479: real time     22.3721

 eigenvalue-minimisations  :     0
 total energy-change (2. order) :-0.1902928E-05  (-0.4130920E-06)
 number of electron      66.0000005 magnetization 
 augmentation part       24.4685682 magnetization 

 Free energy of the ion-electron system (eV)
  ---------------------------------------------------
  alpha Z        PSCENC =         5.24158223
  Ewald energy   TEWEN  =      3672.85811332
  -Hartree energ DENC   =     -8994.76422260
  -exchange      EXHF   =         0.00000000
  -V(xc)+E(xc)   XCENC  =        -0.00300232
  PAW double counting   =      6143.44409864    -6146.28288589
  entropy T*S    EENTRO =        -0.00000000
  eigenvalues    EBANDS =      -480.12846558
  atomic energy  EATOM  =      5556.49993434
  ---------------------------------------------------
  free energy    TOTEN  =      -243.13484787 eV

  energy without entropy =     -243.13484787  energy(sigma->0) =     -243.13484787


--------------------------------------------------------------------------------------------------------




--------------------------------------- Iteration      1(  21)  ---------------------------------------


    POTLOK:  cpu time      2.4541: real time      2.4563
    SETDIJ:  cpu time      4.3521: real time      4.3572
    TRIAL :  cpu time      5.2848: real time      5.2887
    CORREC:  cpu time      9.2150: real time      9.2221
    EDDIAG:  cpu time      1.3979: real time      1.3991
    CHARGE:  cpu time      1.0020: real time      1.0026
    --------------------------------------------
      LOOP:  cpu time     23.7175: real time     23.7378

 eigenvalue-minimisations  :     0
 total energy-change (2. order) :-0.3966306E-06  (-0.1317604E-06)
 number of electron      66.0000005 magnetization 
 augmentation part       24.4684756 magnetization 

 Free energy of the ion-electron system (eV)
  ---------------------------------------------------
  alpha Z        PSCENC =         5.24158223
  Ewald energy   TEWEN  =      3672.85811332
  -Hartree energ DENC   =     -8994.73367089
  -exchange      EXHF   =         0.00000000
  -V(xc)+E(xc)   XCENC  =        -0.00271874
  PAW double counting   =      6143.43351691    -6146.27360178
  entropy T*S    EENTRO =        -0.00000000
  eigenvalues    EBANDS =      -480.15800365
  atomic energy  EATOM  =      5556.49993434
  ---------------------------------------------------
  free energy    TOTEN  =      -243.13484826 eV

  energy without entropy =     -243.13484826  energy(sigma->0) =     -243.13484826


--------------------------------------------------------------------------------------------------------


  average scaling for gradient   1.2834


 average (electrostatic) potential at core
  the test charge radii are     1.2098
  (the norm of the test charge is              1.0000)
       1 -64.7901       2 -64.6219       3 -64.7901       4 -64.7904       5 -64.6231
       6 -64.6224
 
 
 
 E-fermi :  -5.2566     XC(G=0):  -0.4250     alpha+bet : -0.1781

 Fermi energy:        -5.2565721126

 k-point     1 :       0.0000    0.0000    0.0000
  band No.  band energies     occupation 
      1     -10.0450      2.00000
      2      -9.5812      2.00000
      3      -9.5805      2.00000
      4      -8.8832      2.00000
      5      -8.4671      2.00000
      6      -8.4653      2.00000
      7      -8.3928      2.00000
      8      -8.3921      2.00000
      9      -7.9584      2.00000
     10      -7.6616      2.00000
     11      -7.6598      2.00000
     12      -7.3297      2.00000
     13      -7.2499      2.00000
     14      -7.2496      2.00000
     15      -7.1916      2.00000
     16      -7.1360      2.00000
     17      -7.1354      2.00000
     18      -7.1128      2.00000
     19      -6.8612      2.00000
     20      -6.8597      2.00000
     21      -6.5780      2.00000
     22      -6.5764      2.00000
     23      -6.5151      2.00000
     24      -6.5147      2.00000
     25      -6.4253      2.00000
     26      -6.2789      2.00000
     27      -6.2785      2.00000
     28      -6.2252      2.00000
     29      -6.2251      2.00000
     30      -6.1815      2.00000
     31      -6.1032      2.00000
     32      -5.4948      2.00000
     33      -5.4939      2.00000
     34      -3.1222      0.00000
     35      -2.9606      0.00000
     36      -2.9592      0.00000
     37      -1.5509      0.00000
     38      -0.5429      0.00000
     39      -0.5426      0.00000
     40      -0.0240      0.00000
     41      -0.0180      0.00000
     42      -0.0148      0.00000
     43       0.2666      0.00000
     44       0.2673      0.00000
     45       0.3427      0.00000
     46       0.3980      0.00000
     47       0.4175      0.00000
     48       0.4510      0.00000
     49       0.4790      0.00000
     50       0.5151      0.00000
     51       0.6322      0.00000
     52       0.7416      0.00000
     53       0.7472      0.00000
     54       0.7581      0.00000
     55       0.7715      0.00000
     56       0.8255      0.00000
     57       0.8303      0.00000
     58       0.8593      0.00000
     59       0.8768      0.00000
     60       0.9116      0.00000
     61       0.9356      0.00000
     62       1.0711      0.00000
     63       1.1588      0.00000
     64       1.1641      0.00000


--------------------------------------------------------------------------------------------------------


 soft charge-density along one line, spin component           1
         0         1         2         3         4         5         6         7         8         9
 total charge-density along one line
 
 pseudopotential strength for first ion, spin component:           1
-10.241   0.006   0.011  -0.014  -0.004 -10.338   0.006   0.010
  0.006 -10.226  -0.013  -0.019   0.006   0.006 -10.324  -0.012
  0.011  -0.013 -10.179   0.006  -0.016   0.010  -0.012 -10.279
 -0.014  -0.019   0.006 -10.184   0.007  -0.013  -0.018   0.005
 -0.004   0.006  -0.016   0.007 -10.241  -0.004   0.005  -0.014
-10.338   0.006   0.010  -0.013  -0.004 -10.417   0.006   0.009
  0.006 -10.324  -0.012  -0.018   0.005   0.006 -10.404  -0.012
  0.010  -0.012 -10.279   0.005  -0.014   0.009  -0.012 -10.362
 -0.013  -0.018   0.005 -10.284   0.007  -0.012  -0.017   0.005
 -0.004   0.005  -0.014   0.007 -10.337  -0.004   0.004  -0.013
  0.022   0.017  -0.036  -0.009  -0.028   0.023   0.018  -0.038
  0.031   0.024  -0.050  -0.013  -0.039   0.032   0.025  -0.053
  0.005  -0.001   0.001  -0.001  -0.000   0.004  -0.001   0.001
 -0.001  -0.002  -0.005   0.008  -0.000  -0.001  -0.001  -0.005
 -0.004  -0.001  -0.003  -0.002   0.008  -0.003  -0.001  -0.002
  0.007  -0.002   0.002  -0.001   0.000   0.006  -0.002   0.001
 -0.001  -0.002  -0.007   0.011  -0.000  -0.001  -0.002  -0.006
 -0.005  -0.001  -0.004  -0.003   0.011  -0.005  -0.001  -0.003
 total augmentation occupancy for first ion, spin component:           1
  4.134  -0.096  -0.267   0.266  -0.224  -2.133   0.119   0.393  -0.295   0.290  -0.937   0.202   0.226   0.054  -0.035  -0.008
 -0.096   3.656  -0.001   0.129  -0.174   0.119  -1.460   0.033  -0.147   0.283  -0.698   0.182  -0.106  -0.033  -0.001   0.004
 -0.267  -0.001   3.373   0.063   0.296   0.392   0.033  -1.191  -0.054  -0.441   1.490  -0.386   0.001  -0.004  -0.080   0.001
  0.266   0.129   0.063   3.336  -0.300  -0.296  -0.147  -0.053  -1.059   0.332   0.355  -0.130   0.030   0.090  -0.128  -0.002
 -0.224  -0.174   0.296  -0.300   4.344   0.290   0.284  -0.442   0.331  -2.373   1.187  -0.242   0.079  -0.040   0.209  -0.004
 -2.133   0.119   0.392  -0.296   0.290   2.074  -0.134  -0.492   0.318  -0.345   0.804  -0.190  -0.209  -0.047   0.036   0.012
  0.119  -1.460   0.033  -0.147   0.284  -0.134   1.248  -0.059   0.162  -0.369   0.606  -0.171   0.099   0.035  -0.005  -0.006
  0.393   0.033  -1.191  -0.053  -0.442  -0.492  -0.059   0.993   0.044   0.558  -1.293   0.364  -0.006   0.006   0.089   0.000
 -0.295  -0.147  -0.054  -1.059   0.331   0.318   0.162   0.044   0.785  -0.355  -0.316   0.123  -0.028  -0.098   0.127   0.002
  0.290   0.283  -0.441   0.332  -2.373  -0.345  -0.369   0.558  -0.355   2.339  -1.016   0.227  -0.070   0.037  -0.201   0.005
 -0.937  -0.698   1.490   0.355   1.187   0.804   0.606  -1.293  -0.316  -1.016   2.920  -0.779   0.037   0.060  -0.144  -0.002
  0.202   0.182  -0.386  -0.130  -0.242  -0.190  -0.171   0.364   0.123   0.227  -0.779   0.217  -0.015  -0.023   0.056   0.001
  0.226  -0.106   0.001   0.030   0.079  -0.209   0.099  -0.006  -0.028  -0.070   0.037  -0.015   0.194   0.028   0.042  -0.011
  0.054  -0.033  -0.004   0.090  -0.040  -0.047   0.035   0.006  -0.098   0.037   0.060  -0.023   0.028   0.036  -0.011  -0.002
 -0.035  -0.001  -0.080  -0.128   0.209   0.036  -0.005   0.089   0.127  -0.201  -0.144   0.056   0.042  -0.011   0.086  -0.002
 -0.008   0.004   0.001  -0.002  -0.004   0.012  -0.006   0.000   0.002   0.005  -0.002   0.001  -0.011  -0.002  -0.002   0.001
 -0.003   0.000  -0.004   0.002   0.002   0.003  -0.002   0.000   0.005  -0.002  -0.004   0.001  -0.002  -0.002   0.001   0.000
 -0.001  -0.000   0.002   0.005  -0.005  -0.001   0.000  -0.005  -0.007   0.010   0.009  -0.003  -0.002   0.001  -0.005   0.000


------------------------ aborting loop because EDIFF is reached ----------------------------------------


    FORLOC:  cpu time      0.0567: real time      0.0568
    FORNL :  cpu time      0.6101: real time      0.6100
    STRESS:  cpu time     16.0823: real time     16.0949
    FORCOR:  cpu time      2.2838: real time      2.2858
    OFIELD:  cpu time      0.0032: real time      0.0032

  FORCE on cell =-STRESS in cart. coord.  units (eV):
  Direction    XX          YY          ZZ          XY          YZ          ZX
  --------------------------------------------------------------------------------------
  Alpha Z     5.24158     5.24158     5.24158
  Ewald    2178.47219  2379.26507  -884.88125   284.61872   822.71247 -1137.49390
  Hartree  3732.70637  3887.31009  1374.69344   215.00803   622.39451  -860.55052
  E(xc)    -151.21501  -151.03931  -153.89888     0.26709     0.76717    -1.06038
  Local   -6912.88027 -7265.14637 -1539.38614  -494.86001 -1431.42519  1979.12993
  n-local  -102.71633  -103.86650   -85.25550    -1.73453    -4.99459     6.90362
  augment   328.65522   327.99429   338.77108    -1.00689    -2.89063     3.99578
  Kinetic   922.67876   921.24983   944.52093    -2.17143    -6.24274     8.62905
  Fock        0.00000     0.00000     0.00000     0.00000     0.00000     0.00000
  -------------------------------------------------------------------------------------
  Total       0.94253     1.00868    -0.19474     0.12099     0.32100    -0.44643
  in kB       0.18876     0.20201    -0.03900     0.02423     0.06429    -0.08941
  external pressure =        0.12 kB  Pullay stress =        0.00 kB


 VOLUME and BASIS-vectors are now :
 -----------------------------------------------------------------------------
  energy-cutoff  :      520.00
  volume of cell :     8000.00
      direct lattice vectors                 reciprocal lattice vectors
    20.000000000  0.000000000  0.000000000     0.050000000  0.000000000  0.000000000
     0.000000000 20.000000000  0.000000000     0.000000000  0.050000000  0.000000000
     0.000000000  0.000000000 20.000000000     0.000000000  0.000000000  0.050000000

  length of vectors
    20.000000000 20.000000000 20.000000000     0.050000000  0.050000000  0.050000000


 FORCES acting on ions:
    Electron-Ion                     Ewald-Force                    Non-Local-Force
 -----------------------------------------------------------------------------------------------
   -.436E+03 0.114E+03 0.182E+03   0.435E+03 -.114E+03 -.181E+03   0.123E+01 -.317E+00 -.515E+00
   -.116E+03 0.576E+03 0.186E+03   0.115E+03 -.569E+03 -.184E+03   0.148E+01 -.737E+01 -.236E+01
   0.345E+03 0.340E+03 -.349E+02   -.344E+03 -.339E+03 0.349E+02   -.970E+00 -.961E+00 0.978E-01
   0.913E+02 -.454E+03 -.147E+03   -.911E+02 0.453E+03 0.146E+03   -.251E+00 0.128E+01 0.413E+00
   -.438E+03 -.431E+03 0.435E+02   0.433E+03 0.427E+03 -.430E+02   0.560E+01 0.551E+01 -.551E+00
   0.554E+03 -.145E+03 -.230E+03   -.547E+03 0.143E+03 0.227E+03   -.708E+01 0.185E+01 0.292E+01
 -----------------------------------------------------------------------------------------------
   -.127E-04 0.640E-02 -.272E-02   0.000E+00 -.142E-12 -.284E-13   -.119E-02 -.782E-02 0.129E-02
 
 
 POSITION                                       TOTAL-FORCE (eV/Angst)
 -----------------------------------------------------------------------------------
     11.72229      9.98156      9.29675         0.138988     -0.037081     -0.055360
     10.85223      7.53921      8.98836         0.049294     -0.242742     -0.077660
      9.15018      9.23717     10.00701        -0.110311     -0.111039      0.008284
      9.98472     11.85292     10.37429        -0.027578      0.144103      0.045843
     12.42563     12.46631      9.68060         0.185830      0.184636     -0.019709
      7.57852     11.06464     11.01012        -0.236222      0.062122      0.098602
 -----------------------------------------------------------------------------------
    total drift:                               -0.001207     -0.001413     -0.001437


--------------------------------------------------------------------------------------------------------



  FREE ENERGIE OF THE ION-ELECTRON SYSTEM (eV)
  ---------------------------------------------------
  free  energy   TOTEN  =      -243.13484826 eV

  energy  without entropy=     -243.13484826  energy(sigma->0) =     -243.13484826
 


--------------------------------------------------------------------------------------------------------


    POTLOK:  cpu time      6.8029: real time      6.8075


--------------------------------------------------------------------------------------------------------


 stress matrix after NEB project (eV)
      0.94253      0.12099     -0.44643
      0.12099      1.00868      0.32100
     -0.44643      0.32100     -0.19474
  FORCES: max atom, RMS     0.263405    0.215147
  FORCE total and by dimension    0.527001    0.242742
  Stress total and by dimension    1.605512    1.008681
     LOOP+:  cpu time    450.2408: real time    450.7904
    4ORBIT:  cpu time      0.0000: real time      0.0000

 total amount of memory used by VASP MPI-rank0   255923. kBytes
=======================================================================

   base      :      30000. kBytes
   nonlr-proj:       3533. kBytes
   fftplans  :      64991. kBytes
   grid      :     147000. kBytes
   one-center:         46. kBytes
   wavefun   :      10353. kBytes
 
  
  
 General timing and accounting informations for this job:
 ========================================================
  
                  Total CPU time used (sec):      465.282
                            User time (sec):      456.146
                          System time (sec):        9.136
                         Elapsed time (sec):      474.541
  
                   Maximum memory used (kb):     1690284.
                   Average memory used (kb):          N/A
  
                          Minor page faults:       400773
                          Major page faults:            0
                 Voluntary context switches:         5421
 
 PROFILE, used timers:     541
 =============================
 
 index                 routine                    time                            calls level
----------------------------------------------------------------------------------------------
    1    total_time                          474.541625                                1   1
    2      crpa_reader                           0.000242                              1   2
    3      inisym                                0.045213                              1   2
    4        posmap                                0.000018                            2   3
    5      brgrid                                0.005277                              1   2
    6      stufak                                0.033557                              1   2
    7      m_sumb_d                              0.009549                              7   2
    8      fft3d_mpi                             0.081248                              2   2
    9        fftbrc_mpi                            0.077447                            2   3
   10          fftbas_plan_mpi                       0.077441                          2   4
   11            dfftw_execute                         0.030419                        6   5
   12            map_forward                           0.044981                        4   5
   13              map_gather                            0.008159                      2   6
   14              m_alltoallv_z                         0.023517                      2   6
   15              map_scatter                           0.013225                      2   6
   16      rspher_all                            0.024100                              2   2
   17      m_bcast_z                             0.467673                             66   2
   18      densta                                0.003001                              2   2
   19        m_sumb_d                              0.002096                           39   3
   20      setdij_                               0.015623                              2   2
   21        m_sumb_d                              0.003616                            2   3
   22      vectorpot                             0.000023                              1   2
   23      proall                                0.218791                              1   2
   24        phaser                                0.003913                            1   3
   25        rpro_isp                              0.214830                            1   3
   26          fftwav_mpi                            0.208223                          2   4
   27            fft3d_mpi                             0.164811                        2   5
   28              fftbas_mpi                            0.164802                      2   6
   29                fftbas_plan_mpi                       0.164797                    2   7
   30                  dfftw_execute                         0.107225                  6   8
   31                  map_forward                           0.054687                  4   8
   32                    map_gather                            0.013251                2   9
   33                    m_alltoallv_z                         0.009636                2   9
   34                    map_scatter                           0.011714                2   9
   35          rpromu                                0.004208                          1   4
   36            crrexp_mul_wave                       0.000457                       12   5
   37            rpromu_gemm                           0.003406                        6   5
   38            m_sumb_d                              0.000155                        2   5
   39      orthch                                0.067844                              1   2
   40        overl                                 0.000039                            1   3
   41        redis_proj                            0.007315                            3   3
   42          m_alltoall_d                          0.007072                          6   4
   43        redis_pw                              0.018955                            2   3
   44          m_alltoall_d                          0.015664                          4   4
   45        orth1                                 0.017627                            2   3
   46        m_sumb_d                              0.000461                            1   3
   47        choleski                              0.016008                            1   3
   48        lincom                                0.007247                            1   3
   49      redis_pw_over_bands                   0.000001                              1   2
   50      fewald                                0.006530                              1   2
   51        rsp                                   0.000748                            1   3
   52        rcp                                   0.000086                            1   3
   53        m_sumb_d                              0.000368                            5   3
   54      elmin_all                           420.534931                              1   2
   55        potlok                                6.212039                           33   3
   56          fft3d_mpi                             4.879488                        165   4
   57            fftbrc_mpi                            4.526833                      165   5
   58              fftbas_plan_mpi                       4.526348                    165   6
   59                dfftw_execute                         1.903927                  495   7
   60                map_forward                           1.534497                  198   7
   61                  map_gather                            0.167424                132   8
   62                  m_alltoallv_z                         0.633369                132   8
   63                  map_scatter                           0.731178                132   8
   64                map_backward                          0.968055                  132   7
   65                  map_gather                            0.299500                 66   8
   66                  m_alltoallv_z                         0.527682                 66   8
   67                  map_scatter                           0.139558                 66   8
   68          pothar                                0.220189                         33   4
   69            m_sumb_d                              0.075244                       33   5
   70          m_bcast_d                             0.410035                         33   4
   71        potlok_metagga                       91.360819                           33   3
   72          fft3d_mpi                            16.610269                        561   4
   73            fftbrc_mpi                           15.514303                      561   5
   74              fftbas_plan_mpi                      15.512627                    561   6
   75                dfftw_execute                         6.537268                 1683   7
   76                map_forward                           5.558768                  726   7
   77                  map_gather                            0.664221                429   8
   78                  m_alltoallv_z                         2.511783                429   8
   79                  map_scatter                           2.374262                429   8
   80                map_backward                          3.014865                  396   7
   81                  map_gather                            0.898243                198   8
   82                  m_alltoallv_z                         1.661540                198   8
   83                  map_scatter                           0.450927                198   8
   84          m_sumb_d                              0.065917                         99   4
   85          m_bcast_d                             0.798180                         66   4
   86        setdij_                               0.090256                           33   3
   87          m_sumb_d                              0.011822                         33   4
   88        set_dd_paw                          144.212141                           33   3
   89          set_rsgf_all                          0.000073                         33   4
   90          m_sumb_d                            144.205339                        231   4
   91        eddav                                36.708745                            5   3
   92          m_sumb_d                              0.111883                        195   4
   93          phaser                                0.017958                          5   4
   94          redis_proj                            0.154288                        132   4
   95            m_alltoall_d                          0.151999                      142   5
   96          redis_pw                              0.395007                        104   4
   97            m_alltoall_d                          0.306189                      114   5
   98          newband                               7.015937                         43   4
   99            w1_copy                               0.018556                       20   5
  100            redis_pw                              0.045734                       10   5
  101              m_alltoall_d                          0.037479                     10   6
  102            redis_proj                            0.003094                       10   5
  103              m_alltoall_d                          0.002821                     10   6
  104            fftwav_mpi                            0.914010                       10   5
  105              fft3d_mpi                             0.775547                     10   6
  106                fftbas_mpi                            0.775497                   10   7
  107                  fftbas_plan_mpi                       0.775465                 10   8
  108                    dfftw_execute                         0.530703               30   9
  109                    map_forward                           0.237546               20   9
  110                      map_gather                            0.038972             10  10
  111                      m_alltoallv_z                         0.033243             10  10
  112                      map_scatter                           0.063342             10  10
  113            eccp_tau                              6.021607                       10   5
  114              kinhamil_tau                          5.823198                     10   6
  115                fftext_mpi                            2.687072                   40   7
  116                  fft3d_mpi                             2.634803                 40   8
[...]
  462                      map_scatter                           0.619638            114  10
  463            m_sumb_d                              0.835692                       19   5
  464            fft3d_mpi                             1.086657                       38   5
  465              fftbrc_mpi                            0.963237                     38   6
  466                fftbas_plan_mpi                       0.963111                   38   7
  467                  dfftw_execute                         0.457196                114   8
  468                  map_backward                          0.186288                 38   8
  469                    map_gather                            0.108063               38   9
  470                    m_alltoallv_z                         0.067265               38   9
  471                    map_scatter                           0.010358               38   9
  472                  map_forward                           0.293458                 38   8
  473                    map_gather                            0.049409               19   9
  474                    m_alltoallv_z                         0.127367               19   9
  475                    map_scatter                           0.116191               19   9
  476          fft3d_mpi                             0.557319                         19   4
  477            fftbrc_mpi                            0.522372                       19   5
  478              fftbas_plan_mpi                       0.522316                     19   6
  479                dfftw_execute                         0.210300                   57   7
  480                map_forward                           0.298193                   38   7
  481                  map_gather                            0.041293                 19   8
  482                  m_alltoallv_z                         0.146882                 19   8
  483                  map_scatter                           0.109628                 19   8
  484          m_sumb_d                              0.053095                         18   4
  485        potxc_metagga                         2.155534                            1   3
  486          fft3d_mpi                             0.394266                         14   4
  487            fftbrc_mpi                            0.372218                       14   5
  488              fftbas_plan_mpi                       0.372171                     14   6
  489                dfftw_execute                         0.151054                   42   7
  490                map_forward                           0.128804                   16   7
  491                  map_gather                            0.018492                  8   8
  492                  m_alltoallv_z                         0.060759                  8   8
  493                  map_scatter                           0.049332                  8   8
  494                map_backward                          0.082359                   12   7
  495                  map_gather                            0.027203                  6   8
  496                  m_alltoallv_z                         0.040845                  6   8
  497                  map_scatter                           0.014179                  6   8
  498          m_sumb_d                              0.000810                          3   4
  499        fortau                                0.057624                            1   3
  500          m_sumb_d                              0.002645                          1   4
  501        forhar                                0.053647                            1   3
  502          m_sumb_d                              0.000240                          1   4
  503        strehar                               0.018071                            1   3
  504          m_sumb_d                              0.000195                          1   4
  505        m_bcast_d                             0.001645                            2   3
  506      potlok                                0.183427                              1   2
  507        fft3d_mpi                             0.144816                            5   3
  508          fftbrc_mpi                            0.133934                          5   4
  509            fftbas_plan_mpi                       0.133921                        5   5
  510              dfftw_execute                         0.057284                     15   6
  511              map_forward                           0.045084                      6   6
  512                map_gather                            0.004224                    4   7
  513                m_alltoallv_z                         0.021118                    4   7
  514                map_scatter                           0.019661                    4   7
  515              map_backward                          0.028052                      4   6
  516                map_gather                            0.009227                    2   7
  517                m_alltoallv_z                         0.014243                    2   7
  518                map_scatter                           0.004538                    2   7
  519        pothar                                0.004908                            1   3
  520          m_sumb_d                              0.000187                          1   4
  521        m_bcast_d                             0.012812                            1   3
  522      potlok_metagga                        2.258733                              1   2
  523        fft3d_mpi                             0.481473                           17   3
  524          fftbrc_mpi                            0.447784                         17   4
  525            fftbas_plan_mpi                       0.447738                       17   5
  526              dfftw_execute                         0.189323                     51   6
  527              map_forward                           0.165920                     22   6
  528                map_gather                            0.020084                   13   7
  529                m_alltoallv_z                         0.074558                   13   7
  530                map_scatter                           0.071036                   13   7
  531              map_backward                          0.080957                     12   6
  532                map_gather                            0.027284                    6   7
  533                m_alltoallv_z                         0.040032                    6   7
  534                map_scatter                           0.013518                    6   7
  535        m_sumb_d                              0.000833                            3   3
  536        m_bcast_d                             0.025536                            2   3
  537      set_dd_magatom                        0.000001                              1   2
  538      set_dd_paw                            4.355552                              1   2
  539        set_rsgf_all                          0.000001                            1   3
  540        m_sumb_d                              4.355330                            7   3
  541      m_bcast_d                             0.000178                              2   2
 
 Flat profile
 ============
 
             routine name                   CPU           calls
 ---------------------------------------------------------------
 m_sumb_d                              157.201683        2124
 dfftw_execute                         125.122923        9069
 potlok_metagga                         75.637343          34
 total_time                             22.822972           1
 map_scatter                            13.060957        3210
 map_gather                             12.986768        3210
 m_alltoallv_z                          11.876553        3210
 fftwav_mpi                             10.860814        1198
 map_forward                            10.052030        3510
 kinhamil_tau                            7.637771         210
 set_kineden                             4.843726          52
 eccp_tau                                2.202904         138
 fft3d_mpi                               2.086718        3023
 m_alltoall_d                            2.072566        1386
 fftbas_plan_mpi                         1.994863        3023
 edwav                                   1.858172          32
 potxc_metagga                           1.760458           1
 m_bcast_d                               1.253561         182
 fftext_mpi                              1.194297         872
 vhamil                                  1.121172          72
 potlok                                  0.723218          34
 lincom                                  0.656274         103
 orth1                                   0.585880         214
 pw_charge                               0.514894          66
 m_bcast_z                               0.486491         104
 soft_charge                             0.439909          33
 lapack                                  0.438160          38
 redis_pw                                0.310503         329
 stretau                                 0.300311           1
 augmentation_charge                     0.259556          33
 elmin_all                               0.236381           1
 ggemm                                   0.216790          48
 rspher_all                              0.178491          14
 pothar                                  0.149666          34
 eddav                                   0.148520           5
 w1_dscal                                0.143901          32
 setdij_                                 0.142137          61
 phaser                                  0.122507          34
 w1_copy                                 0.075865         114
 fft_gq                                  0.066859          33
 set_charge                              0.063254          33
 forloc                                  0.056386           1
 fortau                                  0.054979           1
 forhar                                  0.053407           1
 rpro1                                   0.047427          60
 inisym                                  0.045195           1
 racc0                                   0.041682          32
 stufak                                  0.033557           1
 crrexp_mul_wave                         0.029914         516
 choleski                                0.028210          33
 crrexp_mul_work_add                     0.027516         420
 map_backward                            0.026791        2536
 apply_precond                           0.023838          28
 gemm                                    0.019816         228
 strelo                                  0.019281           1
 strehar                                 0.017876           1
 redis_proj                              0.011652         596
 rpromu_gemm                             0.011612          78
 setup_precond                           0.011454          10
 force_and_stress                        0.009629           1
 set_dd_paw                              0.007113          35
 fftbas_mpi                              0.006671        2070
 eddiag                                  0.006055          17
 fewald                                  0.005328           1
 brgrid                                  0.005277           1
 densta                                  0.005019          44
 overl                                   0.004958         164
 orthch                                  0.003138          33
 rpro_isp                                0.003063          13
 fftbrc_mpi                              0.002851         953
 racc0mu                                 0.002736          38
 depsum                                  0.001599          33
 strkin                                  0.001440           1
 rpromu                                  0.001123          13
 hamiltmu_tau                            0.000991          38
 newband                                 0.000990          43
 overl1                                  0.000823          38
 rsp                                     0.000748           1
 strnlr                                  0.000618           1
 hamilt_local_tau                        0.000586          34
 raccmu_                                 0.000518          38
 fordep                                  0.000368           1
 redis_pw_all                            0.000360          32
 crpa_reader                             0.000242           1
 w1_projall                              0.000228          28
 fornlr                                  0.000220           1
 redis_pw_over_bands                     0.000144          33
 rcp                                     0.000086           1
 set_rsgf_all                            0.000076          35
 set_dd_magatom                          0.000052           2
 proall                                  0.000048           1
 truncate_high_frequency_w1              0.000046          48
 rotate_active_occupied_orbital          0.000023           1
 vectorpot                               0.000023           1
 posmap                                  0.000018           2
 shift_bands_between_low_high            0.000008           1
 ---------------------------------------------------------------
  summed up times    474.541625022888     
 
 Accumulative profile
 ====================
 
             routine name                   CPU           calls
 ---------------------------------------------------------------
 total_time                            474.541625           1
 elmin_all                             420.534931           1
 fft3d_mpi                             177.217125        3023
 fftbas_plan_mpi                       175.120886        3023
 m_sumb_d                              157.201683        2124
 set_dd_paw                            152.915727          35
 fftbas_mpi                            149.168839        2070
 dfftw_execute                         125.122923        9069
 kinhamil_tau                          117.994319         210
 fftwav_mpi                            102.695228        1198
 potlok_metagga                         93.619552          34
 edwav                                  85.875682          32
 eccp_tau                               78.685810         138
 fftext_mpi                             58.537644         872
 set_kineden                            36.836586          52
 eddav                                  36.708745           5
 map_forward                            33.068199        3510
 fftbrc_mpi                             25.961569         953
 force_and_stress                       23.407136           1
 eddiag                                 22.718600          17
 hamiltmu_tau                           22.644561          38
 hamilt_local_tau                       20.041188          34
 map_backward                           14.934901        2536
 stretau                                14.374530           1
 map_scatter                            13.060957        3210
 map_gather                             12.986768        3210
 m_alltoallv_z                          11.876553        3210
 set_charge                              9.692915          33
 soft_charge                             8.397911          33
 newband                                 7.015937          43
 potlok                                  6.395466          34
 rpro_isp                                2.250239          13
 potxc_metagga                           2.155534           1
 m_alltoall_d                            2.072566        1386
 redis_pw                                1.833730         329
 strnlr                                  1.641636           1
 m_bcast_d                               1.253561         182
 augmentation_charge                     1.219820          33
 vhamil                                  1.121172          72
 fft_gq                                  1.054257          33
 lincom                                  0.656274         103
 fornlr                                  0.592492           1
 orth1                                   0.585880         214
 redis_proj                              0.560990         596
 pw_charge                               0.514894          66
 m_bcast_z                               0.486491         104
 lapack                                  0.438160          38
 orthch                                  0.409817          33
 redis_pw_over_bands                     0.227979          33
 redis_pw_all                            0.227835          32
 pothar                                  0.225097          34
 proall                                  0.218791           1
 ggemm                                   0.216790          48
 rspher_all                              0.178491          14
 setdij_                                 0.171060          61
 w1_dscal                                0.143901          32
 phaser                                  0.122507          34
 rpro1                                   0.075962          60
 w1_copy                                 0.075865         114
 racc0                                   0.063903          32
 fortau                                  0.057624           1
 forloc                                  0.056514           1
 forhar                                  0.053647           1
 inisym                                  0.045213           1
 densta                                  0.042854          44
 raccmu_                                 0.040623          38
 racc0mu                                 0.039281          38
 stufak                                  0.033557           1
 w1_projall                              0.032503          28
 crrexp_mul_wave                         0.029914         516
 choleski                                0.028210          33
 crrexp_mul_work_add                     0.027516         420
 strelo                                  0.027059           1
 apply_precond                           0.023838          28
 rpromu                                  0.019978          13
 gemm                                    0.019816         228
 strehar                                 0.018071           1
 fordep                                  0.017338           1
 setup_precond                           0.011935          10
 depsum                                  0.011931          33
 rpromu_gemm                             0.011612          78
 fewald                                  0.006530           1
 brgrid                                  0.005277           1
 strkin                                  0.005077           1
 overl                                   0.004958         164
 overl1                                  0.000823          38
 rsp                                     0.000748           1
 crpa_reader                             0.000242           1
 rcp                                     0.000086           1
 set_rsgf_all                            0.000076          35
 set_dd_magatom                          0.000052           2
 truncate_high_frequency_w1              0.000046          48
 rotate_active_occupied_orbital          0.000023           1
 vectorpot                               0.000023           1
 posmap                                  0.000018           2
 shift_bands_between_low_high            0.000008           1
 ---------------------------------------------------------------
 
Profiling took   0.065957  0.024633  0.008671  0.007384 seconds
Profiling took   0.082931 seconds
