 vasp.6.3.0 20Jan22 (build Apr  1 2022 16:44:48) complex                         
 executed on        HPECrayEX_GCC date 2023.01.06  20:38:26
 running  768 mpi-ranks, with    1 threads/rank
 distrk:  each k-point on  384 cores,    2 groups
 distr:  one band on NCORE=   4 cores,   96 groups


--------------------------------------------------------------------------------------------------------


 INCAR:
   SYSTEM = MgO-rocksalt
   ISMEAR = 0
   SIGMA = 0.05
   EDIFF = 1E-6
   ALGO = ALL
   ISTART = 0
   IBRION = -1
   NSW = 0
   ISYM = 2
   LHFCALC = .TRUE.
   HFSCREEN = 0.2
   GGA = PE
   IVDW = 13
   VDW_S8 = 1.19528249
   VDW_A1 = 0.38663183
   VDW_A2 = 5.19133469
   ENCUT = 520
   PREC = Accurate
   LASPH = .TRUE.
   LREAL = Auto
   ISPIN = 1
   NELM = 200
   NELMIN = 8
   NCORE = 4
   KPAR = 2
   LWAVE = .FALSE.
   LCHARG = .FALSE.

 POTCAR:    PAW_PBE Au 04Oct2007                  
 -----------------------------------------------------------------------------
|                                                                             |
|           W    W    AA    RRRRR   N    N  II  N    N   GGGG   !!!           |
|           W    W   A  A   R    R  NN   N  II  NN   N  G    G  !!!           |
|           W    W  A    A  R    R  N N  N  II  N N  N  G       !!!           |
|           W WW W  AAAAAA  RRRRR   N  N N  II  N  N N  G  GGG   !            |
|           WW  WW  A    A  R   R   N   NN  II  N   NN  G    G                |
|           W    W  A    A  R    R  N    N  II  N    N   GGGG   !!!           |
|                                                                             |
|     You have selected ISYM=2 for a HF type calculation. This will           |
|     symmetrize the charge density but not the exchange potential. I         |
|     suggest to use ISYM=3 instead. This uses symmetry to obtain the         |
|     orbitals at all k-points in the Brillouin zone, but does not apply      |
|     symmetry to the Hartree potential directly. The resultant charge        |
|     might have lower symmetry than the crystal but, at least, Hartree       |
|     and exchange are fully compatible.                                      |
|                                                                             |
 -----------------------------------------------------------------------------

 POTCAR:    PAW_PBE Au 04Oct2007                  
   SHA256 =  d0044ae04e2bdce24051b198fc5c053d722a5bc6fe3c3b100514a13fc5d2db88 Au/POTCAR             
   COPYR  = (c) Copyright 04Oct2007 Georg Kresse                                                    
   COPYR  = This file is part of the software VASP. Any use, copying, and all other rights are regul
   COPYR  = If you do not have a valid VASP license, you may not use, copy or distribute this file. 
   VRHFIN =Au: s1d10                                                                                
   LEXCH  = PE                                                                                      
   EATOM  =   926.0867 eV,   68.0654 Ry                                                             
                                                                                                    
   TITEL  = PAW_PBE Au 04Oct2007                                                                    
   LULTRA =        F    use ultrasoft PP ?                                                          
   IUNSCR =        1    unscreen: 0-lin 1-nonlin 2-no                                               
   RPACOR =    2.330    partial core radius                                                         
   POMASS =  196.966; ZVAL   =   11.000    mass and valenz                                          
   RCORE  =    2.500    outmost cutoff radius                                                       
   RWIGS  =    2.840; RWIGS  =    1.503    wigner-seitz radius (au A)                               
   ENMAX  =  229.943; ENMIN  =  172.457 eV                                                          
   ICORE  =        3    local potential                                                             
   LCOR   =        T    correct aug charges                                                         
   LPAW   =        T    paw PP                                                                      
   EAUG   =  356.670                                                                                
   DEXC   =    0.000                                                                                
   RMAX   =    2.562    core radius for proj-oper                                                   
   RAUG   =    1.300    factor for augmentation sphere                                              
   RDEP   =    2.598    radius for radial grids                                                     
   RDEPT  =    2.193    core radius for aug-charge                                                  
                                                                                                    
   Atomic configuration                                                                             
   16 entries                                                                                       
     n  l   j            E        occ.                                                              
     1  0  0.50    -80748.5001   2.0000                                                             
     2  0  0.50    -14244.7466   2.0000                                                             
     2  1  1.50    -12310.9591   6.0000                                                             
     3  0  0.50     -3362.1768   2.0000                                                             
     3  1  1.50     -2801.5463   6.0000                                                             
     3  2  2.50     -2203.8206  10.0000                                                             
     4  0  0.50      -729.8168   2.0000                                                             
     4  1  1.50      -546.0527   6.0000                                                             
     4  2  2.50      -325.7302  10.0000                                                             
     4  3  3.50       -81.1472  14.0000                                                             
     5  0  0.50      -108.3201   2.0000                                                             
     5  1  1.50       -59.7479   6.0000                                                             
     5  2  2.50        -6.8783  10.0000                                                             
     6  0  0.50        -5.7602   1.0000                                                             
     6  1  1.50        -6.8029   0.0000                                                             
     5  3  2.50        -1.3606   0.0000                                                             
   Description                                                                                      
     l       E           TYP  RCUT    TYP  RCUT                                                     
     2     -6.8782861     23  2.500                                                                 
     2     -8.2388687     23  2.500                                                                 
     0     -5.7601759     23  2.500                                                                 
     0     -0.8493231     23  2.500                                                                 
     1     -2.7211652     23  2.500                                                                 
     1     27.2116520     23  2.500                                                                 
     3     -1.3605826     23  2.500                                                                 
  local pseudopotential read in
  partial core-charges read in
  partial kinetic energy density read in
  atomic valenz-charges read in
  non local Contribution for L=           2  read in
    real space projection operators read in
  non local Contribution for L=           2  read in
    real space projection operators read in
  non local Contribution for L=           0  read in
    real space projection operators read in
  non local Contribution for L=           0  read in
    real space projection operators read in
  non local Contribution for L=           1  read in
    real space projection operators read in
  non local Contribution for L=           1  read in
    real space projection operators read in
    PAW grid and wavefunctions read in

   number of l-projection  operators is LMAX  =           6
   number of lm-projection operators is LMMAX =          18

 -----------------------------------------------------------------------------
|                                                                             |
|               ----> ADVICE to this user running VASP <----                  |
|                                                                             |
|     You have a (more or less) 'small supercell' and for smaller cells       |
|     it is recommended to use the reciprocal-space projection scheme!        |
|     The real-space optimization is not efficient for small cells and it     |
|     is also less accurate ...                                               |
|     Therefore, set LREAL=.FALSE. in the INCAR file.                         |
|                                                                             |
 -----------------------------------------------------------------------------

 Optimization of the real space projectors (new method)

 maximal supplied QI-value         = 15.12
 optimisation between [QCUT,QGAM] = [ 11.64, 23.28] = [ 37.95,151.78] Ry 
 Optimized for a Real-space Cutoff    1.49 Angstroem

   l    n(q)    QCUT    max X(q) W(low)/X(q) W(high)/X(q)  e(spline) 
   2      9    11.641    60.898    0.24E-03    0.10E-03    0.19E-06
   2      9    11.641    58.894    0.25E-03    0.10E-03    0.19E-06
   0     10    11.641   109.617    0.73E-04    0.33E-04    0.11E-06
   0     10    11.641    75.026    0.71E-04    0.32E-04    0.11E-06
   1     10    11.641    16.344    0.27E-04    0.97E-04    0.16E-06
   1     10    11.641    10.160    0.23E-04    0.77E-04    0.13E-06
  PAW_PBE Au 04Oct2007                  :
 energy of atom  1       EATOM= -926.0867
 kinetic energy error for atom=    0.0034 (will be added to EATOM!!)


 POSCAR: Au
  positions in direct lattice
  velocities in cartesian coordinates
 -----------------------------------------------------------------------------
|                                                                             |
|           W    W    AA    RRRRR   N    N  II  N    N   GGGG   !!!           |
|           W    W   A  A   R    R  NN   N  II  NN   N  G    G  !!!           |
|           W    W  A    A  R    R  N N  N  II  N N  N  G       !!!           |
|           W WW W  AAAAAA  RRRRR   N  N N  II  N  N N  G  GGG   !            |
|           WW  WW  A    A  R   R   N   NN  II  N   NN  G    G                |
|           W    W  A    A  R    R  N    N  II  N    N   GGGG   !!!           |
|                                                                             |
|     Specifying the vdW parameters                                           |
|     VDW_S8 = 1.195                                                          |
|     VDW_A1 = 0.387                                                          |
|     VDW_A2 = 5.191                                                          |
|     in the INCAR file will overwrite the defaults for hse06. Please         |
|     make sure that is what you intended.                                    |
|                                                                             |
 -----------------------------------------------------------------------------

 exchange correlation table for  LEXCH =        8
   RHO(1)=    0.500       N(1)  =     2000
   RHO(2)=  100.500       N(2)  =     4000



--------------------------------------------------------------------------------------------------------


 ion  position               nearest neighbor table
   1  0.520  0.407  0.503-   5 2.75   3 2.75   7 2.75   2 2.75
   2  0.414  0.477  0.451-   3 2.68   8 2.72   1 2.75   6 2.84   7 3.06
   3  0.439  0.485  0.583-   2 2.68   4 2.72   1 2.75   6 2.84   5 3.06
   4  0.504  0.595  0.629-   6 2.65   5 2.72   3 2.72
   5  0.586  0.517  0.553-   7 2.69   4 2.72   1 2.75   6 2.84   3 3.06
   6  0.478  0.594  0.500-   4 2.65   8 2.65   7 2.84   2 2.84   3 2.84   5 2.84
   7  0.560  0.509  0.421-   5 2.69   8 2.72   1 2.75   6 2.84   2 3.06
   8  0.455  0.579  0.370-   6 2.65   7 2.72   2 2.72

  LATTYP: Found a simple cubic cell.
 ALAT       =    20.0000000000
  
  Lattice vectors:
  
 A1 = (  20.0000000000,   0.0000000000,   0.0000000000)
 A2 = (   0.0000000000,  20.0000000000,   0.0000000000)
 A3 = (   0.0000000000,   0.0000000000,  20.0000000000)


Analysis of symmetry for initial positions (statically):
=====================================================================
 Subroutine PRICEL returns:
 Original cell was already a primitive cell.
 

 Routine SETGRP: Setting up the symmetry group for a 
 simple cubic supercell.


 Subroutine GETGRP returns: Found  1 space group operations
 (whereof  1 operations were pure point group operations)
 out of a pool of 48 trial point group operations.


The static configuration has the point symmetry C_1 .


Analysis of symmetry for dynamics (positions and initial velocities):
=====================================================================
 Subroutine PRICEL returns:
 Original cell was already a primitive cell.
 

 Routine SETGRP: Setting up the symmetry group for a 
 simple cubic supercell.


 Subroutine GETGRP returns: Found  1 space group operations
 (whereof  1 operations were pure point group operations)
 out of a pool of 48 trial point group operations.


The dynamic configuration has the point symmetry C_1 .


 Subroutine INISYM returns: Found  1 space group operations
 (whereof  1 operations are pure point group operations),
 and found     1 'primitive' translations


----------------------------------------------------------------------------------------

                                     Primitive cell                                     

  volume of cell :    8000.0000

  direct lattice vectors                    reciprocal lattice vectors
    20.000000000  0.000000000  0.000000000     0.050000000  0.000000000  0.000000000
     0.000000000 20.000000000  0.000000000     0.000000000  0.050000000  0.000000000
     0.000000000  0.000000000 20.000000000     0.000000000  0.000000000  0.050000000

  length of vectors
    20.000000000 20.000000000 20.000000000     0.050000000  0.050000000  0.050000000

  position of ions in fractional coordinates (direct lattice)
     0.519773028  0.407131037  0.503490243
     0.413738758  0.477044619  0.450938876
     0.438934999  0.485178296  0.582550389
     0.504412567  0.594826287  0.629496384
     0.585532661  0.517331468  0.552543605
     0.478077796  0.593585837  0.499866133
     0.560283540  0.509211146  0.420924117
     0.454820405  0.578838963  0.370464440

  ion indices of the primitive-cell ions
   primitive index   ion index
                 1           1
                 2           2
                 3           3
                 4           4
                 5           5
                 6           6
                 7           7
                 8           8

----------------------------------------------------------------------------------------



 KPOINTS: KPOINTS created by Atomic Simulation Env

Automatic generation of k-mesh.
 Grid dimensions read from file:
 generate k-points for:    1    1    1

 Generating k-lattice:

  Cartesian coordinates                     Fractional coordinates (reciprocal lattice)
     0.050000000  0.000000000  0.000000000     1.000000000  0.000000000  0.000000000
     0.000000000  0.050000000  0.000000000     0.000000000  1.000000000  0.000000000
     0.000000000  0.000000000  0.050000000     0.000000000  0.000000000  1.000000000

  Length of vectors
     0.050000000  0.050000000  0.050000000

  Shift w.r.t. Gamma in fractional coordinates (k-lattice)
     0.000000000  0.000000000  0.000000000

 
 Subroutine IBZKPT returns following result:
 ===========================================
 
 Found      1 irreducible k-points:
 
 Following reciprocal coordinates:
            Coordinates               Weight
  0.000000  0.000000  0.000000      1.000000
 
 Following cartesian coordinates:
            Coordinates               Weight
  0.000000  0.000000  0.000000      1.000000
 
 
 Subroutine IBZKPT_HF returns following result:
 ==============================================
 
 Found      1 k-points in 1st BZ
 the following      1 k-points will be used (e.g. in the exchange kernel)
 Following reciprocal coordinates:   # in IRBZ
  0.000000  0.000000  0.000000    1.00000000   1 t-inv F


--------------------------------------------------------------------------------------------------------




 Dimension of arrays:
   k-points           NKPTS =      1   k-points in BZ     NKDIM =      1   number of bands    NBANDS=     96
   number of dos      NEDOS =    301   number of ions     NIONS =      8
   non local maximal  LDIM  =      6   non local SUM 2l+1 LMDIM =     18
   total plane-waves  NPLWV = ******
   max r-space proj   IRMAX =   5885   max aug-charges    IRDMAX=  25995
   dimension x,y,z NGX =   150 NGY =  150 NGZ =  150
   dimension x,y,z NGXF=   300 NGYF=  300 NGZF=  300
   support grid    NGXF=   300 NGYF=  300 NGZF=  300
   ions per type =               8
   NGX,Y,Z   is equivalent  to a cutoff of  12.47, 12.47, 12.47 a.u.
   NGXF,Y,Z  is equivalent  to a cutoff of  24.94, 24.94, 24.94 a.u.

 SYSTEM =  MgO-rocksalt                            
 POSCAR =  Au                                      

 Startparameter for this run:
   NWRITE =      2    write-flag & timer
   PREC   = accura    normal or accurate (medium, high low for compatibility)
   ISTART =      0    job   : 0-new  1-cont  2-samecut
   ICHARG =      2    charge: 1-file 2-atom 10-const
   ISPIN  =      1    spin polarized calculation?
   LNONCOLLINEAR =      F non collinear calculations
   LSORBIT =      F    spin-orbit coupling
   INIWAV =      1    electr: 0-lowe 1-rand  2-diag
   LASPH  =      T    aspherical Exc in radial PAW
 Electronic Relaxation 1
   ENCUT  =  520.0 eV  38.22 Ry    6.18 a.u.  37.19 37.19 37.19*2*pi/ulx,y,z
   ENINI  =  520.0     initial cutoff
   ENAUG  =  356.7 eV  augmentation charge cutoff
   NELM   =    200;   NELMIN=  8; NELMDL= -5     # of ELM steps 
   EDIFF  = 0.1E-05   stopping-criterion for ELM
   LREAL  =      T    real-space projection
   NLSPLINE    = F    spline interpolate recip. space projectors
   LCOMPAT=      F    compatible to vasp.4.4
   GGA_COMPAT  = T    GGA compatible to vasp.4.4-vasp.4.6
   LMAXPAW     = -100 max onsite density
   LMAXMIX     =    2 max onsite mixed and CHGCAR
   VOSKOWN=      0    Vosko Wilk Nusair interpolation
   ROPT   =   -0.00025
 Ionic relaxation
   EDIFFG = 0.1E-04   stopping-criterion for IOM
   NSW    =      0    number of steps for IOM
   NBLOCK =      1;   KBLOCK =      1    inner block; outer block 
   IBRION =     -1    ionic relax: 0-MD 1-quasi-New 2-CG
   NFREE  =      0    steps in history (QN), initial steepest desc. (CG)
   ISIF   =      0    stress and relaxation
   IWAVPR =     10    prediction:  0-non 1-charg 2-wave 3-comb
   ISYM   =      2    0-nonsym 1-usesym 2-fastsym
   LCORR  =      T    Harris-Foulkes like correction to forces

   POTIM  = 0.5000    time-step for ionic-motion
   TEIN   =    0.0    initial temperature
   TEBEG  =    0.0;   TEEND  =   0.0 temperature during run
   SMASS  =  -3.00    Nose mass-parameter (am)
   estimated Nose-frequenzy (Omega)   =  0.10E-29 period in steps = 0.13E+47 mass=  -0.914E-26a.u.
   SCALEE = 1.0000    scale energy and forces
   NPACO  =    256;   APACO  = 10.0  distance and # of slots for P.C.
   PSTRESS=    0.0 pullay stress

  Mass of Ions in am
   POMASS = 196.97
  Ionic Valenz
   ZVAL   =  11.00
  Atomic Wigner-Seitz radii
   RWIGS  =  -1.00
  virtual crystal weights 
   VCA    =   1.00
   NELECT =      88.0000    total number of electrons
   NUPDOWN=      -1.0000    fix difference up-down

 DOS related values:
   EMIN   =  10.00;   EMAX   =-10.00  energy-range for DOS
   EFERMI =   0.00
   ISMEAR =     0;   SIGMA  =   0.05  broadening in eV -4-tet -1-fermi 0-gaus

 Electronic relaxation 2 (details)
   IALGO  =     58    algorithm
   LDIAG  =      T    sub-space diagonalisation (order eigenvalues)
   LSUBROT=      F    optimize rotation matrix (better conditioning)
   TURBO    =      0    0=normal 1=particle mesh
   IRESTART =      0    0=no restart 2=restart with 2 vectors
   NREBOOT  =      0    no. of reboots
   NMIN     =      0    reboot dimension
   EREF     =   0.00    reference energy to select bands
   IMIX   =      4    mixing-type and parameters
     AMIX     =   0.40;   BMIX     =  1.00
     AMIX_MAG =   1.60;   BMIX_MAG =  1.00
     AMIN     =   0.10
     WC   =   100.;   INIMIX=   1;  MIXPRE=   1;  MAXMIX= -45

 Intra band minimization:
   WEIMIN = 0.0000     energy-eigenvalue tresh-hold
   EBREAK =  0.26E-08  absolut break condition
   DEPER  =   0.30     relativ break condition  

   TIME   =   0.40     timestep for ELM

  volume/ion in A,a.u.               =    1000.00      6748.33
  Fermi-wavevector in a.u.,A,eV,Ry     =   0.364087  0.688026  1.803584  0.132560
  Thomas-Fermi vector in A             =   1.286639

 Write flags
   LWAVE        =      F    write WAVECAR
   LDOWNSAMPLE  =      F    k-point downsampling of WAVECAR
   LCHARG       =      F    write CHGCAR
   LVTOT        =      F    write LOCPOT, total local potential
   LVHAR        =      F    write LOCPOT, Hartree potential only
   LELF         =      F    write electronic localiz. function (ELF)
   LORBIT       =      0    0 simple, 1 ext, 2 COOP (PROOUT), +10 PAW based schemes


 Dipole corrections
   LMONO  =      F    monopole corrections only (constant potential shift)
   LDIPOL =      F    correct potential (dipole corrections)
   IDIPOL =      0    1-x, 2-y, 3-z, 4-all directions 
   EPSILON=  1.0000000 bulk dielectric constant

 Exchange correlation treatment:
   GGA     =    PE    GGA type
   LEXCH   =     8    internal setting for exchange type
   LIBXC   =     F    Libxc                    
   VOSKOWN =     0    Vosko Wilk Nusair interpolation
   EXXOEP  =     0    0=HF, 1=EXX-LHF (local Hartree Fock) 2=EXX OEP
   LHFCALC =     T    Hartree Fock is set to
   LSYMGRAD=     F    symmetrize gradient (conserves proper symmetry)
   PRECFOCK=normal    Normal, Fast or Accurate (Low or Medium for compatibility)
   LRHFCALC=     F    long range Hartree Fock
   LRSCOR  =     F    long range correlation only (use DFT for short range part)
   LTHOMAS =     F    Thomas Fermi screening in HF
   LMODELHF=     F    short range full HF, long range fraction AEXX
   LFOCKACE=     T    use Adeptively-Compressed-Exchange operator
   ENCUT4O =  -1.0   cutoff for four orbital integrals eV
   LMAXFOCK=     4    L truncation for augmentation on plane wave grid
   LMAXFOCKAE=  -1    L truncation for all-electron charge restoration on plane wave grid
   NMAXFOCKAE=   1    number of basis functions for all-electron charge restoration
   LFOCKAEDFT=     F  apply the AE augmentation even for DFT
   NKREDX  =     1    reduce k-point grid by
   NKREDY  =     1    reduce k-point grid by
   NKREDZ  =     1    reduce k-point grid by
   SHIFTRED=     F    shift reduced grid of Gamma
   HFKIDENT=     F    idential grid for each k-point
   ODDONLY =     F    use only odd q-grid points
   EVENONLY=     F    use only even q-grid points
   HFALPHA =   -1.0000 decay constant for conv. correction
   MCALPHA =    0.0000 extent of test-charge in conv. correction in multipole expansion
   AEXX    =    0.2500 exact exchange contribution
   HFSCREEN=    0.2000 screening length (either q_TF or 0.3 A-1)
   HFSCREENC=   0.2000 screening length for correlation (either q_TF or 0.3 A-1)
   HFRCUT  =    0.0000 spherical cutoff for potential kernel
   ALDAX   =    0.7500 LDA exchange part
   AGGAX   =    0.7500 GGA exchange part
   ALDAC   =    1.0000 LDA correlation
   AGGAC   =    1.0000 GGA correlation
   ENCUTFOCK=  -1.0 apply spherical cutoff to Coloumb kernel
   NBANDSGWLOW=     1    first orbital included in HF term
   NBLOCK_FOCK=    64    blocking factor in FOCK_ACC

 Linear response parameters
   LEPSILON=     F    determine dielectric tensor
   LRPA    =     F    only Hartree local field effects (RPA)
   LNABLA  =     F    use nabla operator in PAW spheres
   LVEL    =     F    velocity operator in full k-point grid
   CSHIFT  =0.1000    complex shift for real part using Kramers Kronig
   OMEGAMAX=  -1.0    maximum frequency
   DEG_THRESHOLD= 0.2000000E-02 threshold for treating states as degnerate
   RTIME   =   -0.100 relaxation time in fs
  (WPLASMAI=    0.000 imaginary part of plasma frequency in eV, 0.658/RTIME)
   DFIELD  = 0.0000000 0.0000000 0.0000000 field for delta impulse in time

  Optional k-point grid parameters
   LKPOINTS_OPT  =     F    use optional k-point grid
   KPOINTS_OPT_MODE=     1    mode for optional k-point grid

 Orbital magnetization related:
   ORBITALMAG=     F  switch on orbital magnetization
   LCHIMAG   =     F  perturbation theory with respect to B field
   DQ        =  0.001000  dq finite difference perturbation B field
   LLRAUG    =     F  two centre corrections for induced B field



--------------------------------------------------------------------------------------------------------


 Static calculation
 charge density and potential will be updated during run
 non-spin polarized calculation
 Conjugate gradient for all bands (Freysoldt, et al. PRB 79, 241103 (2009))
 preconditioned conjugated gradient                                        
 perform sub-space diagonalisation
    before iterative eigenvector-optimisation
 modified Broyden-mixing scheme, WC =      100.0
 initial mixing is a Kerker type mixing with AMIX =  0.4000 and BMIX =      1.0000
 Hartree-type preconditioning will be used
 using additional bands           52
 real space projection scheme for non local part
 use partial core corrections
 no Harris-corrections to forces 
 use gradient corrections 
 use of overlap-Matrix (Vanderbilt PP)
 Gauss-broadening in eV      SIGMA  =   0.05


--------------------------------------------------------------------------------------------------------


  energy-cutoff  :      520.00
  volume of cell :     8000.00
      direct lattice vectors                 reciprocal lattice vectors
    20.000000000  0.000000000  0.000000000     0.050000000  0.000000000  0.000000000
     0.000000000 20.000000000  0.000000000     0.000000000  0.050000000  0.000000000
     0.000000000  0.000000000 20.000000000     0.000000000  0.000000000  0.050000000

  length of vectors
    20.000000000 20.000000000 20.000000000     0.050000000  0.050000000  0.050000000



 k-points in units of 2pi/SCALE and weight: KPOINTS created by Atomic Simulation Env
   0.00000000  0.00000000  0.00000000       1.000

 k-points in reciprocal lattice and weights: KPOINTS created by Atomic Simulation Env
   0.00000000  0.00000000  0.00000000       1.000

 position of ions in fractional coordinates (direct lattice) 
   0.51977303  0.40713104  0.50349024
   0.41373876  0.47704462  0.45093888
   0.43893500  0.48517830  0.58255039
   0.50441257  0.59482629  0.62949638
   0.58553266  0.51733147  0.55254360
   0.47807780  0.59358584  0.49986613
   0.56028354  0.50921115  0.42092412
   0.45482040  0.57883896  0.37046444

 position of ions in cartesian coordinates  (Angst):
  10.39546056  8.14262075 10.06980486
   8.27477517  9.54089237  9.01877751
   8.77869998  9.70356593 11.65100779
  10.08825134 11.89652574 12.58992768
  11.71065321 10.34662936 11.05087209
   9.56155593 11.87171675  9.99732265
  11.20567080 10.18422292  8.41848234
   9.09640810 11.57677926  7.40928880



--------------------------------------------------------------------------------------------------------


 k-point   1 :   0.0000 0.0000 0.0000  plane waves:  215503

 maximum and minimum number of plane-waves per node :     53900    53857

 maximum number of plane-waves:    215503
 maximum index in each direction: 
   IXMAX=   37   IYMAX=   37   IZMAX=   37
   IXMIN=  -37   IYMIN=  -37   IZMIN=  -37


 real space projection operators:
  total allocation   :       6365.53 KBytes
  max/ min on nodes  :       1600.03       1584.00


 parallel 3D FFT for wavefunctions:
    minimum data exchange during FFTs selected (reduces bandwidth)
 parallel 3D FFT for charge:
    minimum data exchange during FFTs selected (reduces bandwidth)


 FFT grid for exact exchange (Hartree Fock) 
  NGX =112; NGY =112; NGZ =112


 Radii for the augmentation spheres in the non-local exchange
 for species   1 augmentation radius   1.512 (default was   1.210)
       energy cutoff for augmentation   2080.0

 real space projection operators:
  total allocation   :       3960.94 KBytes
  max/ min on nodes  :        999.61        978.71

 Maximum index for augmentation-charges in exchange          650
  SETUP_FOCK is finished

 total amount of memory used by VASP MPI-rank0   124653. kBytes
=======================================================================

   base      :      30000. kBytes
   nonlr-proj:       4345. kBytes
   fftplans  :      48991. kBytes
   grid      :      38630. kBytes
   one-center:         31. kBytes
   HF        :         64. kBytes
   wavefun   :       2592. kBytes

     INWAV:  cpu time      0.0000: real time      0.0000
 Broyden mixing: mesh for mixing (old mesh)
   NGX = 75   NGY = 75   NGZ = 75
  (NGX  =300   NGY  =300   NGZ  =300)
  gives a total of 421875 points

 initial charge density was supplied:
 charge density of overlapping atoms calculated
 number of electron      88.0000000 magnetization 
 keeping initial charge density in first step


--------------------------------------------------------------------------------------------------------


 Maximum index for non-local projection operator         1428
 Maximum index for augmentation-charges            0 (set IRDMAX)


--------------------------------------------------------------------------------------------------------


 First call to EWALD:  gamma=   0.089
 Maximum number of real-space cells 3x 3x 3
 Maximum number of reciprocal cells 3x 3x 3

    FEWALD:  cpu time      0.0019: real time      0.0018


--------------------------------------- Iteration      1(   1)  ---------------------------------------


    POTLOK:  cpu time      0.1145: real time      0.1147
    SETDIJ:  cpu time      0.1832: real time      0.1832
    TRIAL :  cpu time      0.5481: real time      0.5483
    CORREC:  cpu time      0.0012: real time      0.0012
    --------------------------------------------
      LOOP:  cpu time      0.8480: real time      0.8484

 eigenvalue-minimisations  :   192
 total energy-change (2. order) :-0.1818131E+05  (-0.1950147E+04)
 number of electron      88.0000000 magnetization 
 augmentation part       88.0000000 magnetization 

 Free energy of the ion-electron system (eV)
  ---------------------------------------------------
  alpha Z        PSCENC =         9.31836840
  Ewald energy   TEWEN  =      7464.19428679
  -Hartree energ DENC   =    -14561.40702432
  -exchange      EXHF   =         0.00000000
  -V(xc)+E(xc)   XCENC  =       117.01899627
  PAW double counting   =      6992.78002682   -25627.72022703
  entropy T*S    EENTRO =        -0.05521578
  eigenvalues    EBANDS =        17.19852547
  atomic energy  EATOM  =      7407.36190470
  ---------------------------------------------------
  free energy    TOTEN  =    -18181.31035869 eV

  energy without entropy =   -18181.25514291  energy(sigma->0) =   -18181.28275080
  exchange ACFDT corr.  =         0.00000000  see jH, gK, PRB 81, 115126


--------------------------------------------------------------------------------------------------------




--------------------------------------- Iteration      1(   2)  ---------------------------------------


    TRIAL :  cpu time      1.9370: real time      1.9372
    CORREC:  cpu time      0.0004: real time      0.0004
    --------------------------------------------
      LOOP:  cpu time      1.9410: real time      1.9450

 eigenvalue-minimisations  :   384
 total energy-change (2. order) :-0.8617736E+03  (-0.8602714E+03)
 number of electron      88.0000000 magnetization 
 augmentation part       88.0000000 magnetization 

 Free energy of the ion-electron system (eV)
  ---------------------------------------------------
  alpha Z        PSCENC =         9.31836840
  Ewald energy   TEWEN  =      7464.19428679
  -Hartree energ DENC   =    -14561.40702432
  -exchange      EXHF   =         0.00000000
  -V(xc)+E(xc)   XCENC  =       117.01899627
  PAW double counting   =      6992.78002682   -25627.72022703
  entropy T*S    EENTRO =        -0.00000000
  eigenvalues    EBANDS =      -844.63029636
  atomic energy  EATOM  =      7407.36190470
  ---------------------------------------------------
  free energy    TOTEN  =    -19043.08396474 eV

  energy without entropy =   -19043.08396474  energy(sigma->0) =   -19043.08396474
  exchange ACFDT corr.  =         0.00000000  see jH, gK, PRB 81, 115126


--------------------------------------------------------------------------------------------------------




--------------------------------------- Iteration      1(   3)  ---------------------------------------


    TRIAL :  cpu time      0.5505: real time      0.5505
    CORREC:  cpu time      0.0003: real time      0.0003
    --------------------------------------------
      LOOP:  cpu time      0.5584: real time      0.5591

 eigenvalue-minimisations  :   192
 total energy-change (2. order) :-0.5325638E+02  (-0.5325611E+02)
 number of electron      88.0000000 magnetization 
 augmentation part       88.0000000 magnetization 

 Free energy of the ion-electron system (eV)
  ---------------------------------------------------
  alpha Z        PSCENC =         9.31836840
  Ewald energy   TEWEN  =      7464.19428679
  -Hartree energ DENC   =    -14561.40702432
  -exchange      EXHF   =         0.00000000
  -V(xc)+E(xc)   XCENC  =       117.01899627
  PAW double counting   =      6992.78002682   -25627.72022703
  entropy T*S    EENTRO =        -0.00000000
  eigenvalues    EBANDS =      -897.88667226
  atomic energy  EATOM  =      7407.36190470
  ---------------------------------------------------
  free energy    TOTEN  =    -19096.34034063 eV

  energy without entropy =   -19096.34034063  energy(sigma->0) =   -19096.34034063
  exchange ACFDT corr.  =         0.00000000  see jH, gK, PRB 81, 115126


--------------------------------------------------------------------------------------------------------




--------------------------------------- Iteration      1(   4)  ---------------------------------------


    TRIAL :  cpu time      1.0330: real time      1.0331
    CORREC:  cpu time      0.0008: real time      0.0008
    --------------------------------------------
      LOOP:  cpu time      1.0408: real time      1.0411

 eigenvalue-minimisations  :   288
 total energy-change (2. order) :-0.3364196E+00  (-0.3364195E+00)
 number of electron      88.0000000 magnetization 
 augmentation part       88.0000000 magnetization 

 Free energy of the ion-electron system (eV)
  ---------------------------------------------------
  alpha Z        PSCENC =         9.31836840
  Ewald energy   TEWEN  =      7464.19428679
  -Hartree energ DENC   =    -14561.40702432
  -exchange      EXHF   =         0.00000000
  -V(xc)+E(xc)   XCENC  =       117.01899627
  PAW double counting   =      6992.78002682   -25627.72022703
  entropy T*S    EENTRO =        -0.00000000
  eigenvalues    EBANDS =      -898.22309185
  atomic energy  EATOM  =      7407.36190470
  ---------------------------------------------------
  free energy    TOTEN  =    -19096.67676023 eV

  energy without entropy =   -19096.67676023  energy(sigma->0) =   -19096.67676023
  exchange ACFDT corr.  =         0.00000000  see jH, gK, PRB 81, 115126


--------------------------------------------------------------------------------------------------------




--------------------------------------- Iteration      1(   5)  ---------------------------------------


    POTLOK:  cpu time      0.2017: real time      0.2017
    SETDIJ:  cpu time      0.5254: real time      0.5254
    TRIAL :  cpu time      8.2323: real time      8.2373
    CORREC:  cpu time      0.0003: real time      0.0003
    CHARGE:  cpu time      0.0974: real time      0.0976
    --------------------------------------------
      LOOP:  cpu time      9.0592: real time      9.0697

 eigenvalue-minimisations  :   192
 total energy-change (2. order) : 0.1907878E+05  (-0.8660106E+01)
 number of electron      88.0000004 magnetization 
 augmentation part       33.2545040 magnetization 

 Free energy of the ion-electron system (eV)
  ---------------------------------------------------
  alpha Z        PSCENC =         9.31836840
  Ewald energy   TEWEN  =      7464.19428679
  -Hartree energ DENC   =    -14561.40702432
  -exchange      EXHF   =       172.93080671
  -V(xc)+E(xc)   XCENC  =        83.70106079
  PAW double counting   =      7024.44989553    -6844.13360799
  entropy T*S    EENTRO =        -0.00000000
  eigenvalues    EBANDS =      -774.31071227
  atomic energy  EATOM  =      7407.36190470
  ---------------------------------------------------
  free energy    TOTEN  =       -17.89502167 eV

  energy without entropy =      -17.89502167  energy(sigma->0) =      -17.89502167
  exchange ACFDT corr.  =        -0.00000000  see jH, gK, PRB 81, 115126


--------------------------------------------------------------------------------------------------------




--------------------------------------- Iteration      1(   6)  ---------------------------------------


    POTLOK:  cpu time      0.2186: real time      0.2186
    SETDIJ:  cpu time      0.5250: real time      0.5250
    TRIAL :  cpu time      9.1556: real time      9.1614
    CORREC:  cpu time      8.7862: real time      8.7920
    CHARGE:  cpu time      0.0942: real time      0.0945
    --------------------------------------------
      LOOP:  cpu time     18.7882: real time     18.8006

 eigenvalue-minimisations  :     0
 total energy-change (2. order) : 0.1540731E+01  (-0.1684225E+01)
 number of electron      88.0000004 magnetization 
 augmentation part       32.9638428 magnetization 

 Free energy of the ion-electron system (eV)
  ---------------------------------------------------
  alpha Z        PSCENC =         9.31836840
  Ewald energy   TEWEN  =      7464.19428679
  -Hartree energ DENC   =    -14740.01550792
  -exchange      EXHF   =       164.46349279
  -V(xc)+E(xc)   XCENC  =        84.34430027
  PAW double counting   =      8761.80506491    -8591.26659517
  entropy T*S    EENTRO =        -0.00000000
  eigenvalues    EBANDS =      -576.55960562
  atomic energy  EATOM  =      7407.36190470
  ---------------------------------------------------
  free energy    TOTEN  =       -16.35429086 eV

  energy without entropy =      -16.35429086  energy(sigma->0) =      -16.35429086
  exchange ACFDT corr.  =        -0.00000000  see jH, gK, PRB 81, 115126


--------------------------------------------------------------------------------------------------------




--------------------------------------- Iteration      1(   7)  ---------------------------------------


    POTLOK:  cpu time      0.2278: real time      0.2278
    SETDIJ:  cpu time      0.5160: real time      0.5160
    TRIAL :  cpu time      8.0563: real time      8.0618
    CORREC:  cpu time      8.7332: real time      8.7392
    CHARGE:  cpu time      0.0950: real time      0.0953
    --------------------------------------------
      LOOP:  cpu time     17.6372: real time     17.6495

 eigenvalue-minimisations  :     0
 total energy-change (2. order) :-0.1696344E+01  (-0.2013997E+00)
 number of electron      88.0000004 magnetization 
 augmentation part       33.0280135 magnetization 

 Free energy of the ion-electron system (eV)
  ---------------------------------------------------
  alpha Z        PSCENC =         9.31836840
  Ewald energy   TEWEN  =      7464.19428679
  -Hartree energ DENC   =    -14586.57332149
  -exchange      EXHF   =       163.01749615
  -V(xc)+E(xc)   XCENC  =        82.89819530
  PAW double counting   =      8600.50078182    -8430.36659350
  entropy T*S    EENTRO =        -0.00000000
  eigenvalues    EBANDS =      -728.40175320
  atomic energy  EATOM  =      7407.36190470
  ---------------------------------------------------
  free energy    TOTEN  =       -18.05063504 eV

  energy without entropy =      -18.05063504  energy(sigma->0) =      -18.05063504
  exchange ACFDT corr.  =        -0.00000000  see jH, gK, PRB 81, 115126


--------------------------------------------------------------------------------------------------------




--------------------------------------- Iteration      1(   8)  ---------------------------------------


    POTLOK:  cpu time      0.2197: real time      0.2197
    SETDIJ:  cpu time      0.5243: real time      0.5244
    TRIAL :  cpu time      8.0244: real time      8.0297
    CORREC:  cpu time      8.6169: real time      8.6219
    CHARGE:  cpu time      0.0944: real time      0.0947
    --------------------------------------------
      LOOP:  cpu time     17.4885: real time     17.4995

 eigenvalue-minimisations  :     0
 total energy-change (2. order) :-0.2007630E+00  (-0.5800727E-01)
 number of electron      88.0000004 magnetization 
 augmentation part       32.9826347 magnetization 

 Free energy of the ion-electron system (eV)
  ---------------------------------------------------
  alpha Z        PSCENC =         9.31836840
  Ewald energy   TEWEN  =      7464.19428679
  -Hartree energ DENC   =    -14586.94742146
  -exchange      EXHF   =       163.24245248
  -V(xc)+E(xc)   XCENC  =        83.13391695
  PAW double counting   =      8586.42314144    -8416.14735708
  entropy T*S    EENTRO =        -0.00000000
  eigenvalues    EBANDS =      -728.83069029
  atomic energy  EATOM  =      7407.36190470
  ---------------------------------------------------
  free energy    TOTEN  =       -18.25139808 eV

  energy without entropy =      -18.25139808  energy(sigma->0) =      -18.25139808
  exchange ACFDT corr.  =        -0.00000000  see jH, gK, PRB 81, 115126


--------------------------------------------------------------------------------------------------------




--------------------------------------- Iteration      1(   9)  ---------------------------------------


    POTLOK:  cpu time      0.2189: real time      0.2189
    SETDIJ:  cpu time      0.5283: real time      0.5289
    TRIAL :  cpu time      8.0458: real time      8.0503
    CORREC:  cpu time      8.7839: real time      8.7893
    CHARGE:  cpu time      0.0947: real time      0.0950
    --------------------------------------------
      LOOP:  cpu time     17.6810: real time     17.6925

 eigenvalue-minimisations  :     0
 total energy-change (2. order) :-0.5778140E-01  (-0.1664188E-01)
 number of electron      88.0000004 magnetization 
 augmentation part       32.9749135 magnetization 

 Free energy of the ion-electron system (eV)
  ---------------------------------------------------
  alpha Z        PSCENC =         9.31836840
  Ewald energy   TEWEN  =      7464.19428679
  -Hartree energ DENC   =    -14579.43142465
  -exchange      EXHF   =       163.11912594
  -V(xc)+E(xc)   XCENC  =        83.01389740
  PAW double counting   =      8578.94167843    -8408.81959331
  entropy T*S    EENTRO =        -0.00000000
  eigenvalues    EBANDS =      -736.00742317
  atomic energy  EATOM  =      7407.36190470
  ---------------------------------------------------
  free energy    TOTEN  =       -18.30917948 eV

  energy without entropy =      -18.30917948  energy(sigma->0) =      -18.30917948
  exchange ACFDT corr.  =        -0.00000000  see jH, gK, PRB 81, 115126


--------------------------------------------------------------------------------------------------------




--------------------------------------- Iteration      1(  10)  ---------------------------------------


    POTLOK:  cpu time      0.2164: real time      0.2164
    SETDIJ:  cpu time      0.5237: real time      0.5237
    TRIAL :  cpu time      8.0782: real time      8.0830
    CORREC:  cpu time      8.7059: real time      8.7118
    CHARGE:  cpu time      0.0949: real time      0.0952
    --------------------------------------------
      LOOP:  cpu time     17.6264: real time     17.6381

 eigenvalue-minimisations  :     0
 total energy-change (2. order) :-0.1663276E-01  (-0.4868444E-02)
 number of electron      88.0000004 magnetization 
 augmentation part       32.9946053 magnetization 

 Free energy of the ion-electron system (eV)
  ---------------------------------------------------
  alpha Z        PSCENC =         9.31836840
  Ewald energy   TEWEN  =      7464.19428679
  -Hartree energ DENC   =    -14575.36525568
  -exchange      EXHF   =       163.05765154
  -V(xc)+E(xc)   XCENC  =        82.94343525
  PAW double counting   =      8579.34076433    -8409.20688358
  entropy T*S    EENTRO =        -0.00000000
  eigenvalues    EBANDS =      -739.97008399
  atomic energy  EATOM  =      7407.36190470
  ---------------------------------------------------
  free energy    TOTEN  =       -18.32581224 eV

  energy without entropy =      -18.32581224  energy(sigma->0) =      -18.32581224
  exchange ACFDT corr.  =        -0.00000000  see jH, gK, PRB 81, 115126


--------------------------------------------------------------------------------------------------------




--------------------------------------- Iteration      1(  11)  ---------------------------------------


    POTLOK:  cpu time      0.2083: real time      0.2084
    SETDIJ:  cpu time      0.5225: real time      0.5226
    TRIAL :  cpu time      8.0703: real time      8.0747
    CORREC:  cpu time      8.7380: real time      8.7437
    CHARGE:  cpu time      0.0947: real time      0.0951
    --------------------------------------------
      LOOP:  cpu time     17.6411: real time     17.6520

 eigenvalue-minimisations  :     0
 total energy-change (2. order) :-0.4862109E-02  (-0.1578606E-02)
 number of electron      88.0000004 magnetization 
 augmentation part       32.9870083 magnetization 

 Free energy of the ion-electron system (eV)
  ---------------------------------------------------
  alpha Z        PSCENC =         9.31836840
  Ewald energy   TEWEN  =      7464.19428679
  -Hartree energ DENC   =    -14575.88970501
  -exchange      EXHF   =       163.10225920
  -V(xc)+E(xc)   XCENC  =        82.98317952
  PAW double counting   =      8584.57135047    -8414.36571461
  entropy T*S    EENTRO =        -0.00000000
  eigenvalues    EBANDS =      -739.60660379
  atomic energy  EATOM  =      7407.36190470
  ---------------------------------------------------
  free energy    TOTEN  =       -18.33067435 eV

  energy without entropy =      -18.33067435  energy(sigma->0) =      -18.33067435
  exchange ACFDT corr.  =        -0.00000000  see jH, gK, PRB 81, 115126


--------------------------------------------------------------------------------------------------------




--------------------------------------- Iteration      1(  12)  ---------------------------------------


    POTLOK:  cpu time      0.2016: real time      0.2016
    SETDIJ:  cpu time      0.5244: real time      0.5244
    TRIAL :  cpu time      8.0132: real time      8.0186
    CORREC:  cpu time      8.8433: real time      8.8481
    CHARGE:  cpu time      0.0942: real time      0.0945
    --------------------------------------------
      LOOP:  cpu time     17.6855: real time     17.6965

 eigenvalue-minimisations  :     0
 total energy-change (2. order) :-0.1581957E-02  (-0.3666247E-03)
 number of electron      88.0000004 magnetization 
 augmentation part       32.9838615 magnetization 

 Free energy of the ion-electron system (eV)
  ---------------------------------------------------
  alpha Z        PSCENC =         9.31836840
  Ewald energy   TEWEN  =      7464.19428679
  -Hartree energ DENC   =    -14574.86227057
  -exchange      EXHF   =       163.07460395
  -V(xc)+E(xc)   XCENC  =        82.95651559
  PAW double counting   =      8585.62426613    -8415.44882744
  entropy T*S    EENTRO =        -0.00000000
  eigenvalues    EBANDS =      -740.55110385
  atomic energy  EATOM  =      7407.36190470
  ---------------------------------------------------
  free energy    TOTEN  =       -18.33225630 eV

  energy without entropy =      -18.33225630  energy(sigma->0) =      -18.33225630
  exchange ACFDT corr.  =        -0.00000000  see jH, gK, PRB 81, 115126


--------------------------------------------------------------------------------------------------------




--------------------------------------- Iteration      1(  13)  ---------------------------------------


    POTLOK:  cpu time      0.2007: real time      0.2007
    SETDIJ:  cpu time      0.5224: real time      0.5224
    TRIAL :  cpu time      8.1345: real time      8.1391
    CORREC:  cpu time      8.8122: real time      8.8175
    CHARGE:  cpu time      0.0943: real time      0.0947
    --------------------------------------------
      LOOP:  cpu time     17.7719: real time     17.7825

 eigenvalue-minimisations  :     0
 total energy-change (2. order) :-0.3677110E-03  (-0.9185707E-04)
 number of electron      88.0000004 magnetization 
 augmentation part       32.9856293 magnetization 

 Free energy of the ion-electron system (eV)
  ---------------------------------------------------
  alpha Z        PSCENC =         9.31836840
  Ewald energy   TEWEN  =      7464.19428679
  -Hartree energ DENC   =    -14574.46471250
  -exchange      EXHF   =       163.06798800
  -V(xc)+E(xc)   XCENC  =        82.95062191
  PAW double counting   =      8586.19276626    -8416.03607020
  entropy T*S    EENTRO =        -0.00000000
  eigenvalues    EBANDS =      -740.91777737
  atomic energy  EATOM  =      7407.36190470
  ---------------------------------------------------
  free energy    TOTEN  =       -18.33262401 eV

  energy without entropy =      -18.33262401  energy(sigma->0) =      -18.33262401
  exchange ACFDT corr.  =        -0.00000000  see jH, gK, PRB 81, 115126


--------------------------------------------------------------------------------------------------------




--------------------------------------- Iteration      1(  14)  ---------------------------------------


    POTLOK:  cpu time      0.1996: real time      0.1996
    SETDIJ:  cpu time      0.5229: real time      0.5229
    TRIAL :  cpu time      8.0683: real time      8.0734
    CORREC:  cpu time      8.7616: real time      8.7677
    CHARGE:  cpu time      0.0938: real time      0.0941
    --------------------------------------------
      LOOP:  cpu time     17.6557: real time     17.6677

 eigenvalue-minimisations  :     0
 total energy-change (2. order) :-0.9099636E-04  (-0.2687870E-04)
 number of electron      88.0000004 magnetization 
 augmentation part       32.9843157 magnetization 

 Free energy of the ion-electron system (eV)
  ---------------------------------------------------
  alpha Z        PSCENC =         9.31836840
  Ewald energy   TEWEN  =      7464.19428679
  -Hartree energ DENC   =    -14575.04401292
  -exchange      EXHF   =       163.07724542
  -V(xc)+E(xc)   XCENC  =        82.95984636
  PAW double counting   =      8586.92978828    -8416.77393809
  entropy T*S    EENTRO =        -0.00000000
  eigenvalues    EBANDS =      -740.35620394
  atomic energy  EATOM  =      7407.36190470
  ---------------------------------------------------
  free energy    TOTEN  =       -18.33271501 eV

  energy without entropy =      -18.33271501  energy(sigma->0) =      -18.33271501
  exchange ACFDT corr.  =        -0.00000000  see jH, gK, PRB 81, 115126


--------------------------------------------------------------------------------------------------------




--------------------------------------- Iteration      1(  15)  ---------------------------------------


    POTLOK:  cpu time      0.1992: real time      0.1992
    SETDIJ:  cpu time      0.5251: real time      0.5252
    TRIAL :  cpu time      7.9842: real time      7.9897
    CORREC:  cpu time      8.7065: real time      8.7125
    CHARGE:  cpu time      0.0948: real time      0.0951
    --------------------------------------------
      LOOP:  cpu time     17.5174: real time     17.5296

 eigenvalue-minimisations  :     0
 total energy-change (2. order) :-0.2708247E-04  (-0.9543030E-05)
 number of electron      88.0000004 magnetization 
 augmentation part       32.9843087 magnetization 

 Free energy of the ion-electron system (eV)
  ---------------------------------------------------
  alpha Z        PSCENC =         9.31836840
  Ewald energy   TEWEN  =      7464.19428679
  -Hartree energ DENC   =    -14574.73652080
  -exchange      EXHF   =       163.07305968
  -V(xc)+E(xc)   XCENC  =        82.95554571
  PAW double counting   =      8586.53043092    -8416.37937034
  entropy T*S    EENTRO =        -0.00000000
  eigenvalues    EBANDS =      -740.65044715
  atomic energy  EATOM  =      7407.36190470
  ---------------------------------------------------
  free energy    TOTEN  =       -18.33274209 eV

  energy without entropy =      -18.33274209  energy(sigma->0) =      -18.33274209
  exchange ACFDT corr.  =        -0.00000000  see jH, gK, PRB 81, 115126


--------------------------------------------------------------------------------------------------------




--------------------------------------- Iteration      1(  16)  ---------------------------------------


    POTLOK:  cpu time      0.1980: real time      0.1980
    SETDIJ:  cpu time      0.5238: real time      0.5238
    TRIAL :  cpu time      8.0172: real time      8.0217
    CORREC:  cpu time      8.5632: real time      8.5689
    CHARGE:  cpu time      0.0944: real time      0.0947
    --------------------------------------------
      LOOP:  cpu time     17.4043: real time     17.4152

 eigenvalue-minimisations  :     0
 total energy-change (2. order) :-0.9527379E-05  (-0.3415825E-05)
 number of electron      88.0000004 magnetization 
 augmentation part       32.9845043 magnetization 

 Free energy of the ion-electron system (eV)
  ---------------------------------------------------
  alpha Z        PSCENC =         9.31836840
  Ewald energy   TEWEN  =      7464.19428679
  -Hartree energ DENC   =    -14574.85661033
  -exchange      EXHF   =       163.07383864
  -V(xc)+E(xc)   XCENC  =        82.95624610
  PAW double counting   =      8586.52323054    -8416.37305213
  entropy T*S    EENTRO =        -0.00000000
  eigenvalues    EBANDS =      -740.53096432
  atomic energy  EATOM  =      7407.36190470
  ---------------------------------------------------
  free energy    TOTEN  =       -18.33275162 eV

  energy without entropy =      -18.33275162  energy(sigma->0) =      -18.33275162
  exchange ACFDT corr.  =        -0.00000000  see jH, gK, PRB 81, 115126


--------------------------------------------------------------------------------------------------------




--------------------------------------- Iteration      1(  17)  ---------------------------------------


    POTLOK:  cpu time      0.1995: real time      0.1995
    SETDIJ:  cpu time      0.5227: real time      0.5227
    TRIAL :  cpu time      8.1239: real time      8.1291
    CORREC:  cpu time      8.6024: real time      8.6079
    CHARGE:  cpu time      0.0936: real time      0.0939
    --------------------------------------------
      LOOP:  cpu time     17.5512: real time     17.5627

 eigenvalue-minimisations  :     0
 total energy-change (2. order) :-0.3333119E-05  (-0.9181276E-06)
 number of electron      88.0000004 magnetization 
 augmentation part       32.9844159 magnetization 

 Free energy of the ion-electron system (eV)
  ---------------------------------------------------
  alpha Z        PSCENC =         9.31836840
  Ewald energy   TEWEN  =      7464.19428679
  -Hartree energ DENC   =    -14574.86892051
  -exchange      EXHF   =       163.07475754
  -V(xc)+E(xc)   XCENC  =        82.95704537
  PAW double counting   =      8586.49327542    -8416.34271926
  entropy T*S    EENTRO =        -0.00000000
  eigenvalues    EBANDS =      -740.52075339
  atomic energy  EATOM  =      7407.36190470
  ---------------------------------------------------
  free energy    TOTEN  =       -18.33275495 eV

  energy without entropy =      -18.33275495  energy(sigma->0) =      -18.33275495
  exchange ACFDT corr.  =        -0.00000000  see jH, gK, PRB 81, 115126


--------------------------------------------------------------------------------------------------------




--------------------------------------- Iteration      1(  18)  ---------------------------------------


    POTLOK:  cpu time      0.1988: real time      0.1988
    SETDIJ:  cpu time      0.5242: real time      0.5242
    TRIAL :  cpu time      8.0500: real time      8.0557
    CORREC:  cpu time      8.7272: real time      8.7320
    EDDIAG:  cpu time      8.0217: real time      8.0267
    CHARGE:  cpu time      0.0923: real time      0.0925
    --------------------------------------------
      LOOP:  cpu time     25.6225: real time     25.6389

 eigenvalue-minimisations  :     0
 total energy-change (2. order) :-0.9239129E-06  (-0.2721195E-06)
 number of electron      88.0000004 magnetization 
 augmentation part       32.9843499 magnetization 

 Free energy of the ion-electron system (eV)
  ---------------------------------------------------
  alpha Z        PSCENC =         9.31836840
  Ewald energy   TEWEN  =      7464.19428679
  -Hartree energ DENC   =    -14574.87081488
  -exchange      EXHF   =       163.07460420
  -V(xc)+E(xc)   XCENC  =        82.95694664
  PAW double counting   =      8586.47531951    -8416.32523746
  entropy T*S    EENTRO =        -0.00000000
  eigenvalues    EBANDS =      -740.51820916
  atomic energy  EATOM  =      7407.36190470
  ---------------------------------------------------
  free energy    TOTEN  =       -18.33275588 eV

  energy without entropy =      -18.33275588  energy(sigma->0) =      -18.33275588
  exchange ACFDT corr.  =        -0.00000000  see jH, gK, PRB 81, 115126


--------------------------------------------------------------------------------------------------------


  average scaling for gradient   0.9974


 average (electrostatic) potential at core
  the test charge radii are     1.2098
  (the norm of the test charge is              1.0000)
       1 -71.0629       2 -71.1462       3 -71.1466       4 -71.4420       5 -71.1461
       6 -71.4600       7 -71.1470       8 -71.4417



 E-fermi :  -5.0875     XC(G=0):  -0.4103     alpha+bet : -0.2375

 Fermi energy:        -5.0875172199

 k-point     1 :       0.0000    0.0000    0.0000
  band No.  band energies     occupation 
      1     -11.5189      2.00000
      2     -10.9096      2.00000
      3     -10.8393      2.00000
      4     -10.2975      2.00000
      5     -10.2046      2.00000
      6     -10.0729      2.00000
      7      -9.9367      2.00000
      8      -9.9207      2.00000
      9      -9.7689      2.00000
     10      -9.6792      2.00000
     11      -9.6739      2.00000
     12      -9.3464      2.00000
     13      -9.3390      2.00000
     14      -9.2872      2.00000
     15      -9.2445      2.00000
     16      -9.1832      2.00000
     17      -9.0996      2.00000
     18      -9.0104      2.00000
     19      -8.4955      2.00000
     20      -8.4747      2.00000
     21      -8.3824      2.00000
     22      -8.2058      2.00000
     23      -8.1861      2.00000
     24      -8.1139      2.00000
     25      -8.0114      2.00000
     26      -7.9287      2.00000
     27      -7.9267      2.00000
     28      -7.7377      2.00000
     29      -7.7317      2.00000
     30      -7.5431      2.00000
     31      -7.5396      2.00000
     32      -7.4363      2.00000
     33      -7.4283      2.00000
     34      -7.3294      2.00000
     35      -7.1837      2.00000
     36      -7.1765      2.00000
     37      -6.9840      2.00000
     38      -6.9556      2.00000
     39      -6.9386      2.00000
     40      -6.9003      2.00000
     41      -6.8080      2.00000
     42      -6.3891      2.00000
     43      -5.7578      2.00000
     44      -5.3607      2.00000
     45      -3.3696      0.00000
     46      -3.0860      0.00000
     47      -2.9913      0.00000
     48      -2.7578      0.00000
     49      -1.6747      0.00000
     50      -1.5180      0.00000
     51      -0.8749      0.00000
     52      -0.4548      0.00000
     53      -0.0673      0.00000
     54       0.1658      0.00000
     55       0.1995      0.00000
     56       0.3169      0.00000
     57       0.3320      0.00000
     58       0.4916      0.00000
     59       0.5271      0.00000
     60       0.5363      0.00000
     61       0.5719      0.00000
     62       0.6032      0.00000
     63       0.6844      0.00000
     64       0.6886      0.00000
     65       0.7904      0.00000
     66       0.8335      0.00000
     67       0.8379      0.00000
     68       0.8794      0.00000
     69       0.8874      0.00000
     70       0.8997      0.00000
     71       0.9109      0.00000
     72       0.9224      0.00000
     73       0.9800      0.00000
     74       1.0215      0.00000
     75       1.0980      0.00000
     76       1.1420      0.00000
     77       1.1841      0.00000
     78       1.2346      0.00000
     79       1.2469      0.00000
     80       1.2682      0.00000
     81       1.3239      0.00000
     82       1.3475      0.00000
     83       1.3955      0.00000
     84       1.4169      0.00000
     85       1.4796      0.00000
     86       1.5675      0.00000
     87       1.6064      0.00000
     88       1.6656      0.00000
     89       1.7332      0.00000
     90       1.7724      0.00000
     91       1.8085      0.00000
     92       1.8687      0.00000
     93       1.8833      0.00000
     94       1.9171      0.00000
     95       1.9215      0.00000
     96       1.9331      0.00000


--------------------------------------------------------------------------------------------------------


 soft charge-density along one line, spin component           1
         0         1         2         3         4         5         6         7         8         9
 total charge-density along one line

 pseudopotential strength for first ion, spin component:           1
 -8.334  -0.001   0.000  -0.002   0.003  -8.493  -0.001   0.000
 -0.001  -8.342   0.001  -0.000  -0.000  -0.001  -8.501   0.001
  0.000   0.001  -8.333   0.005  -0.000   0.000   0.001  -8.492
 -0.002  -0.000   0.005  -8.343  -0.004  -0.002  -0.000   0.004
  0.003  -0.000  -0.000  -0.004  -8.328   0.003  -0.000  -0.000
 -8.493  -0.001   0.000  -0.002   0.003  -8.636  -0.001   0.000
 -0.001  -8.501   0.001  -0.000  -0.000  -0.001  -8.644   0.001
  0.000   0.001  -8.492   0.004  -0.000   0.000   0.001  -8.635
 -0.002  -0.000   0.004  -8.502  -0.004  -0.002  -0.000   0.004
  0.003  -0.000  -0.000  -0.004  -8.488   0.003  -0.000  -0.000
  0.002  -0.001  -0.005  -0.003   0.005   0.002  -0.001  -0.005
  0.003  -0.001  -0.007  -0.004   0.007   0.003  -0.001  -0.007
  0.006   0.000   0.015  -0.000   0.027   0.006   0.000   0.015
 -0.000  -0.029   0.001   0.006   0.000  -0.000  -0.028   0.001
 -0.028  -0.000  -0.003   0.001   0.006  -0.027  -0.000  -0.003
  0.007   0.000   0.017  -0.000   0.031   0.007   0.000   0.016
 -0.000  -0.032   0.001   0.007   0.000  -0.000  -0.031   0.001
 -0.030  -0.000  -0.004   0.001   0.007  -0.029  -0.000  -0.004
 total augmentation occupancy for first ion, spin component:           1
  4.235  -0.123   0.048  -0.011  -0.440  -2.118   0.110  -0.044  -0.009   0.471   0.017  -0.043  -0.030   0.030  -0.365   0.006
 -0.123   3.796  -0.026  -0.182   0.043   0.110  -1.745   0.044   0.170  -0.045   0.045  -0.014   0.007  -0.240   0.032   0.000
  0.048  -0.026   3.008  -0.003   0.093  -0.044   0.044  -0.859   0.069  -0.089   0.423  -0.149   0.067   0.007  -0.016   0.012
 -0.011  -0.182  -0.003   3.015  -0.026  -0.009   0.170   0.069  -1.020  -0.015   0.139  -0.031   0.001   0.053  -0.000  -0.000
 -0.440   0.043   0.093  -0.026   3.503   0.471  -0.045  -0.090  -0.015  -1.332   0.034  -0.091   0.140  -0.012   0.143   0.023
 -2.118   0.110  -0.044  -0.009   0.471   1.991  -0.100   0.042   0.024  -0.497  -0.030   0.041   0.025  -0.025   0.381  -0.000
  0.110  -1.745   0.044   0.170  -0.045  -0.100   1.670  -0.059  -0.162   0.047  -0.041   0.015  -0.007   0.281  -0.027   0.000
 -0.044   0.044  -0.859   0.069  -0.090   0.042  -0.059   0.701  -0.122   0.090  -0.396   0.161  -0.090  -0.008   0.021   0.003
 -0.009   0.170   0.069  -1.020  -0.015   0.024  -0.162  -0.122   0.986   0.048  -0.123   0.036  -0.005  -0.062  -0.000   0.001
  0.471  -0.045  -0.089  -0.015  -1.332  -0.497   0.047   0.090   0.048   1.161  -0.063   0.086  -0.160   0.009  -0.145   0.004
  0.017   0.045   0.423   0.139   0.034  -0.030  -0.041  -0.396  -0.123  -0.063   4.126  -1.402   0.378  -0.007  -0.084  -0.025
 -0.043  -0.014  -0.149  -0.031  -0.091   0.041   0.015   0.161   0.036   0.086  -1.402   0.494  -0.149   0.003   0.033   0.009
 -0.030   0.007   0.067   0.001   0.140   0.025  -0.007  -0.090  -0.005  -0.160   0.378  -0.149   0.069  -0.002   0.005  -0.004
  0.030  -0.240   0.007   0.053  -0.012  -0.025   0.281  -0.008  -0.062   0.009  -0.007   0.003  -0.002   0.057  -0.007   0.000
 -0.365   0.032  -0.016  -0.000   0.143   0.381  -0.027   0.021  -0.000  -0.145  -0.084   0.033   0.005  -0.007   0.091   0.000
  0.006   0.000   0.012  -0.000   0.023  -0.000   0.000   0.003   0.001   0.004  -0.025   0.009  -0.004   0.000   0.000   0.001
 -0.000  -0.021   0.000   0.005   0.000   0.000  -0.007   0.000   0.002  -0.000   0.000  -0.000   0.000  -0.002   0.000  -0.000
 -0.020  -0.000  -0.003   0.001   0.004  -0.008   0.000  -0.001  -0.000   0.003   0.006  -0.002   0.000   0.000  -0.002  -0.000


------------------------ aborting loop because EDIFF is reached ----------------------------------------


    FORLOC:  cpu time      0.0032: real time      0.0032
    FORHF :  cpu time      3.1052: real time      3.1068
    FORNL :  cpu time      0.0996: real time      0.0996
    FORCOR:  cpu time      0.6958: real time      0.6960
    OFIELD:  cpu time      0.0002: real time      0.0002
    FORVDW:  cpu time      0.0063: real time      0.0063

 VOLUME and BASIS-vectors are now :
 -----------------------------------------------------------------------------
  energy-cutoff  :      520.00
  volume of cell :     8000.00
      direct lattice vectors                 reciprocal lattice vectors
    20.000000000  0.000000000  0.000000000     0.050000000  0.000000000  0.000000000
     0.000000000 20.000000000  0.000000000     0.000000000  0.050000000  0.000000000
     0.000000000  0.000000000 20.000000000     0.000000000  0.000000000  0.050000000

  length of vectors
    20.000000000 20.000000000 20.000000000     0.050000000  0.050000000  0.050000000


 FORCES acting on ions:
    Electron-Ion                     Ewald-Force                    Non-Local-Force
 -----------------------------------------------------------------------------------------------
   -.189E+03 0.843E+03 -.162E+02   0.188E+03 -.839E+03 0.161E+02   0.955E+00 -.431E+01 0.813E-01
   0.681E+03 0.347E+03 0.334E+03   -.679E+03 -.346E+03 -.332E+03   -.168E+01 -.779E+00 -.275E+01
   0.502E+03 0.289E+03 -.599E+03   -.502E+03 -.289E+03 0.596E+03   -.522E+00 -.407E+00 0.324E+01
   -.399E+02 -.464E+03 -.687E+03   0.393E+02 0.460E+03 0.681E+03   0.489E+00 0.329E+01 0.591E+01
   -.761E+03 0.116E+02 -.341E+03   0.759E+03 -.118E+02 0.338E+03   0.182E+01 0.112E+00 0.276E+01
   0.161E+03 -.720E+03 0.138E+02   -.161E+03 0.719E+03 -.138E+02   -.887E-01 0.389E+00 -.451E-02
   -.582E+03 0.696E+02 0.593E+03   0.582E+03 -.693E+02 -.589E+03   0.675E+00 -.262E+00 -.322E+01
   0.228E+03 -.377E+03 0.703E+03   -.226E+03 0.375E+03 -.697E+03   -.180E+01 0.256E+01 -.602E+01
 -----------------------------------------------------------------------------------------------
   0.147E+00 -.637E+00 0.119E-01   0.000E+00 0.000E+00 0.171E-12   -.142E+00 0.596E+00 -.764E-02


 POSITION                                       TOTAL-FORCE (eV/Angst)
 -----------------------------------------------------------------------------------
     10.39546      8.14262     10.06980         0.015421     -0.076480     -0.001291
      8.27478      9.54089      9.01878        -0.054711     -0.030196      0.026297
      8.77870      9.70357     11.65101        -0.058847     -0.032022     -0.001852
     10.08825     11.89653     12.58993        -0.007303      0.079755      0.054532
     11.71065     10.34663     11.05087         0.063045     -0.003524     -0.028071
      9.56156     11.87172      9.99732         0.000940     -0.007798      0.000710
     11.20567     10.18422      8.41848         0.067945     -0.002882      0.002719
      9.09641     11.57678      7.40929        -0.026491      0.073148     -0.053044
 -----------------------------------------------------------------------------------
    total drift:                               -0.001366     -0.002346      0.002582


--------------------------------------------------------------------------------------------------------



  FREE ENERGIE OF THE ION-ELECTRON SYSTEM (eV)
  ---------------------------------------------------
  free  energy   TOTEN  =       -19.26069513 eV

  energy  without entropy=      -19.26069513  energy(sigma->0) =      -19.26069513



--------------------------------------------------------------------------------------------------------


    POTLOK:  cpu time      0.7211: real time      0.7211


--------------------------------------------------------------------------------------------------------


     LOOP+:  cpu time    256.1638: real time    256.3390
    4ORBIT:  cpu time      0.0000: real time      0.0000

 total amount of memory used by VASP MPI-rank0   955741. kBytes
=======================================================================

   base      :      30000. kBytes
   nonlr-proj:       5419. kBytes
   fftplans  :      48991. kBytes
   grid      :      38630. kBytes
   one-center:         31. kBytes
   HF        :         64. kBytes
   wavefun   :       2592. kBytes
   fock_wrk  :     830014. kBytes

  
  
 General timing and accounting informations for this job:
 ========================================================
  
                  Total CPU time used (sec):      281.882
                            User time (sec):      268.505
                          System time (sec):       13.377
                         Elapsed time (sec):      284.698
  
                   Maximum memory used (kb):     1762584.
                   Average memory used (kb):          N/A
  
                          Minor page faults:      1747181
                          Major page faults:            0
                 Voluntary context switches:        16933
