 vasp.6.3.0 20Jan22 (build Apr  1 2022 16:44:48) complex                         
 executed on        HPECrayEX_GCC date 2023.01.09  17:50:34
 running  768 mpi-ranks, with    1 threads/rank
 distrk:  each k-point on  384 cores,    2 groups
 distr:  one band on NCORE=   4 cores,   96 groups


--------------------------------------------------------------------------------------------------------


 INCAR:
   SYSTEM = MgO-rocksalt
   ISMEAR = 0
   SIGMA = 0.05
   EDIFF = 1E-6
   ALGO = ALL
   ISTART = 0
   IBRION = -1
   NSW = 0
   ISYM = 2
   GGA = MK
   LUSE_VDW = .TRUE.
   PARAM1 = 0.1234
   PARAM2 = 0.711357
   ZAB_VDW = -1.8867
   AGGAC = 0.0
   ENCUT = 520
   PREC = Accurate
   LASPH = .TRUE.
   LREAL = Auto
   ISPIN = 1
   NELM = 200
   NELMIN = 8
   NCORE = 4
   KPAR = 2
   LWAVE = .FALSE.
   LCHARG = .FALSE.

 POTCAR:    PAW_PBE Cu 22Jun2005                  
 -----------------------------------------------------------------------------
|                                                                             |
|               ----> ADVICE to this user running VASP <----                  |
|                                                                             |
|     You have switched on vdW-DFT.                                           |
|     This routine was written and supplied by Jiri Klimes. We recommend      |
|     that you carefully read and cite the following publications:            |
|       J. Klimes, D.R. Bowler, A. Michelides                                 |
|          J. Phys.: Cond Matt. 22 022201 (2010)                              |
|       J. Klimes, D.R. Bowler, A. Michelides                                 |
|          Phys. Rev. B. 83, 195131 (2011)                                    |
|     and references therein.                                                 |
|                                                                             |
 -----------------------------------------------------------------------------

 POTCAR:    PAW_PBE Cu 22Jun2005                  
   SHA256 =  0e71e558f37a4e8407882b4609ceaae59938afaad9ced71dfe8490308a0ab630 Cu/POTCAR             
   COPYR  = (c) Copyright 22Jun2005 Georg Kresse                                                    
   COPYR  = This file is part of the software VASP. Any use, copying, and all other rights are regul
   COPYR  = If you do not have a valid VASP license, you may not use, copy or distribute this file. 
   VRHFIN =Cu: d10 p1                                                                               
   LEXCH  = PE                                                                                      
   EATOM  =  1390.9808 eV,  102.2342 Ry                                                             
                                                                                                    
   TITEL  = PAW_PBE Cu 22Jun2005                                                                    
   LULTRA =        F    use ultrasoft PP ?                                                          
   IUNSCR =        1    unscreen: 0-lin 1-nonlin 2-no                                               
   RPACOR =    2.000    partial core radius                                                         
   POMASS =   63.546; ZVAL   =   11.000    mass and valenz                                          
   RCORE  =    2.300    outmost cutoff radius                                                       
   RWIGS  =    2.200; RWIGS  =    1.164    wigner-seitz radius (au A)                               
   ENMAX  =  295.446; ENMIN  =  221.585 eV                                                          
   ICORE  =        3    local potential                                                             
   LCOR   =        T    correct aug charges                                                         
   LPAW   =        T    paw PP                                                                      
   EAUG   =  586.980                                                                                
   DEXC   =    0.000                                                                                
   RMAX   =    2.344    core radius for proj-oper                                                   
   RAUG   =    1.300    factor for augmentation sphere                                              
   RDEP   =    2.302    radius for radial grids                                                     
   RDEPT  =    1.771    core radius for aug-charge                                                  
                                                                                                    
   Atomic configuration                                                                             
    9 entries                                                                                       
     n  l   j            E        occ.                                                              
     1  0  0.50     -8850.2468   2.0000                                                             
     2  0  0.50     -1062.3498   2.0000                                                             
     2  1  1.50      -916.8226   6.0000                                                             
     3  0  0.50      -114.6929   2.0000                                                             
     3  1  1.50       -72.1325   6.0000                                                             
     3  2  2.50        -5.0394  10.0000                                                             
     4  0  0.50        -4.6097   1.0000                                                             
     4  1  0.50        -4.0817   0.0000                                                             
     4  3  2.50        -1.3606   0.0000                                                             
   Description                                                                                      
     l       E           TYP  RCUT    TYP  RCUT                                                     
     2     -5.0393973     23  2.200                                                                 
     2     10.8846608     23  2.200                                                                 
     0     -4.6097109     23  2.200                                                                 
     0      8.2520465     23  2.200                                                                 
     1     -2.7211652     23  2.200                                                                 
     1     21.7055443     23  2.200                                                                 
     3      2.7211652     23  2.300                                                                 
  local pseudopotential read in
  partial core-charges read in
  partial kinetic energy density read in
  atomic valenz-charges read in
  non local Contribution for L=           2  read in
    real space projection operators read in
  non local Contribution for L=           2  read in
    real space projection operators read in
  non local Contribution for L=           0  read in
    real space projection operators read in
  non local Contribution for L=           0  read in
    real space projection operators read in
  non local Contribution for L=           1  read in
    real space projection operators read in
  non local Contribution for L=           1  read in
    real space projection operators read in
    PAW grid and wavefunctions read in

   number of l-projection  operators is LMAX  =           6
   number of lm-projection operators is LMMAX =          18

 -----------------------------------------------------------------------------
|                                                                             |
|               ----> ADVICE to this user running VASP <----                  |
|                                                                             |
|     You have a (more or less) 'small supercell' and for smaller cells       |
|     it is recommended to use the reciprocal-space projection scheme!        |
|     The real-space optimization is not efficient for small cells and it     |
|     is also less accurate ...                                               |
|     Therefore, set LREAL=.FALSE. in the INCAR file.                         |
|                                                                             |
 -----------------------------------------------------------------------------

 Optimization of the real space projectors (new method)

 maximal supplied QI-value         = 16.25
 optimisation between [QCUT,QGAM] = [ 11.54, 23.24] = [ 37.28,151.24] Ry 
 Optimized for a Real-space Cutoff    1.53 Angstroem

   l    n(q)    QCUT    max X(q) W(low)/X(q) W(high)/X(q)  e(spline) 
   2     10    11.539     4.610    0.96E-04    0.13E-03    0.19E-06
   2     10    11.539     8.522    0.16E-03    0.21E-03    0.28E-06
   0     11    11.539    51.609    0.45E-04    0.31E-04    0.11E-06
   0     11    11.539    27.747    0.39E-04    0.29E-04    0.10E-06
   1     10    11.539    20.408    0.70E-05    0.38E-04    0.18E-06
   1     10    11.539    13.425    0.66E-05    0.34E-04    0.17E-06
 -----------------------------------------------------------------------------
|                                                                             |
|               ----> ADVICE to this user running VASP <----                  |
|                                                                             |
|     You enforced a specific xc type in the INCAR file but a different       |
|     type was found in the POTCAR file.                                      |
|     I HOPE YOU KNOW WHAT YOU ARE DOING!                                     |
|                                                                             |
 -----------------------------------------------------------------------------

  PAW_PBE Cu 22Jun2005                  :
 energy of atom  1       EATOM=-1390.9808
 kinetic energy error for atom=    0.0037 (will be added to EATOM!!)


 POSCAR: Cu Mg  O
  positions in direct lattice
  No initial velocities read in
 exchange correlation table for  LEXCH =       43
   RHO(1)=    0.500       N(1)  =     2000
   RHO(2)=  100.500       N(2)  =     4000



--------------------------------------------------------------------------------------------------------


 ion  position               nearest neighbor table
   1  0.400  0.417  0.591-   4 2.26   3 2.42   2 2.42
   2  0.490  0.488  0.600-   4 2.37   1 2.42
   3  0.310  0.488  0.600-   4 2.37   1 2.42
   4  0.400  0.492  0.664-   1 2.26   2 2.37   3 2.37

  LATTYP: Found a simple tetragonal cell.
 ALAT       =    21.1388521970
 C/A-ratio  =     1.0461251639
  
  Lattice vectors:
  
 A1 = (  21.1388521970,   0.0000000000,   0.0000000000)
 A2 = (   0.0000000000,  21.1388521970,   0.0000000000)
 A3 = (   0.0000000000,   0.0000000000,  22.1138852197)


Analysis of symmetry for initial positions (statically):
=====================================================================
 Subroutine PRICEL returns:
 Original cell was already a primitive cell.
 

 Routine SETGRP: Setting up the symmetry group for a 
 simple tetragonal supercell.


 Subroutine GETGRP returns: Found  2 space group operations
 (whereof  1 operations were pure point group operations)
 out of a pool of 16 trial point group operations.


The static configuration has the point symmetry C_1 .
 The point group associated with its full space group is C_1h.


Analysis of symmetry for dynamics (positions and initial velocities):
=====================================================================
 Subroutine PRICEL returns:
 Original cell was already a primitive cell.
 

 Routine SETGRP: Setting up the symmetry group for a 
 simple tetragonal supercell.


 Subroutine GETGRP returns: Found  2 space group operations
 (whereof  1 operations were pure point group operations)
 out of a pool of 16 trial point group operations.


The dynamic configuration has the point symmetry C_1 .
 The point group associated with its full space group is C_1h.


Analysis of constrained symmetry for selective dynamics:
=====================================================================
 Subroutine PRICEL returns:
 Original cell was already a primitive cell.
 

 Routine SETGRP: Setting up the symmetry group for a 
 simple tetragonal supercell.


 Subroutine GETGRP returns: Found  2 space group operations
 (whereof  1 operations were pure point group operations)
 out of a pool of 16 trial point group operations.


The constrained configuration has the point symmetry C_1 .
 The point group associated with its full space group is C_1h.


 Subroutine INISYM returns: Found  2 space group operations
 (whereof  1 operations are pure point group operations),
 and found     1 'primitive' translations


----------------------------------------------------------------------------------------

                                     Primitive cell                                     

  volume of cell :    9881.6133

  direct lattice vectors                    reciprocal lattice vectors
    21.138852197  0.000000000  0.000000000     0.047306258  0.000000000  0.000000000
     0.000000000 21.138852197  0.000000000     0.000000000  0.047306258  0.000000000
     0.000000000  0.000000000 22.113885220     0.000000000  0.000000000  0.045220457

  length of vectors
    21.138852197 21.138852197 22.113885220     0.047306258  0.047306258  0.045220457

  position of ions in fractional coordinates (direct lattice)
     0.400000448  0.417421820  0.590666055
     0.489930887  0.487828399  0.600479320
     0.310074740  0.487828788  0.600479320
     0.400005179  0.491990244  0.664187608

  ion indices of the primitive-cell ions
   primitive index   ion index
                 1           1
                 2           2
                 3           3
                 4           4

----------------------------------------------------------------------------------------



 KPOINTS: KPOINTS created by Atomic Simulation Env

Automatic generation of k-mesh.
 Grid dimensions read from file:
 generate k-points for:    1    1    1

 Generating k-lattice:

  Cartesian coordinates                     Fractional coordinates (reciprocal lattice)
     0.047306258  0.000000000  0.000000000     1.000000000  0.000000000  0.000000000
     0.000000000  0.047306258  0.000000000     0.000000000  1.000000000  0.000000000
     0.000000000  0.000000000  0.045220457     0.000000000  0.000000000  1.000000000

  Length of vectors
     0.047306258  0.047306258  0.045220457

  Shift w.r.t. Gamma in fractional coordinates (k-lattice)
     0.000000000  0.000000000  0.000000000

 
 Subroutine IBZKPT returns following result:
 ===========================================
 
 Found      1 irreducible k-points:
 
 Following reciprocal coordinates:
            Coordinates               Weight
  0.000000  0.000000  0.000000      1.000000
 
 Following cartesian coordinates:
            Coordinates               Weight
  0.000000  0.000000  0.000000      1.000000
 


--------------------------------------------------------------------------------------------------------




 Dimension of arrays:
   k-points           NKPTS =      1   k-points in BZ     NKDIM =      1   number of bands    NBANDS=     96
   number of dos      NEDOS =    301   number of ions     NIONS =      4
   non local maximal  LDIM  =      6   non local SUM 2l+1 LMDIM =     18
   total plane-waves  NPLWV = ******
   max r-space proj   IRMAX =   6628   max aug-charges    IRDMAX=  12805
   dimension x,y,z NGX =   160 NGY =  160 NGZ =  168
   dimension x,y,z NGXF=   320 NGYF=  320 NGZF=  336
   support grid    NGXF=   320 NGYF=  320 NGZF=  336
   ions per type =               4
   NGX,Y,Z   is equivalent  to a cutoff of  12.58, 12.58, 12.63 a.u.
   NGXF,Y,Z  is equivalent  to a cutoff of  25.17, 25.17, 25.26 a.u.

 SYSTEM =  MgO-rocksalt                            
 POSCAR =  Cu Mg  O                                

 Startparameter for this run:
   NWRITE =      2    write-flag & timer
   PREC   = accura    normal or accurate (medium, high low for compatibility)
   ISTART =      0    job   : 0-new  1-cont  2-samecut
   ICHARG =      2    charge: 1-file 2-atom 10-const
   ISPIN  =      1    spin polarized calculation?
   LNONCOLLINEAR =      F non collinear calculations
   LSORBIT =      F    spin-orbit coupling
   INIWAV =      1    electr: 0-lowe 1-rand  2-diag
   LASPH  =      T    aspherical Exc in radial PAW
 Electronic Relaxation 1
   ENCUT  =  520.0 eV  38.22 Ry    6.18 a.u.  39.30 39.30 41.12*2*pi/ulx,y,z
   ENINI  =  520.0     initial cutoff
   ENAUG  =  587.0 eV  augmentation charge cutoff
   NELM   =    200;   NELMIN=  8; NELMDL= -5     # of ELM steps 
   EDIFF  = 0.1E-05   stopping-criterion for ELM
   LREAL  =      T    real-space projection
   NLSPLINE    = F    spline interpolate recip. space projectors
   LCOMPAT=      F    compatible to vasp.4.4
   GGA_COMPAT  = T    GGA compatible to vasp.4.4-vasp.4.6
   LMAXPAW     = -100 max onsite density
   LMAXMIX     =    2 max onsite mixed and CHGCAR
   VOSKOWN=      0    Vosko Wilk Nusair interpolation
   ROPT   =   -0.00025
 Ionic relaxation
   EDIFFG = 0.1E-04   stopping-criterion for IOM
   NSW    =      0    number of steps for IOM
   NBLOCK =      1;   KBLOCK =      1    inner block; outer block 
   IBRION =     -1    ionic relax: 0-MD 1-quasi-New 2-CG
   NFREE  =      0    steps in history (QN), initial steepest desc. (CG)
   ISIF   =      2    stress and relaxation
   IWAVPR =     10    prediction:  0-non 1-charg 2-wave 3-comb
   ISYM   =      2    0-nonsym 1-usesym 2-fastsym
   LCORR  =      T    Harris-Foulkes like correction to forces

   POTIM  = 0.5000    time-step for ionic-motion
   TEIN   =    0.0    initial temperature
   TEBEG  =    0.0;   TEEND  =   0.0 temperature during run
   SMASS  =  -3.00    Nose mass-parameter (am)
   estimated Nose-frequenzy (Omega)   =  0.10E-29 period in steps = 0.13E+47 mass=  -0.102E-25a.u.
   SCALEE = 1.0000    scale energy and forces
   NPACO  =    256;   APACO  = 10.0  distance and # of slots for P.C.
   PSTRESS=    0.0 pullay stress

  Mass of Ions in am
   POMASS =  63.55
  Ionic Valenz
   ZVAL   =  11.00
  Atomic Wigner-Seitz radii
   RWIGS  =  -1.00
  virtual crystal weights 
   VCA    =   1.00
   NELECT =      44.0000    total number of electrons
   NUPDOWN=      -1.0000    fix difference up-down

 DOS related values:
   EMIN   =  10.00;   EMAX   =-10.00  energy-range for DOS
   EFERMI =   0.00
   ISMEAR =     0;   SIGMA  =   0.05  broadening in eV -4-tet -1-fermi 0-gaus

 Electronic relaxation 2 (details)
   IALGO  =     58    algorithm
   LDIAG  =      T    sub-space diagonalisation (order eigenvalues)
   LSUBROT=      F    optimize rotation matrix (better conditioning)
   TURBO    =      0    0=normal 1=particle mesh
   IRESTART =      0    0=no restart 2=restart with 2 vectors
   NREBOOT  =      0    no. of reboots
   NMIN     =      0    reboot dimension
   EREF     =   0.00    reference energy to select bands
   IMIX   =      4    mixing-type and parameters
     AMIX     =   0.40;   BMIX     =  1.00
     AMIX_MAG =   1.60;   BMIX_MAG =  1.00
     AMIN     =   0.10
     WC   =   100.;   INIMIX=   1;  MIXPRE=   1;  MAXMIX= -45

 Intra band minimization:
   WEIMIN = 0.0000     energy-eigenvalue tresh-hold
   EBREAK =  0.26E-08  absolut break condition
   DEPER  =   0.30     relativ break condition  

   TIME   =   0.40     timestep for ELM

  volume/ion in A,a.u.               =    2470.40     16671.10
  Fermi-wavevector in a.u.,A,eV,Ry     =   0.269329  0.508958  0.986941  0.072538
  Thomas-Fermi vector in A             =   1.106612

 Write flags
   LWAVE        =      F    write WAVECAR
   LDOWNSAMPLE  =      F    k-point downsampling of WAVECAR
   LCHARG       =      F    write CHGCAR
   LVTOT        =      F    write LOCPOT, total local potential
   LVHAR        =      F    write LOCPOT, Hartree potential only
   LELF         =      F    write electronic localiz. function (ELF)
   LORBIT       =      0    0 simple, 1 ext, 2 COOP (PROOUT), +10 PAW based schemes


 Dipole corrections
   LMONO  =      F    monopole corrections only (constant potential shift)
   LDIPOL =      F    correct potential (dipole corrections)
   IDIPOL =      0    1-x, 2-y, 3-z, 4-all directions 
   EPSILON=  1.0000000 bulk dielectric constant

 Exchange correlation treatment:
   GGA     =    MK    GGA type
   LEXCH   =    43    internal setting for exchange type
   LIBXC   =     F    Libxc                    
   VOSKOWN =     0    Vosko Wilk Nusair interpolation
   LHFCALC =     F    Hartree Fock is set to
   LHFONE  =     F    Hartree Fock one center treatment
   AEXX    =    0.0000 exact exchange contribution

 vdW DFT:
   LUSE_VDW   =     T    switch on vdW DFT
   Zab_VDW    =******    correlation parameter
   PARAM1     =0.1234
   PARAM2     =0.7114
   PARAM3     =0.0000
   -- rVV10 --
   BPARAM     = 6.3000
   CPARAM     = 0.0093

 Linear response parameters
   LEPSILON=     F    determine dielectric tensor
   LRPA    =     F    only Hartree local field effects (RPA)
   LNABLA  =     F    use nabla operator in PAW spheres
   LVEL    =     F    velocity operator in full k-point grid
   CSHIFT  =0.1000    complex shift for real part using Kramers Kronig
   OMEGAMAX=  -1.0    maximum frequency
   DEG_THRESHOLD= 0.2000000E-02 threshold for treating states as degnerate
   RTIME   =   -0.100 relaxation time in fs
  (WPLASMAI=    0.000 imaginary part of plasma frequency in eV, 0.658/RTIME)
   DFIELD  = 0.0000000 0.0000000 0.0000000 field for delta impulse in time

  Optional k-point grid parameters
   LKPOINTS_OPT  =     F    use optional k-point grid
   KPOINTS_OPT_MODE=     1    mode for optional k-point grid

 Orbital magnetization related:
   ORBITALMAG=     F  switch on orbital magnetization
   LCHIMAG   =     F  perturbation theory with respect to B field
   DQ        =  0.001000  dq finite difference perturbation B field
   LLRAUG    =     F  two centre corrections for induced B field



--------------------------------------------------------------------------------------------------------


 Static calculation
 charge density and potential will be updated during run
 non-spin polarized calculation
 Conjugate gradient for all bands (Freysoldt, et al. PRB 79, 241103 (2009))
 preconditioned conjugated gradient                                        
 perform sub-space diagonalisation
    before iterative eigenvector-optimisation
 modified Broyden-mixing scheme, WC =      100.0
 initial mixing is a Kerker type mixing with AMIX =  0.4000 and BMIX =      1.0000
 Hartree-type preconditioning will be used
 using additional bands           74
 real space projection scheme for non local part
 use partial core corrections
 no Harris-corrections to forces 
 use gradient corrections 
 use of overlap-Matrix (Vanderbilt PP)
 Gauss-broadening in eV      SIGMA  =   0.05


--------------------------------------------------------------------------------------------------------


  energy-cutoff  :      520.00
  volume of cell :     9881.61
      direct lattice vectors                 reciprocal lattice vectors
    21.138852197  0.000000000  0.000000000     0.047306258  0.000000000  0.000000000
     0.000000000 21.138852197  0.000000000     0.000000000  0.047306258  0.000000000
     0.000000000  0.000000000 22.113885220     0.000000000  0.000000000  0.045220457

  length of vectors
    21.138852197 21.138852197 22.113885220     0.047306258  0.047306258  0.045220457



 k-points in units of 2pi/SCALE and weight: KPOINTS created by Atomic Simulation Env
   0.00000000  0.00000000  0.00000000       1.000

 k-points in reciprocal lattice and weights: KPOINTS created by Atomic Simulation Env
   0.00000000  0.00000000  0.00000000       1.000

 position of ions in fractional coordinates (direct lattice) 
   0.40000045  0.41742182  0.59066605
   0.48993089  0.48782840  0.60047932
   0.31007474  0.48782879  0.60047932
   0.40000518  0.49199024  0.66418761

 position of ions in cartesian coordinates  (Angst):
   8.45555035  8.82381816 13.06192134
  10.35657660 10.31213242 13.27893076
   6.55462410 10.31214064 13.27893076
   8.45565035 10.40010904 14.68776852



--------------------------------------------------------------------------------------------------------


 k-point   1 :   0.0000 0.0000 0.0000  plane waves:  265979

 maximum and minimum number of plane-waves per node :     66495    66494

 maximum number of plane-waves:    265979
 maximum index in each direction: 
   IXMAX=   39   IYMAX=   39   IZMAX=   41
   IXMIN=  -39   IYMIN=  -39   IZMIN=  -41


 real space projection operators:
  total allocation   :       3592.97 KBytes
  max/ min on nodes  :        899.44        896.91


 parallel 3D FFT for wavefunctions:
    minimum data exchange during FFTs selected (reduces bandwidth)
 parallel 3D FFT for charge:
    minimum data exchange during FFTs selected (reduces bandwidth)


 total amount of memory used by VASP MPI-rank0   118527. kBytes
=======================================================================

   base      :      30000. kBytes
   nonlr-proj:       1552. kBytes
   fftplans  :      35474. kBytes
   grid      :      48291. kBytes
   one-center:         15. kBytes
   wavefun   :       3195. kBytes

     INWAV:  cpu time      0.0001: real time      0.0001
 Broyden mixing: mesh for mixing (old mesh)
   NGX = 79   NGY = 79   NGZ = 83
  (NGX  =320   NGY  =320   NGZ  =336)
  gives a total of 518003 points

 initial charge density was supplied:
 charge density of overlapping atoms calculated
 number of electron      44.0000000 magnetization 
 keeping initial charge density in first step


--------------------------------------------------------------------------------------------------------


 Maximum index for non-local projection operator         1614
 Maximum index for augmentation-charges            0 (set IRDMAX)


--------------------------------------------------------------------------------------------------------


 First call to EWALD:  gamma=   0.083
 Maximum number of real-space cells 3x 3x 3
 Maximum number of reciprocal cells 3x 3x 3

    FEWALD:  cpu time      0.0010: real time      0.0010


--------------------------------------- Iteration      1(   1)  ---------------------------------------


vdW kernel read from vdw_kernel.bindat
  0.0000  0.2424  0.5071  0.7962  1.1119  1.4567  1.8333  2.2446  2.6937  3.1842
  3.7199  4.3049  4.9438  5.6415  6.4036  7.2358  8.1446  9.1372 10.2212 11.4050
 12.6979 14.1099 15.6519 17.3360 19.1751 21.1837 23.3773 25.7729 28.3892 31.2465
 34.3669 37.7748 41.4965 45.5611 50.0000

    POTLOK:  cpu time      2.0991: real time      2.1029
    SETDIJ:  cpu time      0.2040: real time      0.2041
    TRIAL :  cpu time      0.6279: real time      0.6282
    CORREC:  cpu time      0.0011: real time      0.0011
    --------------------------------------------
      LOOP:  cpu time      2.9336: real time      2.9377

 eigenvalue-minimisations  :   192
 total energy-change (2. order) : 0.2531768E+03  (-0.8550359E+03)
 number of electron      44.0000000 magnetization 
 augmentation part       44.0000000 magnetization 

 Free energy of the ion-electron system (eV)
  ---------------------------------------------------
  alpha Z        PSCENC =         1.18414354
  Ewald energy   TEWEN  =      2311.80305605
  -Hartree energ DENC   =     -7387.96324510
  -exchange      EXHF   =         0.00000000
  -V(xc)+E(xc)   XCENC  =       177.53623266
  PAW double counting   =      4915.35606902    -5337.06777903
  entropy T*S    EENTRO =        -0.09145716
  eigenvalues    EBANDS =        -8.42680884
  atomic energy  EATOM  =      5580.84654338
  ---------------------------------------------------
  free energy    TOTEN  =       253.17675451 eV

  energy without entropy =      253.26821167  energy(sigma->0) =      253.22248309


--------------------------------------------------------------------------------------------------------




--------------------------------------- Iteration      1(   2)  ---------------------------------------


    TRIAL :  cpu time      0.6238: real time      0.6238
    CORREC:  cpu time      0.0009: real time      0.0009
    --------------------------------------------
      LOOP:  cpu time      0.6282: real time      0.6334

 eigenvalue-minimisations  :   192
 total energy-change (2. order) :-0.2430278E+03  (-0.2418735E+03)
 number of electron      44.0000000 magnetization 
 augmentation part       44.0000000 magnetization 

 Free energy of the ion-electron system (eV)
  ---------------------------------------------------
  alpha Z        PSCENC =         1.18414354
  Ewald energy   TEWEN  =      2311.80305605
  -Hartree energ DENC   =     -7387.96324510
  -exchange      EXHF   =         0.00000000
  -V(xc)+E(xc)   XCENC  =       177.53623266
  PAW double counting   =      4915.35606902    -5337.06777903
  entropy T*S    EENTRO =        -0.00000000
  eigenvalues    EBANDS =      -251.54607331
  atomic energy  EATOM  =      5580.84654338
  ---------------------------------------------------
  free energy    TOTEN  =        10.14894721 eV

  energy without entropy =       10.14894721  energy(sigma->0) =       10.14894721


--------------------------------------------------------------------------------------------------------




--------------------------------------- Iteration      1(   3)  ---------------------------------------


    TRIAL :  cpu time      0.6363: real time      0.6363
    CORREC:  cpu time      0.0009: real time      0.0009
    --------------------------------------------
      LOOP:  cpu time      0.6396: real time      0.6441

 eigenvalue-minimisations  :   192
 total energy-change (2. order) :-0.7546606E+01  (-0.7546606E+01)
 number of electron      44.0000000 magnetization 
 augmentation part       44.0000000 magnetization 

 Free energy of the ion-electron system (eV)
  ---------------------------------------------------
  alpha Z        PSCENC =         1.18414354
  Ewald energy   TEWEN  =      2311.80305605
  -Hartree energ DENC   =     -7387.96324510
  -exchange      EXHF   =         0.00000000
  -V(xc)+E(xc)   XCENC  =       177.53623266
  PAW double counting   =      4915.35606902    -5337.06777903
  entropy T*S    EENTRO =        -0.00000000
  eigenvalues    EBANDS =      -259.09267952
  atomic energy  EATOM  =      5580.84654338
  ---------------------------------------------------
  free energy    TOTEN  =         2.60234099 eV

  energy without entropy =        2.60234099  energy(sigma->0) =        2.60234099


--------------------------------------------------------------------------------------------------------




--------------------------------------- Iteration      1(   4)  ---------------------------------------


    TRIAL :  cpu time      0.6264: real time      0.6265
    CORREC:  cpu time      0.0005: real time      0.0005
    --------------------------------------------
      LOOP:  cpu time      0.6336: real time      0.6339

 eigenvalue-minimisations  :   192
 total energy-change (2. order) :-0.1435598E+00  (-0.1435598E+00)
 number of electron      44.0000000 magnetization 
 augmentation part       44.0000000 magnetization 

 Free energy of the ion-electron system (eV)
  ---------------------------------------------------
  alpha Z        PSCENC =         1.18414354
  Ewald energy   TEWEN  =      2311.80305605
  -Hartree energ DENC   =     -7387.96324510
  -exchange      EXHF   =         0.00000000
  -V(xc)+E(xc)   XCENC  =       177.53623266
  PAW double counting   =      4915.35606902    -5337.06777903
  entropy T*S    EENTRO =        -0.00000000
  eigenvalues    EBANDS =      -259.23623929
  atomic energy  EATOM  =      5580.84654338
  ---------------------------------------------------
  free energy    TOTEN  =         2.45878122 eV

  energy without entropy =        2.45878122  energy(sigma->0) =        2.45878122


--------------------------------------------------------------------------------------------------------




--------------------------------------- Iteration      1(   5)  ---------------------------------------


    TRIAL :  cpu time      2.0291: real time      2.0293
    CORREC:  cpu time      0.0007: real time      0.0007
    CHARGE:  cpu time      0.6318: real time      0.6322
    --------------------------------------------
      LOOP:  cpu time      2.6650: real time      2.6694

 eigenvalue-minimisations  :   384
 total energy-change (2. order) :-0.2556232E-02  (-0.2556232E-02)
 number of electron      44.0000012 magnetization 
 augmentation part       27.6385037 magnetization 

 Free energy of the ion-electron system (eV)
  ---------------------------------------------------
  alpha Z        PSCENC =         1.18414354
  Ewald energy   TEWEN  =      2311.80305605
  -Hartree energ DENC   =     -7387.96324510
  -exchange      EXHF   =         0.00000000
  -V(xc)+E(xc)   XCENC  =       177.53623266
  PAW double counting   =      4915.35606902    -5337.06777903
  entropy T*S    EENTRO =        -0.00000000
  eigenvalues    EBANDS =      -259.23879552
  atomic energy  EATOM  =      5580.84654338
  ---------------------------------------------------
  free energy    TOTEN  =         2.45622499 eV

  energy without entropy =        2.45622499  energy(sigma->0) =        2.45622499


--------------------------------------------------------------------------------------------------------




--------------------------------------- Iteration      1(   6)  ---------------------------------------


    POTLOK:  cpu time      1.4939: real time      1.4941
    SETDIJ:  cpu time      0.2045: real time      0.2045
    TRIAL :  cpu time      0.9041: real time      0.9044
    CORREC:  cpu time      2.4066: real time      2.4069
    CHARGE:  cpu time      0.6581: real time      0.6582
    --------------------------------------------
      LOOP:  cpu time      5.6691: real time      5.6751

 eigenvalue-minimisations  :     0
 total energy-change (2. order) : 0.3753320E+01  (-0.1859654E+01)
 number of electron      44.0000013 magnetization 
 augmentation part       28.3912615 magnetization 

 Free energy of the ion-electron system (eV)
  ---------------------------------------------------
  alpha Z        PSCENC =         1.18414354
  Ewald energy   TEWEN  =      2311.80305605
  -Hartree energ DENC   =     -7325.66842411
  -exchange      EXHF   =         0.00000000
  -V(xc)+E(xc)   XCENC  =       172.38117038
  PAW double counting   =      5061.52341187    -5464.50006135
  entropy T*S    EENTRO =        -0.00000000
  eigenvalues    EBANDS =      -331.36029493
  atomic energy  EATOM  =      5580.84654338
  ---------------------------------------------------
  free energy    TOTEN  =         6.20954482 eV

  energy without entropy =        6.20954482  energy(sigma->0) =        6.20954482


--------------------------------------------------------------------------------------------------------




--------------------------------------- Iteration      1(   7)  ---------------------------------------


    POTLOK:  cpu time      1.5000: real time      1.5001
    SETDIJ:  cpu time      0.2226: real time      0.2226
    TRIAL :  cpu time      0.2532: real time      0.2533
    CORREC:  cpu time      2.4769: real time      2.4770
    CHARGE:  cpu time      0.6482: real time      0.6483
    --------------------------------------------
      LOOP:  cpu time      5.1080: real time      5.1085

 eigenvalue-minimisations  :     0
 total energy-change (2. order) :-0.1750276E+01  (-0.5137788E+00)
 number of electron      44.0000013 magnetization 
 augmentation part       28.2787217 magnetization 

 Free energy of the ion-electron system (eV)
  ---------------------------------------------------
  alpha Z        PSCENC =         1.18414354
  Ewald energy   TEWEN  =      2311.80305605
  -Hartree energ DENC   =     -7414.22505404
  -exchange      EXHF   =         0.00000000
  -V(xc)+E(xc)   XCENC  =       176.29678632
  PAW double counting   =      5113.49701869    -5544.71003011
  entropy T*S    EENTRO =        -0.00000000
  eigenvalues    EBANDS =      -220.23319458
  atomic energy  EATOM  =      5580.84654338
  ---------------------------------------------------
  free energy    TOTEN  =         4.45926925 eV

  energy without entropy =        4.45926925  energy(sigma->0) =        4.45926925


--------------------------------------------------------------------------------------------------------




--------------------------------------- Iteration      1(   8)  ---------------------------------------


    POTLOK:  cpu time      1.5022: real time      1.5023
    SETDIJ:  cpu time      0.2204: real time      0.2204
    TRIAL :  cpu time      0.2516: real time      0.2517
    CORREC:  cpu time      2.4060: real time      2.4066
    CHARGE:  cpu time      0.6076: real time      0.6076
    --------------------------------------------
      LOOP:  cpu time      4.9914: real time      4.9956

 eigenvalue-minimisations  :     0
 total energy-change (2. order) :-0.5128854E+00  (-0.1064208E+00)
 number of electron      44.0000013 magnetization 
 augmentation part       28.4288295 magnetization 

 Free energy of the ion-electron system (eV)
  ---------------------------------------------------
  alpha Z        PSCENC =         1.18414354
  Ewald energy   TEWEN  =      2311.80305605
  -Hartree energ DENC   =     -7368.42113060
  -exchange      EXHF   =         0.00000000
  -V(xc)+E(xc)   XCENC  =       175.35871150
  PAW double counting   =      5084.22082848    -5508.43288437
  entropy T*S    EENTRO =        -0.00000000
  eigenvalues    EBANDS =      -272.61288410
  atomic energy  EATOM  =      5580.84654338
  ---------------------------------------------------
  free energy    TOTEN  =         3.94638388 eV

  energy without entropy =        3.94638388  energy(sigma->0) =        3.94638388


--------------------------------------------------------------------------------------------------------




--------------------------------------- Iteration      1(   9)  ---------------------------------------


    POTLOK:  cpu time      1.4997: real time      1.4997
    SETDIJ:  cpu time      0.2254: real time      0.2254
    TRIAL :  cpu time      0.2517: real time      0.2517
    CORREC:  cpu time      2.3988: real time      2.3989
    CHARGE:  cpu time      0.6173: real time      0.6174
    --------------------------------------------
      LOOP:  cpu time      4.9963: real time      5.0003

 eigenvalue-minimisations  :     0
 total energy-change (2. order) :-0.1056316E+00  (-0.6940287E-01)
 number of electron      44.0000013 magnetization 
 augmentation part       28.3533981 magnetization 

 Free energy of the ion-electron system (eV)
  ---------------------------------------------------
  alpha Z        PSCENC =         1.18414354
  Ewald energy   TEWEN  =      2311.80305605
  -Hartree energ DENC   =     -7387.67304828
  -exchange      EXHF   =         0.00000000
  -V(xc)+E(xc)   XCENC  =       176.20616183
  PAW double counting   =      5099.40298748    -5528.69392172
  entropy T*S    EENTRO =        -0.00000000
  eigenvalues    EBANDS =      -249.23516995
  atomic energy  EATOM  =      5580.84654338
  ---------------------------------------------------
  free energy    TOTEN  =         3.84075233 eV

  energy without entropy =        3.84075233  energy(sigma->0) =        3.84075233


--------------------------------------------------------------------------------------------------------




--------------------------------------- Iteration      1(  10)  ---------------------------------------


    POTLOK:  cpu time      1.5023: real time      1.5025
    SETDIJ:  cpu time      0.2154: real time      0.2154
    TRIAL :  cpu time      0.2520: real time      0.2520
    CORREC:  cpu time      2.3995: real time      2.4000
    CHARGE:  cpu time      0.6079: real time      0.6080
    --------------------------------------------
      LOOP:  cpu time      4.9840: real time      4.9850

 eigenvalue-minimisations  :     0
 total energy-change (2. order) :-0.6923988E-01  (-0.3051188E-01)
 number of electron      44.0000013 magnetization 
 augmentation part       28.4097506 magnetization 

 Free energy of the ion-electron system (eV)
  ---------------------------------------------------
  alpha Z        PSCENC =         1.18414354
  Ewald energy   TEWEN  =      2311.80305605
  -Hartree energ DENC   =     -7379.85611650
  -exchange      EXHF   =         0.00000000
  -V(xc)+E(xc)   XCENC  =       175.86825760
  PAW double counting   =      5098.44025919    -5524.02331419
  entropy T*S    EENTRO =        -0.00000000
  eigenvalues    EBANDS =      -260.49131662
  atomic energy  EATOM  =      5580.84654338
  ---------------------------------------------------
  free energy    TOTEN  =         3.77151245 eV

  energy without entropy =        3.77151245  energy(sigma->0) =        3.77151245


--------------------------------------------------------------------------------------------------------




--------------------------------------- Iteration      1(  11)  ---------------------------------------


    POTLOK:  cpu time      1.5035: real time      1.5036
    SETDIJ:  cpu time      0.2154: real time      0.2154
    TRIAL :  cpu time      0.2521: real time      0.2521
    CORREC:  cpu time      2.4003: real time      2.4004
    CHARGE:  cpu time      0.6054: real time      0.6054
    --------------------------------------------
      LOOP:  cpu time      4.9795: real time      4.9840

 eigenvalue-minimisations  :     0
 total energy-change (2. order) :-0.3099467E-01  (-0.1000785E-01)
 number of electron      44.0000013 magnetization 
 augmentation part       28.3850871 magnetization 

 Free energy of the ion-electron system (eV)
  ---------------------------------------------------
  alpha Z        PSCENC =         1.18414354
  Ewald energy   TEWEN  =      2311.80305605
  -Hartree energ DENC   =     -7388.08113207
  -exchange      EXHF   =         0.00000000
  -V(xc)+E(xc)   XCENC  =       176.19489418
  PAW double counting   =      5102.41239187    -5529.49413159
  entropy T*S    EENTRO =        -0.00000000
  eigenvalues    EBANDS =      -251.12524757
  atomic energy  EATOM  =      5580.84654338
  ---------------------------------------------------
  free energy    TOTEN  =         3.74051778 eV

  energy without entropy =        3.74051778  energy(sigma->0) =        3.74051778


--------------------------------------------------------------------------------------------------------




--------------------------------------- Iteration      1(  12)  ---------------------------------------


    POTLOK:  cpu time      1.5017: real time      1.5017
    SETDIJ:  cpu time      0.2171: real time      0.2171
    TRIAL :  cpu time      0.2518: real time      0.2519
    CORREC:  cpu time      2.4531: real time      2.4537
    CHARGE:  cpu time      0.6531: real time      0.6532
    --------------------------------------------
      LOOP:  cpu time      5.0804: real time      5.0859

 eigenvalue-minimisations  :     0
 total energy-change (2. order) :-0.1004618E-01  (-0.3387498E-02)
 number of electron      44.0000013 magnetization 
 augmentation part       28.3855325 magnetization 

 Free energy of the ion-electron system (eV)
  ---------------------------------------------------
  alpha Z        PSCENC =         1.18414354
  Ewald energy   TEWEN  =      2311.80305605
  -Hartree energ DENC   =     -7384.01181514
  -exchange      EXHF   =         0.00000000
  -V(xc)+E(xc)   XCENC  =       176.05224571
  PAW double counting   =      5099.12003093    -5524.94979976
  entropy T*S    EENTRO =        -0.00000000
  eigenvalues    EBANDS =      -256.31393311
  atomic energy  EATOM  =      5580.84654338
  ---------------------------------------------------
  free energy    TOTEN  =         3.73047161 eV

  energy without entropy =        3.73047161  energy(sigma->0) =        3.73047161


--------------------------------------------------------------------------------------------------------




--------------------------------------- Iteration      1(  13)  ---------------------------------------


    POTLOK:  cpu time      1.4947: real time      1.4947
    SETDIJ:  cpu time      0.2193: real time      0.2193
    TRIAL :  cpu time      0.2524: real time      0.2524
    CORREC:  cpu time      2.4106: real time      2.4107
    CHARGE:  cpu time      0.6065: real time      0.6065
    --------------------------------------------
      LOOP:  cpu time      4.9892: real time      4.9913

 eigenvalue-minimisations  :     0
 total energy-change (2. order) :-0.3389063E-02  (-0.1661397E-02)
 number of electron      44.0000013 magnetization 
 augmentation part       28.3960605 magnetization 

 Free energy of the ion-electron system (eV)
  ---------------------------------------------------
  alpha Z        PSCENC =         1.18414354
  Ewald energy   TEWEN  =      2311.80305605
  -Hartree energ DENC   =     -7382.97453768
  -exchange      EXHF   =         0.00000000
  -V(xc)+E(xc)   XCENC  =       176.02716096
  PAW double counting   =      5097.23437873    -5522.99592851
  entropy T*S    EENTRO =        -0.00000000
  eigenvalues    EBANDS =      -257.39773393
  atomic energy  EATOM  =      5580.84654338
  ---------------------------------------------------
  free energy    TOTEN  =         3.72708254 eV

  energy without entropy =        3.72708254  energy(sigma->0) =        3.72708254


--------------------------------------------------------------------------------------------------------




--------------------------------------- Iteration      1(  14)  ---------------------------------------


    POTLOK:  cpu time      1.4925: real time      1.4926
    SETDIJ:  cpu time      0.2155: real time      0.2155
    TRIAL :  cpu time      0.2511: real time      0.2511
    CORREC:  cpu time      2.3858: real time      2.3863
    CHARGE:  cpu time      0.6286: real time      0.6286
    --------------------------------------------
      LOOP:  cpu time      4.9770: real time      4.9822

 eigenvalue-minimisations  :     0
 total energy-change (2. order) :-0.1658427E-02  (-0.4278804E-03)
 number of electron      44.0000013 magnetization 
 augmentation part       28.3882644 magnetization 

 Free energy of the ion-electron system (eV)
  ---------------------------------------------------
  alpha Z        PSCENC =         1.18414354
  Ewald energy   TEWEN  =      2311.80305605
  -Hartree energ DENC   =     -7383.69707600
  -exchange      EXHF   =         0.00000000
  -V(xc)+E(xc)   XCENC  =       176.06909969
  PAW double counting   =      5097.18182219    -5523.30776664
  entropy T*S    EENTRO =        -0.00000000
  eigenvalues    EBANDS =      -256.35439808
  atomic energy  EATOM  =      5580.84654338
  ---------------------------------------------------
  free energy    TOTEN  =         3.72542412 eV

  energy without entropy =        3.72542412  energy(sigma->0) =        3.72542412


--------------------------------------------------------------------------------------------------------




--------------------------------------- Iteration      1(  15)  ---------------------------------------


    POTLOK:  cpu time      1.4833: real time      1.4834
    SETDIJ:  cpu time      0.2203: real time      0.2203
    TRIAL :  cpu time      0.2519: real time      0.2519
    CORREC:  cpu time      2.4304: real time      2.4305
    CHARGE:  cpu time      0.6127: real time      0.6127
    --------------------------------------------
      LOOP:  cpu time      5.0058: real time      5.0063

 eigenvalue-minimisations  :     0
 total energy-change (2. order) :-0.4278804E-03  (-0.2109618E-03)
 number of electron      44.0000013 magnetization 
 augmentation part       28.3942672 magnetization 

 Free energy of the ion-electron system (eV)
  ---------------------------------------------------
  alpha Z        PSCENC =         1.18414354
  Ewald energy   TEWEN  =      2311.80305605
  -Hartree energ DENC   =     -7382.60921945
  -exchange      EXHF   =         0.00000000
  -V(xc)+E(xc)   XCENC  =       176.02365211
  PAW double counting   =      5096.58380127    -5522.39551096
  entropy T*S    EENTRO =        -0.00000000
  eigenvalues    EBANDS =      -257.71146971
  atomic energy  EATOM  =      5580.84654338
  ---------------------------------------------------
  free energy    TOTEN  =         3.72499624 eV

  energy without entropy =        3.72499624  energy(sigma->0) =        3.72499624


--------------------------------------------------------------------------------------------------------




--------------------------------------- Iteration      1(  16)  ---------------------------------------


    POTLOK:  cpu time      1.4802: real time      1.4803
    SETDIJ:  cpu time      0.2206: real time      0.2206
    TRIAL :  cpu time      0.2518: real time      0.2518
    CORREC:  cpu time      2.4249: real time      2.4255
    CHARGE:  cpu time      0.6062: real time      0.6063
    --------------------------------------------
      LOOP:  cpu time      4.9909: real time      4.9926

 eigenvalue-minimisations  :     0
 total energy-change (2. order) :-0.2108244E-03  (-0.6512317E-04)
 number of electron      44.0000013 magnetization 
 augmentation part       28.3919578 magnetization 

 Free energy of the ion-electron system (eV)
  ---------------------------------------------------
  alpha Z        PSCENC =         1.18414354
  Ewald energy   TEWEN  =      2311.80305605
  -Hartree energ DENC   =     -7383.47833162
  -exchange      EXHF   =         0.00000000
  -V(xc)+E(xc)   XCENC  =       176.05672159
  PAW double counting   =      5097.33041138    -5523.36649881
  entropy T*S    EENTRO =        -0.00000000
  eigenvalues    EBANDS =      -256.65126010
  atomic energy  EATOM  =      5580.84654338
  ---------------------------------------------------
  free energy    TOTEN  =         3.72478541 eV

  energy without entropy =        3.72478541  energy(sigma->0) =        3.72478541


--------------------------------------------------------------------------------------------------------




--------------------------------------- Iteration      1(  17)  ---------------------------------------


    POTLOK:  cpu time      1.4816: real time      1.4817
    SETDIJ:  cpu time      0.2212: real time      0.2212
    TRIAL :  cpu time      0.2514: real time      0.2514
    CORREC:  cpu time      2.3826: real time      2.3827
    CHARGE:  cpu time      0.6074: real time      0.6075
    --------------------------------------------
      LOOP:  cpu time      4.9510: real time      4.9517

 eigenvalue-minimisations  :     0
 total energy-change (2. order) :-0.6516137E-04  (-0.2383874E-04)
 number of electron      44.0000013 magnetization 
 augmentation part       28.3933019 magnetization 

 Free energy of the ion-electron system (eV)
  ---------------------------------------------------
  alpha Z        PSCENC =         1.18414354
  Ewald energy   TEWEN  =      2311.80305605
  -Hartree energ DENC   =     -7383.18426559
  -exchange      EXHF   =         0.00000000
  -V(xc)+E(xc)   XCENC  =       176.04504810
  PAW double counting   =      5097.37126380    -5523.30293520
  entropy T*S    EENTRO =        -0.00000000
  eigenvalues    EBANDS =      -257.03813382
  atomic energy  EATOM  =      5580.84654338
  ---------------------------------------------------
  free energy    TOTEN  =         3.72472025 eV

  energy without entropy =        3.72472025  energy(sigma->0) =        3.72472025


--------------------------------------------------------------------------------------------------------




--------------------------------------- Iteration      1(  18)  ---------------------------------------


    POTLOK:  cpu time      1.4787: real time      1.4787
    SETDIJ:  cpu time      0.2179: real time      0.2179
    TRIAL :  cpu time      0.2520: real time      0.2520
    CORREC:  cpu time      2.3784: real time      2.3793
    CHARGE:  cpu time      0.6310: real time      0.6311
    --------------------------------------------
      LOOP:  cpu time      4.9649: real time      4.9663

 eigenvalue-minimisations  :     0
 total energy-change (2. order) :-0.2379790E-04  (-0.7350198E-05)
 number of electron      44.0000013 magnetization 
 augmentation part       28.3934219 magnetization 

 Free energy of the ion-electron system (eV)
  ---------------------------------------------------
  alpha Z        PSCENC =         1.18414354
  Ewald energy   TEWEN  =      2311.80305605
  -Hartree energ DENC   =     -7383.39420143
  -exchange      EXHF   =         0.00000000
  -V(xc)+E(xc)   XCENC  =       176.05302952
  PAW double counting   =      5097.62540028    -5523.60443315
  entropy T*S    EENTRO =        -0.00000000
  eigenvalues    EBANDS =      -256.78884174
  atomic energy  EATOM  =      5580.84654338
  ---------------------------------------------------
  free energy    TOTEN  =         3.72469645 eV

  energy without entropy =        3.72469645  energy(sigma->0) =        3.72469645


--------------------------------------------------------------------------------------------------------




--------------------------------------- Iteration      1(  19)  ---------------------------------------


    POTLOK:  cpu time      1.4787: real time      1.4788
    SETDIJ:  cpu time      0.2220: real time      0.2220
    TRIAL :  cpu time      0.2524: real time      0.2524
    CORREC:  cpu time      2.4262: real time      2.4263
    CHARGE:  cpu time      0.6059: real time      0.6059
    --------------------------------------------
      LOOP:  cpu time      4.9882: real time      4.9926

 eigenvalue-minimisations  :     0
 total energy-change (2. order) :-0.7340549E-05  (-0.3910892E-05)
 number of electron      44.0000013 magnetization 
 augmentation part       28.3929993 magnetization 

 Free energy of the ion-electron system (eV)
  ---------------------------------------------------
  alpha Z        PSCENC =         1.18414354
  Ewald energy   TEWEN  =      2311.80305605
  -Hartree energ DENC   =     -7383.43706331
  -exchange      EXHF   =         0.00000000
  -V(xc)+E(xc)   XCENC  =       176.05402407
  PAW double counting   =      5097.73801641    -5523.72232626
  entropy T*S    EENTRO =        -0.00000000
  eigenvalues    EBANDS =      -256.74170476
  atomic energy  EATOM  =      5580.84654338
  ---------------------------------------------------
  free energy    TOTEN  =         3.72468911 eV

  energy without entropy =        3.72468911  energy(sigma->0) =        3.72468911


--------------------------------------------------------------------------------------------------------




--------------------------------------- Iteration      1(  20)  ---------------------------------------


    POTLOK:  cpu time      1.4776: real time      1.4777
    SETDIJ:  cpu time      0.2198: real time      0.2198
    TRIAL :  cpu time      0.2509: real time      0.2510
    CORREC:  cpu time      2.3978: real time      2.3984
    CHARGE:  cpu time      0.6547: real time      0.6548
    --------------------------------------------
      LOOP:  cpu time      5.0029: real time      5.0089

 eigenvalue-minimisations  :     0
 total energy-change (2. order) :-0.3925037E-05  (-0.1267859E-05)
 number of electron      44.0000013 magnetization 
 augmentation part       28.3933875 magnetization 

 Free energy of the ion-electron system (eV)
  ---------------------------------------------------
  alpha Z        PSCENC =         1.18414354
  Ewald energy   TEWEN  =      2311.80305605
  -Hartree energ DENC   =     -7383.38924098
  -exchange      EXHF   =         0.00000000
  -V(xc)+E(xc)   XCENC  =       176.05167378
  PAW double counting   =      5097.76059566    -5523.72996484
  entropy T*S    EENTRO =        -0.00000000
  eigenvalues    EBANDS =      -256.80212140
  atomic energy  EATOM  =      5580.84654338
  ---------------------------------------------------
  free energy    TOTEN  =         3.72468519 eV

  energy without entropy =        3.72468519  energy(sigma->0) =        3.72468519


--------------------------------------------------------------------------------------------------------




--------------------------------------- Iteration      1(  21)  ---------------------------------------


    POTLOK:  cpu time      1.4800: real time      1.4801
    SETDIJ:  cpu time      0.2178: real time      0.2178
    TRIAL :  cpu time      0.2524: real time      0.2524
    CORREC:  cpu time      2.3802: real time      2.3804
    CHARGE:  cpu time      0.6050: real time      0.6051
    --------------------------------------------
      LOOP:  cpu time      4.9378: real time      4.9433

 eigenvalue-minimisations  :     0
 total energy-change (2. order) :-0.1270882E-05  (-0.5013524E-06)
 number of electron      44.0000013 magnetization 
 augmentation part       28.3931340 magnetization 

 Free energy of the ion-electron system (eV)
  ---------------------------------------------------
  alpha Z        PSCENC =         1.18414354
  Ewald energy   TEWEN  =      2311.80305605
  -Hartree energ DENC   =     -7383.42371084
  -exchange      EXHF   =         0.00000000
  -V(xc)+E(xc)   XCENC  =       176.05344941
  PAW double counting   =      5097.80411292    -5523.78915649
  entropy T*S    EENTRO =        -0.00000000
  eigenvalues    EBANDS =      -256.75375405
  atomic energy  EATOM  =      5580.84654338
  ---------------------------------------------------
  free energy    TOTEN  =         3.72468392 eV

  energy without entropy =        3.72468392  energy(sigma->0) =        3.72468392


--------------------------------------------------------------------------------------------------------




--------------------------------------- Iteration      1(  22)  ---------------------------------------


    POTLOK:  cpu time      1.4782: real time      1.4782
    SETDIJ:  cpu time      0.2210: real time      0.2211
    TRIAL :  cpu time      0.2509: real time      0.2509
    CORREC:  cpu time      2.3803: real time      2.3804
    EDDIAG:  cpu time      0.1138: real time      0.1139
    CHARGE:  cpu time      0.6069: real time      0.6069
    --------------------------------------------
      LOOP:  cpu time      5.0578: real time      5.0585

 eigenvalue-minimisations  :     0
 total energy-change (2. order) :-0.5040192E-06  (-0.1717811E-06)
 number of electron      44.0000013 magnetization 
 augmentation part       28.3931889 magnetization 

 Free energy of the ion-electron system (eV)
  ---------------------------------------------------
  alpha Z        PSCENC =         1.18414354
  Ewald energy   TEWEN  =      2311.80305605
  -Hartree energ DENC   =     -7383.37858329
  -exchange      EXHF   =         0.00000000
  -V(xc)+E(xc)   XCENC  =       176.05183225
  PAW double counting   =      5097.78681744    -5523.76239766
  entropy T*S    EENTRO =        -0.00000000
  eigenvalues    EBANDS =      -256.80672830
  atomic energy  EATOM  =      5580.84654338
  ---------------------------------------------------
  free energy    TOTEN  =         3.72468341 eV

  energy without entropy =        3.72468341  energy(sigma->0) =        3.72468341


--------------------------------------------------------------------------------------------------------


  average scaling for gradient   1.7185


 average (electrostatic) potential at core
  the test charge radii are     0.9430
  (the norm of the test charge is              1.0000)
       1 -74.2975       2 -73.8348       3 -73.8347       4 -74.3173



 E-fermi :  -4.1887     XC(G=0):  -0.3510     alpha+bet : -0.0642

 Fermi energy:        -4.1887372352

 k-point     1 :       0.0000    0.0000    0.0000
  band No.  band energies     occupation 
      1      -8.1538      2.00000
      2      -7.1253      2.00000
      3      -6.7403      2.00000
      4      -6.6345      2.00000
      5      -6.4678      2.00000
      6      -6.3215      2.00000
      7      -6.2470      2.00000
      8      -6.1541      2.00000
      9      -5.8389      2.00000
     10      -5.6889      2.00000
     11      -5.6008      2.00000
     12      -5.5100      2.00000
     13      -5.4961      2.00000
     14      -5.4083      2.00000
     15      -5.3409      2.00000
     16      -5.3161      2.00000
     17      -5.2605      2.00000
     18      -5.2245      2.00000
     19      -5.2179      2.00000
     20      -5.1297      2.00000
     21      -5.0860      2.00000
     22      -4.4368      2.00000
     23      -3.7853      0.00000
     24      -3.0083      0.00000
     25      -1.7372      0.00000
     26      -1.1350      0.00000
     27      -1.0214      0.00000
     28      -0.8881      0.00000
     29      -0.2578      0.00000
     30      -0.1639      0.00000
     31      -0.1422      0.00000
     32      -0.0093      0.00000
     33       0.0051      0.00000
     34       0.0576      0.00000
     35       0.1843      0.00000
     36       0.2062      0.00000
     37       0.3333      0.00000
     38       0.3444      0.00000
     39       0.4536      0.00000
     40       0.4776      0.00000
     41       0.5033      0.00000
     42       0.5075      0.00000
     43       0.5178      0.00000
     44       0.5213      0.00000
     45       0.5474      0.00000
     46       0.5498      0.00000
     47       0.5502      0.00000
     48       0.6318      0.00000
     49       0.7321      0.00000
     50       0.7732      0.00000
     51       0.8077      0.00000
     52       0.8239      0.00000
     53       0.8320      0.00000
     54       0.8718      0.00000
     55       0.8839      0.00000
     56       0.8864      0.00000
     57       0.9371      0.00000
     58       0.9569      0.00000
     59       0.9945      0.00000
     60       1.0316      0.00000
     61       1.0352      0.00000
     62       1.1222      0.00000
     63       1.1807      0.00000
     64       1.2462      0.00000
     65       1.2518      0.00000
     66       1.2893      0.00000
     67       1.3574      0.00000
     68       1.3678      0.00000
     69       1.3744      0.00000
     70       1.3845      0.00000
     71       1.4116      0.00000
     72       1.4191      0.00000
     73       1.4284      0.00000
     74       1.4455      0.00000
     75       1.4604      0.00000
     76       1.4848      0.00000
     77       1.4864      0.00000
     78       1.4946      0.00000
     79       1.5120      0.00000
     80       1.5121      0.00000
     81       1.5528      0.00000
     82       1.5534      0.00000
     83       1.5598      0.00000
     84       1.5730      0.00000
     85       1.5970      0.00000
     86       1.5970      0.00000
     87       1.6170      0.00000
     88       1.6389      0.00000
     89       1.7132      0.00000
     90       1.7581      0.00000
     91       1.7598      0.00000
     92       1.7834      0.00000
     93       1.8069      0.00000
     94       1.8109      0.00000
     95       1.8114      0.00000
     96       1.8285      0.00000


--------------------------------------------------------------------------------------------------------


 soft charge-density along one line, spin component           1
         0         1         2         3         4         5         6         7         8         9
 total charge-density along one line

 pseudopotential strength for first ion, spin component:           1
-10.695  -0.000   0.000  -0.031   0.000   1.122   0.000  -0.000
 -0.000 -10.747  -0.022  -0.000   0.036   0.000   1.157   0.016
  0.000  -0.022 -10.736  -0.000  -0.017  -0.000   0.016   1.150
 -0.031  -0.000  -0.000 -10.702  -0.000   0.023   0.000   0.000
  0.000   0.036  -0.017  -0.000 -10.695  -0.000  -0.027   0.011
  1.122   0.000  -0.000   0.023  -0.000   6.225  -0.000   0.000
  0.000   1.157   0.016   0.000  -0.027  -0.000   6.201  -0.010
 -0.000   0.016   1.150   0.000   0.011   0.000  -0.010   6.203
  0.023   0.000   0.000   1.128   0.000  -0.014  -0.000  -0.000
 -0.000  -0.027   0.011   0.000   1.122   0.000   0.016  -0.007
  0.000   0.008   0.001   0.000  -0.000   0.000   0.003  -0.002
  0.000   0.015   0.002   0.000  -0.000   0.000   0.007  -0.004
 -0.000  -0.011   0.019   0.000   0.032   0.000   0.008  -0.012
  0.000  -0.032  -0.013  -0.000  -0.001   0.000   0.020   0.008
 -0.032   0.000   0.000  -0.013  -0.000   0.021   0.000  -0.000
 -0.000  -0.012   0.021  -0.000   0.036  -0.000   0.008  -0.011
 -0.000  -0.036  -0.014  -0.000  -0.001   0.000   0.021   0.007
 -0.036  -0.000   0.000  -0.013  -0.000   0.021   0.000   0.000
 total augmentation occupancy for first ion, spin component:           1
  1.980   0.000   0.000  -0.000   0.000  -0.003   0.000   0.000   0.004   0.000   0.000   0.000   0.000   0.000   0.053   0.000
  0.000   1.969  -0.010   0.000   0.009   0.000  -0.002   0.008   0.000  -0.010  -0.064  -0.001   0.048   0.083   0.000  -0.017
  0.000  -0.010   1.966   0.000   0.007   0.000   0.008  -0.006   0.000  -0.004   0.020   0.012  -0.041   0.047   0.000   0.023
 -0.000   0.000   0.000   1.973   0.000   0.004   0.000   0.000  -0.015   0.000   0.000   0.000   0.000   0.000   0.014   0.000
  0.000   0.009   0.007   0.000   1.966   0.000  -0.011  -0.004   0.000  -0.006   0.015  -0.012  -0.047  -0.015   0.000   0.038
 -0.003   0.000   0.000   0.004   0.000   0.012   0.000   0.000   0.003   0.000   0.000   0.000   0.000   0.000   0.037   0.000
  0.000  -0.002   0.008   0.000  -0.011   0.000   0.008   0.001   0.000  -0.003   0.061  -0.005   0.016   0.018   0.000  -0.002
  0.000   0.008  -0.006   0.000  -0.004   0.000   0.001   0.005   0.000  -0.000  -0.024   0.002  -0.007   0.007   0.000   0.000
  0.004   0.000   0.000  -0.015   0.000   0.003   0.000   0.000   0.004   0.000   0.000   0.000   0.000   0.000   0.010   0.000
  0.000  -0.010  -0.004   0.000  -0.006   0.000  -0.003  -0.000   0.000   0.006  -0.005   0.002  -0.012  -0.005   0.000   0.001
  0.000  -0.064   0.020   0.000   0.015   0.000   0.061  -0.024   0.000  -0.005   1.436  -0.100   0.265   0.138   0.000  -0.028
  0.000  -0.001   0.012   0.000  -0.012   0.000  -0.005   0.002   0.000   0.002  -0.100   0.008  -0.022  -0.012   0.000   0.002
  0.000   0.048  -0.041   0.000  -0.047   0.000   0.016  -0.007   0.000  -0.012   0.265  -0.022   0.077   0.030   0.000  -0.008
  0.000   0.083   0.047   0.000  -0.015   0.000   0.018   0.007   0.000  -0.005   0.138  -0.012   0.030   0.056   0.000  -0.004
  0.053   0.000   0.000   0.014   0.000   0.037   0.000   0.000   0.010   0.000   0.000   0.000   0.000   0.000   0.148   0.000
  0.000  -0.017   0.023   0.000   0.038   0.000  -0.002   0.000   0.000   0.001  -0.028   0.002  -0.008  -0.004   0.000   0.002
  0.000  -0.039  -0.021   0.000  -0.000   0.000  -0.001  -0.000   0.000   0.000  -0.013   0.001  -0.003  -0.005   0.000   0.000
 -0.043   0.000   0.000  -0.018   0.000  -0.001   0.000   0.000  -0.000   0.000   0.000   0.000   0.000   0.000  -0.006   0.000


------------------------ aborting loop because EDIFF is reached ----------------------------------------


    FORLOC:  cpu time      0.0029: real time      0.0029
    FORNL :  cpu time      0.1306: real time      0.1306
    STRESS:  cpu time      0.3986: real time      0.3987
    FORCOR:  cpu time      1.5372: real time      1.5373
    OFIELD:  cpu time      0.0003: real time      0.0003

  FORCE on cell =-STRESS in cart. coord.  units (eV):
  Direction    XX          YY          ZZ          XY          YZ          ZX
  --------------------------------------------------------------------------------------
  Alpha Z     1.18414     1.18414     1.18414
  Ewald    1723.66131   329.45754   258.68382     0.00411   492.34150     0.00498
  Hartree  3283.45364  2089.26940  2010.66232     0.00419   370.54355     0.00528
  E(xc)    -256.35612  -256.68352  -256.67454     0.00001     0.18564     0.00002
  Local   -5385.19471 -2796.46263 -2646.43318    -0.00904  -855.61737    -0.01126
  n-local  -101.21484  -103.85771  -103.65418     0.00190    -0.54585     0.00192
  augment   371.94226   373.60927   373.32479     0.00019    -3.44117     0.00028
  Kinetic   362.37378   362.73336   362.54682     0.00109    -3.25974     0.00112
  Fock        0.00000     0.00000     0.00000     0.00000     0.00000     0.00000
  -------------------------------------------------------------------------------------
  Total      -0.15054    -0.75015    -0.36001     0.00000     0.20656     0.00000
  in kB      -0.02441    -0.12163    -0.05837     0.00000     0.03349     0.00000
  external pressure =       -0.07 kB  Pullay stress =        0.00 kB


 VOLUME and BASIS-vectors are now :
 -----------------------------------------------------------------------------
  energy-cutoff  :      520.00
  volume of cell :     9881.61
      direct lattice vectors                 reciprocal lattice vectors
    21.138852197  0.000000000  0.000000000     0.047306258  0.000000000  0.000000000
     0.000000000 21.138852197  0.000000000     0.000000000  0.047306258  0.000000000
     0.000000000  0.000000000 22.113885220     0.000000000  0.000000000  0.045220457

  length of vectors
    21.138852197 21.138852197 22.113885220     0.047306258  0.047306258  0.045220457


 FORCES acting on ions:
    Electron-Ion                     Ewald-Force                    Non-Local-Force
 -----------------------------------------------------------------------------------------------
   0.189E-01 0.608E+03 0.301E+03   -.596E-02 -.597E+03 -.296E+03   0.000E+00 -.108E+02 -.548E+01
   -.604E+03 -.174E+03 0.162E+03   0.596E+03 0.169E+03 -.158E+03   0.779E+01 0.451E+01 -.435E+01
   0.604E+03 -.174E+03 0.162E+03   -.596E+03 0.169E+03 -.158E+03   -.779E+01 0.451E+01 -.435E+01
   -.163E-01 -.263E+03 -.622E+03   0.269E-02 0.258E+03 0.611E+03   0.000E+00 0.469E+01 0.109E+02
 -----------------------------------------------------------------------------------------------
   0.156E-03 -.290E+01 0.333E+01   0.000E+00 -.568E-13 0.568E-13   0.000E+00 0.290E+01 -.333E+01


 POSITION                                       TOTAL-FORCE (eV/Angst)
 -----------------------------------------------------------------------------------
      8.45555      8.82382     13.06192         0.000000      0.508938     -0.154951
     10.35658     10.31213     13.27893        -0.033002     -0.364678      0.212420
      6.55462     10.31214     13.27893         0.033002     -0.364678      0.212420
      8.45565     10.40011     14.68777         0.000000      0.220418     -0.269889
 -----------------------------------------------------------------------------------
    total drift:                                0.000156     -0.003912      0.001991


--------------------------------------------------------------------------------------------------------



  FREE ENERGIE OF THE ION-ELECTRON SYSTEM (eV)
  ---------------------------------------------------
  free  energy   TOTEN  =         3.72468341 eV

  energy  without entropy=        3.72468341  energy(sigma->0) =        3.72468341



--------------------------------------------------------------------------------------------------------


    POTLOK:  cpu time      1.7116: real time      1.7116


--------------------------------------------------------------------------------------------------------


     LOOP+:  cpu time     97.1604: real time     97.2387
    4ORBIT:  cpu time      0.0000: real time      0.0000

 total amount of memory used by VASP MPI-rank0   118527. kBytes
=======================================================================

   base      :      30000. kBytes
   nonlr-proj:       1552. kBytes
   fftplans  :      35474. kBytes
   grid      :      48291. kBytes
   one-center:         15. kBytes
   wavefun   :       3195. kBytes

  
  
 General timing and accounting informations for this job:
 ========================================================
  
                  Total CPU time used (sec):      119.575
                            User time (sec):      117.516
                          System time (sec):        2.059
                         Elapsed time (sec):      122.291
  
                   Maximum memory used (kb):      375784.
                   Average memory used (kb):          N/A
  
                          Minor page faults:        45617
                          Major page faults:            0
                 Voluntary context switches:        10005
