 vasp.6.3.0 20Jan22 (build Apr  1 2022 16:44:48) complex                         
 executed on        HPECrayEX_GCC date 2023.01.06  18:25:43
 running  768 mpi-ranks, with    1 threads/rank
 distrk:  each k-point on  384 cores,    2 groups
 distr:  one band on NCORE=   4 cores,   96 groups


--------------------------------------------------------------------------------------------------------


 INCAR:
   SYSTEM = MgO-rocksalt
   ISMEAR = 0
   SIGMA = 0.05
   EDIFF = 1E-6
   ALGO = ALL
   ISTART = 0
   IBRION = -1
   NSW = 0
   ISYM = 2
   LHFCALC = .TRUE.
   GGA = PE
   IVDW = 212
   LVDWEXPANSION = .TRUE.
   VDW_SR = 0.85
   ENCUT = 520
   PREC = Accurate
   LASPH = .TRUE.
   LREAL = Auto
   ISPIN = 1
   NELM = 200
   NELMIN = 8
   NCORE = 4
   KPAR = 2
   LWAVE = .FALSE.
   LCHARG = .FALSE.

 POTCAR:    PAW_PBE Cu 22Jun2005                  
 -----------------------------------------------------------------------------
|                                                                             |
|           W    W    AA    RRRRR   N    N  II  N    N   GGGG   !!!           |
|           W    W   A  A   R    R  NN   N  II  NN   N  G    G  !!!           |
|           W    W  A    A  R    R  N N  N  II  N N  N  G       !!!           |
|           W WW W  AAAAAA  RRRRR   N  N N  II  N  N N  G  GGG   !            |
|           WW  WW  A    A  R   R   N   NN  II  N   NN  G    G                |
|           W    W  A    A  R    R  N    N  II  N    N   GGGG   !!!           |
|                                                                             |
|     You have selected ISYM=2 for a HF type calculation. This will           |
|     symmetrize the charge density but not the exchange potential. I         |
|     suggest to use ISYM=3 instead. This uses symmetry to obtain the         |
|     orbitals at all k-points in the Brillouin zone, but does not apply      |
|     symmetry to the Hartree potential directly. The resultant charge        |
|     might have lower symmetry than the crystal but, at least, Hartree       |
|     and exchange are fully compatible.                                      |
|                                                                             |
 -----------------------------------------------------------------------------

 POTCAR:    PAW_PBE Cu 22Jun2005                  
   SHA256 =  0e71e558f37a4e8407882b4609ceaae59938afaad9ced71dfe8490308a0ab630 Cu/POTCAR             
   COPYR  = (c) Copyright 22Jun2005 Georg Kresse                                                    
   COPYR  = This file is part of the software VASP. Any use, copying, and all other rights are regul
   COPYR  = If you do not have a valid VASP license, you may not use, copy or distribute this file. 
   VRHFIN =Cu: d10 p1                                                                               
   LEXCH  = PE                                                                                      
   EATOM  =  1390.9808 eV,  102.2342 Ry                                                             
                                                                                                    
   TITEL  = PAW_PBE Cu 22Jun2005                                                                    
   LULTRA =        F    use ultrasoft PP ?                                                          
   IUNSCR =        1    unscreen: 0-lin 1-nonlin 2-no                                               
   RPACOR =    2.000    partial core radius                                                         
   POMASS =   63.546; ZVAL   =   11.000    mass and valenz                                          
   RCORE  =    2.300    outmost cutoff radius                                                       
   RWIGS  =    2.200; RWIGS  =    1.164    wigner-seitz radius (au A)                               
   ENMAX  =  295.446; ENMIN  =  221.585 eV                                                          
   ICORE  =        3    local potential                                                             
   LCOR   =        T    correct aug charges                                                         
   LPAW   =        T    paw PP                                                                      
   EAUG   =  586.980                                                                                
   DEXC   =    0.000                                                                                
   RMAX   =    2.344    core radius for proj-oper                                                   
   RAUG   =    1.300    factor for augmentation sphere                                              
   RDEP   =    2.302    radius for radial grids                                                     
   RDEPT  =    1.771    core radius for aug-charge                                                  
                                                                                                    
   Atomic configuration                                                                             
    9 entries                                                                                       
     n  l   j            E        occ.                                                              
     1  0  0.50     -8850.2468   2.0000                                                             
     2  0  0.50     -1062.3498   2.0000                                                             
     2  1  1.50      -916.8226   6.0000                                                             
     3  0  0.50      -114.6929   2.0000                                                             
     3  1  1.50       -72.1325   6.0000                                                             
     3  2  2.50        -5.0394  10.0000                                                             
     4  0  0.50        -4.6097   1.0000                                                             
     4  1  0.50        -4.0817   0.0000                                                             
     4  3  2.50        -1.3606   0.0000                                                             
   Description                                                                                      
     l       E           TYP  RCUT    TYP  RCUT                                                     
     2     -5.0393973     23  2.200                                                                 
     2     10.8846608     23  2.200                                                                 
     0     -4.6097109     23  2.200                                                                 
     0      8.2520465     23  2.200                                                                 
     1     -2.7211652     23  2.200                                                                 
     1     21.7055443     23  2.200                                                                 
     3      2.7211652     23  2.300                                                                 
  local pseudopotential read in
  partial core-charges read in
  partial kinetic energy density read in
  atomic valenz-charges read in
  non local Contribution for L=           2  read in
    real space projection operators read in
  non local Contribution for L=           2  read in
    real space projection operators read in
  non local Contribution for L=           0  read in
    real space projection operators read in
  non local Contribution for L=           0  read in
    real space projection operators read in
  non local Contribution for L=           1  read in
    real space projection operators read in
  non local Contribution for L=           1  read in
    real space projection operators read in
    PAW grid and wavefunctions read in

   number of l-projection  operators is LMAX  =           6
   number of lm-projection operators is LMMAX =          18

 -----------------------------------------------------------------------------
|                                                                             |
|               ----> ADVICE to this user running VASP <----                  |
|                                                                             |
|     You have a (more or less) 'small supercell' and for smaller cells       |
|     it is recommended to use the reciprocal-space projection scheme!        |
|     The real-space optimization is not efficient for small cells and it     |
|     is also less accurate ...                                               |
|     Therefore, set LREAL=.FALSE. in the INCAR file.                         |
|                                                                             |
 -----------------------------------------------------------------------------

 Optimization of the real space projectors (new method)

 maximal supplied QI-value         = 16.25
 optimisation between [QCUT,QGAM] = [ 11.54, 23.24] = [ 37.28,151.24] Ry 
 Optimized for a Real-space Cutoff    1.53 Angstroem

   l    n(q)    QCUT    max X(q) W(low)/X(q) W(high)/X(q)  e(spline) 
   2     10    11.539     4.610    0.96E-04    0.13E-03    0.19E-06
   2     10    11.539     8.522    0.16E-03    0.21E-03    0.28E-06
   0     11    11.539    51.609    0.45E-04    0.31E-04    0.11E-06
   0     11    11.539    27.747    0.39E-04    0.29E-04    0.10E-06
   1     10    11.539    20.408    0.70E-05    0.38E-04    0.18E-06
   1     10    11.539    13.425    0.66E-05    0.34E-04    0.17E-06
  PAW_PBE Cu 22Jun2005                  :
 energy of atom  1       EATOM=-1390.9808
 kinetic energy error for atom=    0.0037 (will be added to EATOM!!)


 POSCAR: cu4
  positions in direct lattice
  velocities in cartesian coordinates
 exchange correlation table for  LEXCH =        8
   RHO(1)=    0.500       N(1)  =     2000
   RHO(2)=  100.500       N(2)  =     4000



--------------------------------------------------------------------------------------------------------


 ion  position               nearest neighbor table
   1  0.025  0.017  0.047-   2 2.25   3 2.36   4 2.36
   2  0.974  0.983  0.953-   1 2.25   4 2.36   3 2.36
   3  0.940  0.936  0.055-   1 2.36   2 2.36
   4  0.060  0.064  0.945-   2 2.36   1 2.36

  LATTYP: Found a simple cubic cell.
 ALAT       =    20.0000000000
  
  Lattice vectors:
  
 A1 = (  20.0000000000,   0.0000000000,   0.0000000000)
 A2 = (   0.0000000000,  20.0000000000,   0.0000000000)
 A3 = (   0.0000000000,   0.0000000000,  20.0000000000)


Analysis of symmetry for initial positions (statically):
=====================================================================
 Subroutine PRICEL returns:
 Original cell was already a primitive cell.
 

 Routine SETGRP: Setting up the symmetry group for a 
 simple cubic supercell.


 Subroutine GETGRP returns: Found  1 space group operations
 (whereof  1 operations were pure point group operations)
 out of a pool of 48 trial point group operations.


The static configuration has the point symmetry C_1 .


Analysis of symmetry for dynamics (positions and initial velocities):
=====================================================================
 Subroutine PRICEL returns:
 Original cell was already a primitive cell.
 

 Routine SETGRP: Setting up the symmetry group for a 
 simple cubic supercell.


 Subroutine GETGRP returns: Found  1 space group operations
 (whereof  1 operations were pure point group operations)
 out of a pool of 48 trial point group operations.


The dynamic configuration has the point symmetry C_1 .


 Subroutine INISYM returns: Found  1 space group operations
 (whereof  1 operations are pure point group operations),
 and found     1 'primitive' translations


----------------------------------------------------------------------------------------

                                     Primitive cell                                     

  volume of cell :    8000.0000

  direct lattice vectors                    reciprocal lattice vectors
    20.000000000  0.000000000  0.000000000     0.050000000  0.000000000  0.000000000
     0.000000000 20.000000000  0.000000000     0.000000000  0.050000000  0.000000000
     0.000000000  0.000000000 20.000000000     0.000000000  0.000000000  0.050000000

  length of vectors
    20.000000000 20.000000000 20.000000000     0.050000000  0.050000000  0.050000000

  position of ions in fractional coordinates (direct lattice)
     0.025453805  0.017012195  0.047271049
     0.974481692  0.983054414  0.952737052
     0.940088349  0.935804674  0.055369924
     0.059976155  0.064128717  0.944621975

  ion indices of the primitive-cell ions
   primitive index   ion index
                 1           1
                 2           2
                 3           3
                 4           4

----------------------------------------------------------------------------------------



 KPOINTS: KPOINTS created by Atomic Simulation Env

Automatic generation of k-mesh.
 Grid dimensions read from file:
 generate k-points for:    1    1    1

 Generating k-lattice:

  Cartesian coordinates                     Fractional coordinates (reciprocal lattice)
     0.050000000  0.000000000  0.000000000     1.000000000  0.000000000  0.000000000
     0.000000000  0.050000000  0.000000000     0.000000000  1.000000000  0.000000000
     0.000000000  0.000000000  0.050000000     0.000000000  0.000000000  1.000000000

  Length of vectors
     0.050000000  0.050000000  0.050000000

  Shift w.r.t. Gamma in fractional coordinates (k-lattice)
     0.000000000  0.000000000  0.000000000

 
 Subroutine IBZKPT returns following result:
 ===========================================
 
 Found      1 irreducible k-points:
 
 Following reciprocal coordinates:
            Coordinates               Weight
  0.000000  0.000000  0.000000      1.000000
 
 Following cartesian coordinates:
            Coordinates               Weight
  0.000000  0.000000  0.000000      1.000000
 
 
 Subroutine IBZKPT_HF returns following result:
 ==============================================
 
 Found      1 k-points in 1st BZ
 the following      1 k-points will be used (e.g. in the exchange kernel)
 Following reciprocal coordinates:   # in IRBZ
  0.000000  0.000000  0.000000    1.00000000   1 t-inv F


--------------------------------------------------------------------------------------------------------




 Dimension of arrays:
   k-points           NKPTS =      1   k-points in BZ     NKDIM =      1   number of bands    NBANDS=     96
   number of dos      NEDOS =    301   number of ions     NIONS =      4
   non local maximal  LDIM  =      6   non local SUM 2l+1 LMDIM =     18
   total plane-waves  NPLWV = ******
   max r-space proj   IRMAX =   6426   max aug-charges    IRDMAX=  12418
   dimension x,y,z NGX =   150 NGY =  150 NGZ =  150
   dimension x,y,z NGXF=   300 NGYF=  300 NGZF=  300
   support grid    NGXF=   300 NGYF=  300 NGZF=  300
   ions per type =               4
   NGX,Y,Z   is equivalent  to a cutoff of  12.47, 12.47, 12.47 a.u.
   NGXF,Y,Z  is equivalent  to a cutoff of  24.94, 24.94, 24.94 a.u.

 SYSTEM =  MgO-rocksalt                            
 POSCAR =  cu4                                     

 Startparameter for this run:
   NWRITE =      2    write-flag & timer
   PREC   = accura    normal or accurate (medium, high low for compatibility)
   ISTART =      0    job   : 0-new  1-cont  2-samecut
   ICHARG =      2    charge: 1-file 2-atom 10-const
   ISPIN  =      1    spin polarized calculation?
   LNONCOLLINEAR =      F non collinear calculations
   LSORBIT =      F    spin-orbit coupling
   INIWAV =      1    electr: 0-lowe 1-rand  2-diag
   LASPH  =      T    aspherical Exc in radial PAW
 Electronic Relaxation 1
   ENCUT  =  520.0 eV  38.22 Ry    6.18 a.u.  37.19 37.19 37.19*2*pi/ulx,y,z
   ENINI  =  520.0     initial cutoff
   ENAUG  =  587.0 eV  augmentation charge cutoff
   NELM   =    200;   NELMIN=  8; NELMDL= -5     # of ELM steps 
   EDIFF  = 0.1E-05   stopping-criterion for ELM
   LREAL  =      T    real-space projection
   NLSPLINE    = F    spline interpolate recip. space projectors
   LCOMPAT=      F    compatible to vasp.4.4
   GGA_COMPAT  = T    GGA compatible to vasp.4.4-vasp.4.6
   LMAXPAW     = -100 max onsite density
   LMAXMIX     =    2 max onsite mixed and CHGCAR
   VOSKOWN=      0    Vosko Wilk Nusair interpolation
   ROPT   =   -0.00025
 Ionic relaxation
   EDIFFG = 0.1E-04   stopping-criterion for IOM
   NSW    =      0    number of steps for IOM
   NBLOCK =      1;   KBLOCK =      1    inner block; outer block 
   IBRION =     -1    ionic relax: 0-MD 1-quasi-New 2-CG
   NFREE  =      0    steps in history (QN), initial steepest desc. (CG)
   ISIF   =      0    stress and relaxation
   IWAVPR =     10    prediction:  0-non 1-charg 2-wave 3-comb
   ISYM   =      2    0-nonsym 1-usesym 2-fastsym
   LCORR  =      T    Harris-Foulkes like correction to forces

   POTIM  = 0.5000    time-step for ionic-motion
   TEIN   =    0.0    initial temperature
   TEBEG  =    0.0;   TEEND  =   0.0 temperature during run
   SMASS  =  -3.00    Nose mass-parameter (am)
   estimated Nose-frequenzy (Omega)   =  0.10E-29 period in steps = 0.13E+47 mass=  -0.914E-26a.u.
   SCALEE = 1.0000    scale energy and forces
   NPACO  =    256;   APACO  = 10.0  distance and # of slots for P.C.
   PSTRESS=    0.0 pullay stress

  Mass of Ions in am
   POMASS =  63.55
  Ionic Valenz
   ZVAL   =  11.00
  Atomic Wigner-Seitz radii
   RWIGS  =  -1.00
  virtual crystal weights 
   VCA    =   1.00
   NELECT =      44.0000    total number of electrons
   NUPDOWN=      -1.0000    fix difference up-down

 DOS related values:
   EMIN   =  10.00;   EMAX   =-10.00  energy-range for DOS
   EFERMI =   0.00
   ISMEAR =     0;   SIGMA  =   0.05  broadening in eV -4-tet -1-fermi 0-gaus

 Electronic relaxation 2 (details)
   IALGO  =     58    algorithm
   LDIAG  =      T    sub-space diagonalisation (order eigenvalues)
   LSUBROT=      F    optimize rotation matrix (better conditioning)
   TURBO    =      0    0=normal 1=particle mesh
   IRESTART =      0    0=no restart 2=restart with 2 vectors
   NREBOOT  =      0    no. of reboots
   NMIN     =      0    reboot dimension
   EREF     =   0.00    reference energy to select bands
   IMIX   =      4    mixing-type and parameters
     AMIX     =   0.40;   BMIX     =  1.00
     AMIX_MAG =   1.60;   BMIX_MAG =  1.00
     AMIN     =   0.10
     WC   =   100.;   INIMIX=   1;  MIXPRE=   1;  MAXMIX= -45

 Intra band minimization:
   WEIMIN = 0.0000     energy-eigenvalue tresh-hold
   EBREAK =  0.26E-08  absolut break condition
   DEPER  =   0.30     relativ break condition  

   TIME   =   0.40     timestep for ELM

  volume/ion in A,a.u.               =    2000.00     13496.67
  Fermi-wavevector in a.u.,A,eV,Ry     =   0.288976  0.546086  1.136187  0.083507
  Thomas-Fermi vector in A             =   1.146265

 Write flags
   LWAVE        =      F    write WAVECAR
   LDOWNSAMPLE  =      F    k-point downsampling of WAVECAR
   LCHARG       =      F    write CHGCAR
   LVTOT        =      F    write LOCPOT, total local potential
   LVHAR        =      F    write LOCPOT, Hartree potential only
   LELF         =      F    write electronic localiz. function (ELF)
   LORBIT       =      0    0 simple, 1 ext, 2 COOP (PROOUT), +10 PAW based schemes


 Dipole corrections
   LMONO  =      F    monopole corrections only (constant potential shift)
   LDIPOL =      F    correct potential (dipole corrections)
   IDIPOL =      0    1-x, 2-y, 3-z, 4-all directions 
   EPSILON=  1.0000000 bulk dielectric constant

 Exchange correlation treatment:
   GGA     =    PE    GGA type
   LEXCH   =     8    internal setting for exchange type
   LIBXC   =     F    Libxc                    
   VOSKOWN =     0    Vosko Wilk Nusair interpolation
   EXXOEP  =     0    0=HF, 1=EXX-LHF (local Hartree Fock) 2=EXX OEP
   LHFCALC =     T    Hartree Fock is set to
   LSYMGRAD=     F    symmetrize gradient (conserves proper symmetry)
   PRECFOCK=normal    Normal, Fast or Accurate (Low or Medium for compatibility)
   LRHFCALC=     F    long range Hartree Fock
   LRSCOR  =     F    long range correlation only (use DFT for short range part)
   LTHOMAS =     F    Thomas Fermi screening in HF
   LMODELHF=     F    short range full HF, long range fraction AEXX
   LFOCKACE=     T    use Adeptively-Compressed-Exchange operator
   ENCUT4O =  -1.0   cutoff for four orbital integrals eV
   LMAXFOCK=     4    L truncation for augmentation on plane wave grid
   LMAXFOCKAE=  -1    L truncation for all-electron charge restoration on plane wave grid
   NMAXFOCKAE=   1    number of basis functions for all-electron charge restoration
   LFOCKAEDFT=     F  apply the AE augmentation even for DFT
   NKREDX  =     1    reduce k-point grid by
   NKREDY  =     1    reduce k-point grid by
   NKREDZ  =     1    reduce k-point grid by
   SHIFTRED=     F    shift reduced grid of Gamma
   HFKIDENT=     F    idential grid for each k-point
   ODDONLY =     F    use only odd q-grid points
   EVENONLY=     F    use only even q-grid points
   HFALPHA =   -1.0000 decay constant for conv. correction
   MCALPHA =    0.0000 extent of test-charge in conv. correction in multipole expansion
   AEXX    =    0.2500 exact exchange contribution
   HFSCREEN=    0.0000 screening length (either q_TF or 0.3 A-1)
   HFSCREENC=   0.0000 screening length for correlation (either q_TF or 0.3 A-1)
   HFRCUT  =    0.0000 spherical cutoff for potential kernel
   ALDAX   =    0.7500 LDA exchange part
   AGGAX   =    0.7500 GGA exchange part
   ALDAC   =    1.0000 LDA correlation
   AGGAC   =    1.0000 GGA correlation
   ENCUTFOCK=  -1.0 apply spherical cutoff to Coloumb kernel
   NBANDSGWLOW=     1    first orbital included in HF term
   NBLOCK_FOCK=    64    blocking factor in FOCK_ACC

 Linear response parameters
   LEPSILON=     F    determine dielectric tensor
   LRPA    =     F    only Hartree local field effects (RPA)
   LNABLA  =     F    use nabla operator in PAW spheres
   LVEL    =     F    velocity operator in full k-point grid
   CSHIFT  =0.1000    complex shift for real part using Kramers Kronig
   OMEGAMAX=  -1.0    maximum frequency
   DEG_THRESHOLD= 0.2000000E-02 threshold for treating states as degnerate
   RTIME   =   -0.100 relaxation time in fs
  (WPLASMAI=    0.000 imaginary part of plasma frequency in eV, 0.658/RTIME)
   DFIELD  = 0.0000000 0.0000000 0.0000000 field for delta impulse in time

  Optional k-point grid parameters
   LKPOINTS_OPT  =     F    use optional k-point grid
   KPOINTS_OPT_MODE=     1    mode for optional k-point grid

 Orbital magnetization related:
   ORBITALMAG=     F  switch on orbital magnetization
   LCHIMAG   =     F  perturbation theory with respect to B field
   DQ        =  0.001000  dq finite difference perturbation B field
   LLRAUG    =     F  two centre corrections for induced B field



--------------------------------------------------------------------------------------------------------


 Static calculation
 charge density and potential will be updated during run
 non-spin polarized calculation
 Conjugate gradient for all bands (Freysoldt, et al. PRB 79, 241103 (2009))
 preconditioned conjugated gradient                                        
 perform sub-space diagonalisation
    before iterative eigenvector-optimisation
 modified Broyden-mixing scheme, WC =      100.0
 initial mixing is a Kerker type mixing with AMIX =  0.4000 and BMIX =      1.0000
 Hartree-type preconditioning will be used
 using additional bands           74
 real space projection scheme for non local part
 use partial core corrections
 no Harris-corrections to forces 
 use gradient corrections 
 use of overlap-Matrix (Vanderbilt PP)
 Gauss-broadening in eV      SIGMA  =   0.05


--------------------------------------------------------------------------------------------------------


  energy-cutoff  :      520.00
  volume of cell :     8000.00
      direct lattice vectors                 reciprocal lattice vectors
    20.000000000  0.000000000  0.000000000     0.050000000  0.000000000  0.000000000
     0.000000000 20.000000000  0.000000000     0.000000000  0.050000000  0.000000000
     0.000000000  0.000000000 20.000000000     0.000000000  0.000000000  0.050000000

  length of vectors
    20.000000000 20.000000000 20.000000000     0.050000000  0.050000000  0.050000000



 k-points in units of 2pi/SCALE and weight: KPOINTS created by Atomic Simulation Env
   0.00000000  0.00000000  0.00000000       1.000

 k-points in reciprocal lattice and weights: KPOINTS created by Atomic Simulation Env
   0.00000000  0.00000000  0.00000000       1.000

 position of ions in fractional coordinates (direct lattice) 
   0.02545380  0.01701219  0.04727105
   0.97448169  0.98305441  0.95273705
   0.94008835  0.93580467  0.05536992
   0.05997615  0.06412872  0.94462197

 position of ions in cartesian coordinates  (Angst):
   0.50907610  0.34024389  0.94542099
  19.48963384 19.66108829 19.05474103
  18.80176697 18.71609349  1.10739849
   1.19952309  1.28257433 18.89243949



--------------------------------------------------------------------------------------------------------


 k-point   1 :   0.0000 0.0000 0.0000  plane waves:  215503

 maximum and minimum number of plane-waves per node :     53900    53857

 maximum number of plane-waves:    215503
 maximum index in each direction: 
   IXMAX=   37   IYMAX=   37   IZMAX=   37
   IXMIN=  -37   IYMIN=  -37   IZMIN=  -37


 real space projection operators:
  total allocation   :       3484.55 KBytes
  max/ min on nodes  :        949.08        790.45


 parallel 3D FFT for wavefunctions:
    minimum data exchange during FFTs selected (reduces bandwidth)
 parallel 3D FFT for charge:
    minimum data exchange during FFTs selected (reduces bandwidth)


 FFT grid for exact exchange (Hartree Fock) 
  NGX =112; NGY =112; NGZ =112


 Radii for the augmentation spheres in the non-local exchange
 for species   1 augmentation radius   1.179 (default was   0.943)
       energy cutoff for augmentation   2080.0

 real space projection operators:
  total allocation   :        943.75 KBytes
  max/ min on nodes  :        237.70        232.42

 Maximum index for augmentation-charges in exchange          298
  SETUP_FOCK is finished

 total amount of memory used by VASP MPI-rank0   122259. kBytes
=======================================================================

   base      :      30000. kBytes
   nonlr-proj:       1967. kBytes
   fftplans  :      48991. kBytes
   grid      :      38630. kBytes
   one-center:         15. kBytes
   HF        :         64. kBytes
   wavefun   :       2592. kBytes

     INWAV:  cpu time      0.0001: real time      0.0002
 Broyden mixing: mesh for mixing (old mesh)
   NGX = 75   NGY = 75   NGZ = 75
  (NGX  =300   NGY  =300   NGZ  =300)
  gives a total of 421875 points

 initial charge density was supplied:
 charge density of overlapping atoms calculated
 number of electron      44.0000000 magnetization 
 keeping initial charge density in first step


--------------------------------------------------------------------------------------------------------


 Maximum index for non-local projection operator         1740
 Maximum index for augmentation-charges          443 (set IRDMAX)


--------------------------------------------------------------------------------------------------------


    FEWALD:  cpu time      0.0004: real time      0.0004


--------------------------------------- Iteration      1(   1)  ---------------------------------------


    POTLOK:  cpu time      0.1148: real time      0.1149
    SETDIJ:  cpu time      0.1858: real time      0.1858
    TRIAL :  cpu time      0.5452: real time      0.5455
    CORREC:  cpu time      0.0003: real time      0.0003
    --------------------------------------------
      LOOP:  cpu time      0.8472: real time      0.8477

 eigenvalue-minimisations  :   192
 total energy-change (2. order) :-0.1418468E+04  (-0.1020004E+04)
 number of electron      44.0000000 magnetization 
 augmentation part       44.0000000 magnetization 

 Free energy of the ion-electron system (eV)
  ---------------------------------------------------
  alpha Z        PSCENC =         1.46265607
  Ewald energy   TEWEN  =      2186.18394146
  -Hartree energ DENC   =     -7261.67922415
  -exchange      EXHF   =         0.00000000
  -V(xc)+E(xc)   XCENC  =       177.58930481
  PAW double counting   =      4912.82663951    -6821.96778073
  entropy T*S    EENTRO =        -0.00000000
  eigenvalues    EBANDS =      -165.51676312
  atomic energy  EATOM  =      5552.63330582
  ---------------------------------------------------
  free energy    TOTEN  =     -1418.46792033 eV

  energy without entropy =    -1418.46792033  energy(sigma->0) =    -1418.46792033
  exchange ACFDT corr.  =         0.00000000  see jH, gK, PRB 81, 115126


--------------------------------------------------------------------------------------------------------




--------------------------------------- Iteration      1(   2)  ---------------------------------------


    TRIAL :  cpu time      0.5439: real time      0.5441
    CORREC:  cpu time      0.0003: real time      0.0003
    --------------------------------------------
      LOOP:  cpu time      0.5483: real time      0.5519

 eigenvalue-minimisations  :   192
 total energy-change (2. order) :-0.2342169E+03  (-0.2342169E+03)
 number of electron      44.0000000 magnetization 
 augmentation part       44.0000000 magnetization 

 Free energy of the ion-electron system (eV)
  ---------------------------------------------------
  alpha Z        PSCENC =         1.46265607
  Ewald energy   TEWEN  =      2186.18394146
  -Hartree energ DENC   =     -7261.67922415
  -exchange      EXHF   =         0.00000000
  -V(xc)+E(xc)   XCENC  =       177.58930481
  PAW double counting   =      4912.82663951    -6821.96778073
  entropy T*S    EENTRO =        -0.00000000
  eigenvalues    EBANDS =      -399.73369875
  atomic energy  EATOM  =      5552.63330582
  ---------------------------------------------------
  free energy    TOTEN  =     -1652.68485596 eV

  energy without entropy =    -1652.68485596  energy(sigma->0) =    -1652.68485596
  exchange ACFDT corr.  =         0.00000000  see jH, gK, PRB 81, 115126


--------------------------------------------------------------------------------------------------------




--------------------------------------- Iteration      1(   3)  ---------------------------------------


    TRIAL :  cpu time      0.5388: real time      0.5390
    CORREC:  cpu time      0.0003: real time      0.0003
    --------------------------------------------
      LOOP:  cpu time      0.5455: real time      0.5461

 eigenvalue-minimisations  :   192
 total energy-change (2. order) :-0.7333316E+01  (-0.7333317E+01)
 number of electron      44.0000000 magnetization 
 augmentation part       44.0000000 magnetization 

 Free energy of the ion-electron system (eV)
  ---------------------------------------------------
  alpha Z        PSCENC =         1.46265607
  Ewald energy   TEWEN  =      2186.18394146
  -Hartree energ DENC   =     -7261.67922415
  -exchange      EXHF   =         0.00000000
  -V(xc)+E(xc)   XCENC  =       177.58930481
  PAW double counting   =      4912.82663951    -6821.96778073
  entropy T*S    EENTRO =        -0.00000000
  eigenvalues    EBANDS =      -407.06701442
  atomic energy  EATOM  =      5552.63330582
  ---------------------------------------------------
  free energy    TOTEN  =     -1660.01817163 eV

  energy without entropy =    -1660.01817163  energy(sigma->0) =    -1660.01817163
  exchange ACFDT corr.  =         0.00000000  see jH, gK, PRB 81, 115126


--------------------------------------------------------------------------------------------------------




--------------------------------------- Iteration      1(   4)  ---------------------------------------


    TRIAL :  cpu time      0.5342: real time      0.5342
    CORREC:  cpu time      0.0003: real time      0.0003
    --------------------------------------------
      LOOP:  cpu time      0.5416: real time      0.5418

 eigenvalue-minimisations  :   192
 total energy-change (2. order) :-0.8613428E-01  (-0.8613432E-01)
 number of electron      44.0000000 magnetization 
 augmentation part       44.0000000 magnetization 

 Free energy of the ion-electron system (eV)
  ---------------------------------------------------
  alpha Z        PSCENC =         1.46265607
  Ewald energy   TEWEN  =      2186.18394146
  -Hartree energ DENC   =     -7261.67922415
  -exchange      EXHF   =         0.00000000
  -V(xc)+E(xc)   XCENC  =       177.58930481
  PAW double counting   =      4912.82663951    -6821.96778073
  entropy T*S    EENTRO =        -0.00000000
  eigenvalues    EBANDS =      -407.15314870
  atomic energy  EATOM  =      5552.63330582
  ---------------------------------------------------
  free energy    TOTEN  =     -1660.10430590 eV

  energy without entropy =    -1660.10430590  energy(sigma->0) =    -1660.10430590
  exchange ACFDT corr.  =         0.00000000  see jH, gK, PRB 81, 115126


--------------------------------------------------------------------------------------------------------




--------------------------------------- Iteration      1(   5)  ---------------------------------------


    POTLOK:  cpu time      0.1004: real time      0.1004
    SETDIJ:  cpu time      0.1781: real time      0.1781
    TRIAL :  cpu time      9.4621: real time      9.4876
    CORREC:  cpu time      0.0003: real time      0.0003
    CHARGE:  cpu time      0.0970: real time      0.0973
    --------------------------------------------
      LOOP:  cpu time      9.8456: real time      9.8717

 eigenvalue-minimisations  :   384
 total energy-change (2. order) : 0.1651056E+04  (-0.2808034E+01)
 number of electron      44.0000016 magnetization 
 augmentation part       29.1013683 magnetization 

 Free energy of the ion-electron system (eV)
  ---------------------------------------------------
  alpha Z        PSCENC =         1.46265607
  Ewald energy   TEWEN  =      2186.18394146
  -Hartree energ DENC   =     -7261.67922415
  -exchange      EXHF   =       142.07854334
  -V(xc)+E(xc)   XCENC  =       135.39531379
  PAW double counting   =      4954.42922012    -5343.11178513
  entropy T*S    EENTRO =        -0.00000000
  eigenvalues    EBANDS =      -376.43988470
  atomic energy  EATOM  =      5552.63330582
  ---------------------------------------------------
  free energy    TOTEN  =        -9.04791338 eV

  energy without entropy =       -9.04791338  energy(sigma->0) =       -9.04791338
  exchange ACFDT corr.  =        -0.00000000  see jH, gK, PRB 81, 115126


--------------------------------------------------------------------------------------------------------




--------------------------------------- Iteration      1(   6)  ---------------------------------------


    POTLOK:  cpu time      0.1007: real time      0.1007
    SETDIJ:  cpu time      0.1779: real time      0.1779
    TRIAL :  cpu time      9.0173: real time      9.0227
    CORREC:  cpu time      8.2052: real time      8.2109
    CHARGE:  cpu time      0.0945: real time      0.0948
    --------------------------------------------
      LOOP:  cpu time     17.6025: real time     17.6143

 eigenvalue-minimisations  :     0
 total energy-change (2. order) : 0.2802079E+01  (-0.1233882E+01)
 number of electron      44.0000015 magnetization 
 augmentation part       28.5589052 magnetization 

 Free energy of the ion-electron system (eV)
  ---------------------------------------------------
  alpha Z        PSCENC =         1.46265607
  Ewald energy   TEWEN  =      2186.18394146
  -Hartree energ DENC   =     -7444.23878421
  -exchange      EXHF   =       137.00929102
  -V(xc)+E(xc)   XCENC  =       138.08316503
  PAW double counting   =      5448.88623236    -5862.56846311
  entropy T*S    EENTRO =        -0.00000000
  eigenvalues    EBANDS =      -163.69717898
  atomic energy  EATOM  =      5552.63330582
  ---------------------------------------------------
  free energy    TOTEN  =        -6.24583455 eV

  energy without entropy =       -6.24583455  energy(sigma->0) =       -6.24583455
  exchange ACFDT corr.  =        -0.00000000  see jH, gK, PRB 81, 115126


--------------------------------------------------------------------------------------------------------




--------------------------------------- Iteration      1(   7)  ---------------------------------------


    POTLOK:  cpu time      0.1103: real time      0.1103
    SETDIJ:  cpu time      0.1695: real time      0.1695
    TRIAL :  cpu time      7.9997: real time      8.0045
    CORREC:  cpu time      8.2080: real time      8.2124
    CHARGE:  cpu time      0.0939: real time      0.0941
    --------------------------------------------
      LOOP:  cpu time     16.5882: real time     16.5980

 eigenvalue-minimisations  :     0
 total energy-change (2. order) :-0.1280190E+01  (-0.6115205E+00)
 number of electron      44.0000015 magnetization 
 augmentation part       28.6581172 magnetization 

 Free energy of the ion-electron system (eV)
  ---------------------------------------------------
  alpha Z        PSCENC =         1.46265607
  Ewald energy   TEWEN  =      2186.18394146
  -Hartree energ DENC   =     -7351.91322047
  -exchange      EXHF   =       135.06419511
  -V(xc)+E(xc)   XCENC  =       135.65577629
  PAW double counting   =      5388.42511970    -5780.87761432
  entropy T*S    EENTRO =        -0.00000000
  eigenvalues    EBANDS =      -274.16018425
  atomic energy  EATOM  =      5552.63330582
  ---------------------------------------------------
  free energy    TOTEN  =        -7.52602459 eV

  energy without entropy =       -7.52602459  energy(sigma->0) =       -7.52602459
  exchange ACFDT corr.  =        -0.00000000  see jH, gK, PRB 81, 115126


--------------------------------------------------------------------------------------------------------




--------------------------------------- Iteration      1(   8)  ---------------------------------------


    POTLOK:  cpu time      0.1015: real time      0.1015
    SETDIJ:  cpu time      0.1803: real time      0.1803
    TRIAL :  cpu time      8.0436: real time      8.0485
    CORREC:  cpu time      8.2304: real time      8.2357
    CHARGE:  cpu time      0.0945: real time      0.0947
    --------------------------------------------
      LOOP:  cpu time     16.6571: real time     16.6680

 eigenvalue-minimisations  :     0
 total energy-change (2. order) :-0.6107744E+00  (-0.1337256E+00)
 number of electron      44.0000016 magnetization 
 augmentation part       28.7615388 magnetization 

 Free energy of the ion-electron system (eV)
  ---------------------------------------------------
  alpha Z        PSCENC =         1.46265607
  Ewald energy   TEWEN  =      2186.18394146
  -Hartree energ DENC   =     -7317.20135312
  -exchange      EXHF   =       134.80575887
  -V(xc)+E(xc)   XCENC  =       135.53637870
  PAW double counting   =      5343.16734160    -5738.85610849
  entropy T*S    EENTRO =        -0.00000000
  eigenvalues    EBANDS =      -305.86871988
  atomic energy  EATOM  =      5552.63330582
  ---------------------------------------------------
  free energy    TOTEN  =        -8.13679896 eV

  energy without entropy =       -8.13679896  energy(sigma->0) =       -8.13679896
  exchange ACFDT corr.  =        -0.00000000  see jH, gK, PRB 81, 115126


--------------------------------------------------------------------------------------------------------




--------------------------------------- Iteration      1(   9)  ---------------------------------------


    POTLOK:  cpu time      0.1003: real time      0.1003
    SETDIJ:  cpu time      0.1818: real time      0.1818
    TRIAL :  cpu time      7.9209: real time      7.9257
    CORREC:  cpu time      8.2283: real time      8.2327
    CHARGE:  cpu time      0.0937: real time      0.0939
    --------------------------------------------
      LOOP:  cpu time     16.5320: real time     16.5418

 eigenvalue-minimisations  :     0
 total energy-change (2. order) :-0.1336684E+00  (-0.6079409E-01)
 number of electron      44.0000015 magnetization 
 augmentation part       28.6654568 magnetization 

 Free energy of the ion-electron system (eV)
  ---------------------------------------------------
  alpha Z        PSCENC =         1.46265607
  Ewald energy   TEWEN  =      2186.18394146
  -Hartree energ DENC   =     -7323.68014034
  -exchange      EXHF   =       135.02811834
  -V(xc)+E(xc)   XCENC  =       135.87163001
  PAW double counting   =      5343.60037376    -5743.57820129
  entropy T*S    EENTRO =        -0.00000000
  eigenvalues    EBANDS =      -295.79215121
  atomic energy  EATOM  =      5552.63330582
  ---------------------------------------------------
  free energy    TOTEN  =        -8.27046737 eV

  energy without entropy =       -8.27046737  energy(sigma->0) =       -8.27046737
  exchange ACFDT corr.  =        -0.00000000  see jH, gK, PRB 81, 115126


--------------------------------------------------------------------------------------------------------




--------------------------------------- Iteration      1(  10)  ---------------------------------------


    POTLOK:  cpu time      0.0995: real time      0.0995
    SETDIJ:  cpu time      0.1805: real time      0.1805
    TRIAL :  cpu time      7.9723: real time      7.9772
    CORREC:  cpu time      8.2123: real time      8.2167
    CHARGE:  cpu time      0.0940: real time      0.0943
    --------------------------------------------
      LOOP:  cpu time     16.5655: real time     16.5755

 eigenvalue-minimisations  :     0
 total energy-change (2. order) :-0.6051474E-01  (-0.7760231E-01)
 number of electron      44.0000016 magnetization 
 augmentation part       28.6610901 magnetization 

 Free energy of the ion-electron system (eV)
  ---------------------------------------------------
  alpha Z        PSCENC =         1.46265607
  Ewald energy   TEWEN  =      2186.18394146
  -Hartree energ DENC   =     -7308.81748551
  -exchange      EXHF   =       134.69780541
  -V(xc)+E(xc)   XCENC  =       135.46579653
  PAW double counting   =      5335.07185184    -5731.65881569
  entropy T*S    EENTRO =        -0.00000000
  eigenvalues    EBANDS =      -313.37003804
  atomic energy  EATOM  =      5552.63330582
  ---------------------------------------------------
  free energy    TOTEN  =        -8.33098211 eV

  energy without entropy =       -8.33098211  energy(sigma->0) =       -8.33098211
  exchange ACFDT corr.  =        -0.00000000  see jH, gK, PRB 81, 115126


--------------------------------------------------------------------------------------------------------




--------------------------------------- Iteration      1(  11)  ---------------------------------------


    POTLOK:  cpu time      0.0991: real time      0.0992
    SETDIJ:  cpu time      0.1791: real time      0.1791
    TRIAL :  cpu time      7.8985: real time      7.9031
    CORREC:  cpu time      8.2513: real time      8.2557
    CHARGE:  cpu time      0.0942: real time      0.0945
    --------------------------------------------
      LOOP:  cpu time     16.5291: real time     16.5387

 eigenvalue-minimisations  :     0
 total energy-change (2. order) :-0.7721701E-01  (-0.1406453E-01)
 number of electron      44.0000016 magnetization 
 augmentation part       28.7022922 magnetization 

 Free energy of the ion-electron system (eV)
  ---------------------------------------------------
  alpha Z        PSCENC =         1.46265607
  Ewald energy   TEWEN  =      2186.18394146
  -Hartree energ DENC   =     -7304.77605498
  -exchange      EXHF   =       134.66331843
  -V(xc)+E(xc)   XCENC  =       135.43660339
  PAW double counting   =      5330.09070932    -5726.44133148
  entropy T*S    EENTRO =        -0.00000000
  eigenvalues    EBANDS =      -317.66134716
  atomic energy  EATOM  =      5552.63330582
  ---------------------------------------------------
  free energy    TOTEN  =        -8.40819912 eV

  energy without entropy =       -8.40819912  energy(sigma->0) =       -8.40819912
  exchange ACFDT corr.  =        -0.00000000  see jH, gK, PRB 81, 115126


--------------------------------------------------------------------------------------------------------




--------------------------------------- Iteration      1(  12)  ---------------------------------------


    POTLOK:  cpu time      0.0983: real time      0.0983
    SETDIJ:  cpu time      0.1846: real time      0.1846
    TRIAL :  cpu time      8.0002: real time      8.0044
    CORREC:  cpu time      8.2272: real time      8.2316
    CHARGE:  cpu time      0.0944: real time      0.0946
    --------------------------------------------
      LOOP:  cpu time     16.6116: real time     16.6207

 eigenvalue-minimisations  :     0
 total energy-change (2. order) :-0.1406359E-01  (-0.8637317E-02)
 number of electron      44.0000016 magnetization 
 augmentation part       28.6737226 magnetization 

 Free energy of the ion-electron system (eV)
  ---------------------------------------------------
  alpha Z        PSCENC =         1.46265607
  Ewald energy   TEWEN  =      2186.18394146
  -Hartree energ DENC   =     -7308.58171212
  -exchange      EXHF   =       134.76798072
  -V(xc)+E(xc)   XCENC  =       135.58130114
  PAW double counting   =      5331.41201299    -5729.29392178
  entropy T*S    EENTRO =        -0.00000000
  eigenvalues    EBANDS =      -312.58782702
  atomic energy  EATOM  =      5552.63330582
  ---------------------------------------------------
  free energy    TOTEN  =        -8.42226272 eV

  energy without entropy =       -8.42226272  energy(sigma->0) =       -8.42226272
  exchange ACFDT corr.  =        -0.00000000  see jH, gK, PRB 81, 115126


--------------------------------------------------------------------------------------------------------




--------------------------------------- Iteration      1(  13)  ---------------------------------------


    POTLOK:  cpu time      0.1014: real time      0.1014
    SETDIJ:  cpu time      0.1799: real time      0.1799
    TRIAL :  cpu time      7.9797: real time      7.9840
    CORREC:  cpu time      8.2221: real time      8.2273
    CHARGE:  cpu time      0.0941: real time      0.0943
    --------------------------------------------
      LOOP:  cpu time     16.5838: real time     16.5939

 eigenvalue-minimisations  :     0
 total energy-change (2. order) :-0.8669481E-02  (-0.4055499E-02)
 number of electron      44.0000016 magnetization 
 augmentation part       28.6675556 magnetization 

 Free energy of the ion-electron system (eV)
  ---------------------------------------------------
  alpha Z        PSCENC =         1.46265607
  Ewald energy   TEWEN  =      2186.18394146
  -Hartree energ DENC   =     -7303.24407666
  -exchange      EXHF   =       134.65267338
  -V(xc)+E(xc)   XCENC  =       135.44369192
  PAW double counting   =      5328.06086148    -5724.87227875
  entropy T*S    EENTRO =        -0.00000000
  eigenvalues    EBANDS =      -318.75170692
  atomic energy  EATOM  =      5552.63330582
  ---------------------------------------------------
  free energy    TOTEN  =        -8.43093220 eV

  energy without entropy =       -8.43093220  energy(sigma->0) =       -8.43093220
  exchange ACFDT corr.  =        -0.00000000  see jH, gK, PRB 81, 115126


--------------------------------------------------------------------------------------------------------




--------------------------------------- Iteration      1(  14)  ---------------------------------------


    POTLOK:  cpu time      0.0999: real time      0.0999
    SETDIJ:  cpu time      0.1802: real time      0.1802
    TRIAL :  cpu time      7.8729: real time      7.8778
    CORREC:  cpu time      8.1072: real time      8.1117
    CHARGE:  cpu time      0.0941: real time      0.0943
    --------------------------------------------
      LOOP:  cpu time     16.3614: real time     16.3714

 eigenvalue-minimisations  :     0
 total energy-change (2. order) :-0.4054134E-02  (-0.8409567E-03)
 number of electron      44.0000016 magnetization 
 augmentation part       28.6810181 magnetization 

 Free energy of the ion-electron system (eV)
  ---------------------------------------------------
  alpha Z        PSCENC =         1.46265607
  Ewald energy   TEWEN  =      2186.18394146
  -Hartree energ DENC   =     -7301.14511041
  -exchange      EXHF   =       134.61014529
  -V(xc)+E(xc)   XCENC  =       135.39816706
  PAW double counting   =      5326.26216810    -5722.84464324
  entropy T*S    EENTRO =        -0.00000000
  eigenvalues    EBANDS =      -320.99561649
  atomic energy  EATOM  =      5552.63330582
  ---------------------------------------------------
  free energy    TOTEN  =        -8.43498633 eV

  energy without entropy =       -8.43498633  energy(sigma->0) =       -8.43498633
  exchange ACFDT corr.  =        -0.00000000  see jH, gK, PRB 81, 115126


--------------------------------------------------------------------------------------------------------




--------------------------------------- Iteration      1(  15)  ---------------------------------------


    POTLOK:  cpu time      0.0985: real time      0.0985
    SETDIJ:  cpu time      0.1815: real time      0.1815
    TRIAL :  cpu time      8.0229: real time      8.0278
    CORREC:  cpu time      8.1771: real time      8.1818
    CHARGE:  cpu time      0.0918: real time      0.0925
    --------------------------------------------
      LOOP:  cpu time     16.5788: real time     16.5896

 eigenvalue-minimisations  :     0
 total energy-change (2. order) :-0.8396714E-03  (-0.8707671E-03)
 number of electron      44.0000016 magnetization 
 augmentation part       28.6756763 magnetization 

 Free energy of the ion-electron system (eV)
  ---------------------------------------------------
  alpha Z        PSCENC =         1.46265607
  Ewald energy   TEWEN  =      2186.18394146
  -Hartree energ DENC   =     -7302.94469836
  -exchange      EXHF   =       134.65021006
  -V(xc)+E(xc)   XCENC  =       135.45118986
  PAW double counting   =      5327.23927199    -5724.34000510
  entropy T*S    EENTRO =        -0.00000000
  eigenvalues    EBANDS =      -318.77169780
  atomic energy  EATOM  =      5552.63330582
  ---------------------------------------------------
  free energy    TOTEN  =        -8.43582600 eV

  energy without entropy =       -8.43582600  energy(sigma->0) =       -8.43582600
  exchange ACFDT corr.  =        -0.00000000  see jH, gK, PRB 81, 115126


--------------------------------------------------------------------------------------------------------




--------------------------------------- Iteration      1(  16)  ---------------------------------------


    POTLOK:  cpu time      0.0992: real time      0.0992
    SETDIJ:  cpu time      0.1798: real time      0.1798
    TRIAL :  cpu time      8.0125: real time      8.0169
    CORREC:  cpu time      8.2884: real time      8.2936
    CHARGE:  cpu time      0.0936: real time      0.0939
    --------------------------------------------
      LOOP:  cpu time     16.6803: real time     16.6906

 eigenvalue-minimisations  :     0
 total energy-change (2. order) :-0.8707538E-03  (-0.2477353E-03)
 number of electron      44.0000016 magnetization 
 augmentation part       28.6721890 magnetization 

 Free energy of the ion-electron system (eV)
  ---------------------------------------------------
  alpha Z        PSCENC =         1.46265607
  Ewald energy   TEWEN  =      2186.18394146
  -Hartree energ DENC   =     -7302.72321684
  -exchange      EXHF   =       134.63495623
  -V(xc)+E(xc)   XCENC  =       135.43303751
  PAW double counting   =      5327.35949044    -5724.29278672
  entropy T*S    EENTRO =        -0.00000000
  eigenvalues    EBANDS =      -319.12808072
  atomic energy  EATOM  =      5552.63330582
  ---------------------------------------------------
  free energy    TOTEN  =        -8.43669676 eV

  energy without entropy =       -8.43669676  energy(sigma->0) =       -8.43669676
  exchange ACFDT corr.  =        -0.00000000  see jH, gK, PRB 81, 115126


--------------------------------------------------------------------------------------------------------




--------------------------------------- Iteration      1(  17)  ---------------------------------------


    POTLOK:  cpu time      0.0979: real time      0.0979
    SETDIJ:  cpu time      0.1828: real time      0.1829
    TRIAL :  cpu time      7.9888: real time      7.9941
    CORREC:  cpu time      8.2268: real time      8.2323
    CHARGE:  cpu time      0.0927: real time      0.0930
    --------------------------------------------
      LOOP:  cpu time     16.5967: real time     16.6080

 eigenvalue-minimisations  :     0
 total energy-change (2. order) :-0.2477427E-03  (-0.2038523E-03)
 number of electron      44.0000016 magnetization 
 augmentation part       28.6748344 magnetization 

 Free energy of the ion-electron system (eV)
  ---------------------------------------------------
  alpha Z        PSCENC =         1.46265607
  Ewald energy   TEWEN  =      2186.18394146
  -Hartree energ DENC   =     -7302.34897865
  -exchange      EXHF   =       134.62495069
  -V(xc)+E(xc)   XCENC  =       135.42021379
  PAW double counting   =      5327.27254205    -5724.07754023
  entropy T*S    EENTRO =        -0.00000000
  eigenvalues    EBANDS =      -319.60803550
  atomic energy  EATOM  =      5552.63330582
  ---------------------------------------------------
  free energy    TOTEN  =        -8.43694450 eV

  energy without entropy =       -8.43694450  energy(sigma->0) =       -8.43694450
  exchange ACFDT corr.  =        -0.00000000  see jH, gK, PRB 81, 115126


--------------------------------------------------------------------------------------------------------




--------------------------------------- Iteration      1(  18)  ---------------------------------------


    POTLOK:  cpu time      0.0991: real time      0.0991
    SETDIJ:  cpu time      0.1788: real time      0.1788
    TRIAL :  cpu time      7.9922: real time      7.9981
    CORREC:  cpu time      8.2606: real time      8.2656
    CHARGE:  cpu time      0.0929: real time      0.0941
    --------------------------------------------
      LOOP:  cpu time     16.6306: real time     16.6432

 eigenvalue-minimisations  :     0
 total energy-change (2. order) :-0.2038331E-03  (-0.1280455E-03)
 number of electron      44.0000016 magnetization 
 augmentation part       28.6741504 magnetization 

 Free energy of the ion-electron system (eV)
  ---------------------------------------------------
  alpha Z        PSCENC =         1.46265607
  Ewald energy   TEWEN  =      2186.18394146
  -Hartree energ DENC   =     -7302.75934721
  -exchange      EXHF   =       134.63485475
  -V(xc)+E(xc)   XCENC  =       135.43259177
  PAW double counting   =      5327.64170446    -5724.55190585
  entropy T*S    EENTRO =        -0.00000000
  eigenvalues    EBANDS =      -319.11494961
  atomic energy  EATOM  =      5552.63330582
  ---------------------------------------------------
  free energy    TOTEN  =        -8.43714833 eV

  energy without entropy =       -8.43714833  energy(sigma->0) =       -8.43714833
  exchange ACFDT corr.  =        -0.00000000  see jH, gK, PRB 81, 115126


--------------------------------------------------------------------------------------------------------




--------------------------------------- Iteration      1(  19)  ---------------------------------------


    POTLOK:  cpu time      0.1022: real time      0.1022
    SETDIJ:  cpu time      0.1746: real time      0.1746
    TRIAL :  cpu time      7.9598: real time      7.9645
    CORREC:  cpu time      8.2308: real time      8.2360
    CHARGE:  cpu time      0.0941: real time      0.0944
    --------------------------------------------
      LOOP:  cpu time     16.5683: real time     16.5789

 eigenvalue-minimisations  :     0
 total energy-change (2. order) :-0.1273420E-03  (-0.4132314E-04)
 number of electron      44.0000016 magnetization 
 augmentation part       28.6738764 magnetization 

 Free energy of the ion-electron system (eV)
  ---------------------------------------------------
  alpha Z        PSCENC =         1.46265607
  Ewald energy   TEWEN  =      2186.18394146
  -Hartree energ DENC   =     -7302.85400496
  -exchange      EXHF   =       134.63434446
  -V(xc)+E(xc)   XCENC  =       135.43186829
  PAW double counting   =      5327.84132324    -5724.75371558
  entropy T*S    EENTRO =        -0.00000000
  eigenvalues    EBANDS =      -319.01699448
  atomic energy  EATOM  =      5552.63330582
  ---------------------------------------------------
  free energy    TOTEN  =        -8.43727568 eV

  energy without entropy =       -8.43727568  energy(sigma->0) =       -8.43727568
  exchange ACFDT corr.  =        -0.00000000  see jH, gK, PRB 81, 115126


--------------------------------------------------------------------------------------------------------




--------------------------------------- Iteration      1(  20)  ---------------------------------------


    POTLOK:  cpu time      0.0991: real time      0.0992
    SETDIJ:  cpu time      0.1808: real time      0.1808
    TRIAL :  cpu time      7.9899: real time      7.9945
    CORREC:  cpu time      8.2847: real time      8.2908
    CHARGE:  cpu time      0.0934: real time      0.0937
    --------------------------------------------
      LOOP:  cpu time     16.6549: real time     16.6661

 eigenvalue-minimisations  :     0
 total energy-change (2. order) :-0.4146971E-04  (-0.4560137E-04)
 number of electron      44.0000016 magnetization 
 augmentation part       28.6741910 magnetization 

 Free energy of the ion-electron system (eV)
  ---------------------------------------------------
  alpha Z        PSCENC =         1.46265607
  Ewald energy   TEWEN  =      2186.18394146
  -Hartree energ DENC   =     -7302.87823219
  -exchange      EXHF   =       134.63384557
  -V(xc)+E(xc)   XCENC  =       135.43125606
  PAW double counting   =      5327.87871635    -5724.79017724
  entropy T*S    EENTRO =        -0.00000000
  eigenvalues    EBANDS =      -318.99262905
  atomic energy  EATOM  =      5552.63330582
  ---------------------------------------------------
  free energy    TOTEN  =        -8.43731715 eV

  energy without entropy =       -8.43731715  energy(sigma->0) =       -8.43731715
  exchange ACFDT corr.  =        -0.00000000  see jH, gK, PRB 81, 115126


--------------------------------------------------------------------------------------------------------




--------------------------------------- Iteration      1(  21)  ---------------------------------------


    POTLOK:  cpu time      0.0965: real time      0.0965
    SETDIJ:  cpu time      0.1817: real time      0.1817
    TRIAL :  cpu time      7.9308: real time      7.9362
    CORREC:  cpu time      8.1099: real time      8.1149
    CHARGE:  cpu time      0.0939: real time      0.0942
    --------------------------------------------
      LOOP:  cpu time     16.4196: real time     16.4309

 eigenvalue-minimisations  :     0
 total energy-change (2. order) :-0.4548812E-04  (-0.1176975E-04)
 number of electron      44.0000016 magnetization 
 augmentation part       28.6735910 magnetization 

 Free energy of the ion-electron system (eV)
  ---------------------------------------------------
  alpha Z        PSCENC =         1.46265607
  Ewald energy   TEWEN  =      2186.18394146
  -Hartree energ DENC   =     -7302.94018609
  -exchange      EXHF   =       134.63534295
  -V(xc)+E(xc)   XCENC  =       135.43295394
  PAW double counting   =      5327.89345572    -5724.82323726
  entropy T*S    EENTRO =        -0.00000000
  eigenvalues    EBANDS =      -318.91559524
  atomic energy  EATOM  =      5552.63330582
  ---------------------------------------------------
  free energy    TOTEN  =        -8.43736263 eV

  energy without entropy =       -8.43736263  energy(sigma->0) =       -8.43736263
  exchange ACFDT corr.  =        -0.00000000  see jH, gK, PRB 81, 115126


--------------------------------------------------------------------------------------------------------




--------------------------------------- Iteration      1(  22)  ---------------------------------------


    POTLOK:  cpu time      0.0990: real time      0.0991
    SETDIJ:  cpu time      0.1803: real time      0.1808
    TRIAL :  cpu time      7.9015: real time      7.9062
    CORREC:  cpu time      8.2559: real time      8.2617
    CHARGE:  cpu time      0.0935: real time      0.0937
    --------------------------------------------
      LOOP:  cpu time     16.5377: real time     16.5493

 eigenvalue-minimisations  :     0
 total energy-change (2. order) :-0.1180231E-04  (-0.1055219E-04)
 number of electron      44.0000016 magnetization 
 augmentation part       28.6737415 magnetization 

 Free energy of the ion-electron system (eV)
  ---------------------------------------------------
  alpha Z        PSCENC =         1.46265607
  Ewald energy   TEWEN  =      2186.18394146
  -Hartree energ DENC   =     -7302.88413721
  -exchange      EXHF   =       134.63395359
  -V(xc)+E(xc)   XCENC  =       135.43092332
  PAW double counting   =      5327.89573847    -5724.80448777
  entropy T*S    EENTRO =        -0.00000000
  eigenvalues    EBANDS =      -318.98926820
  atomic energy  EATOM  =      5552.63330582
  ---------------------------------------------------
  free energy    TOTEN  =        -8.43737444 eV

  energy without entropy =       -8.43737444  energy(sigma->0) =       -8.43737444
  exchange ACFDT corr.  =        -0.00000000  see jH, gK, PRB 81, 115126


--------------------------------------------------------------------------------------------------------




--------------------------------------- Iteration      1(  23)  ---------------------------------------


    POTLOK:  cpu time      0.1010: real time      0.1010
    SETDIJ:  cpu time      0.1781: real time      0.1782
    TRIAL :  cpu time      7.9389: real time      7.9444
    CORREC:  cpu time      8.2283: real time      8.2339
    CHARGE:  cpu time      0.0936: real time      0.0939
    --------------------------------------------
      LOOP:  cpu time     16.5459: real time     16.5584

 eigenvalue-minimisations  :     0
 total energy-change (2. order) :-0.1056132E-04  (-0.4303524E-05)
 number of electron      44.0000016 magnetization 
 augmentation part       28.6742017 magnetization 

 Free energy of the ion-electron system (eV)
  ---------------------------------------------------
  alpha Z        PSCENC =         1.46265607
  Ewald energy   TEWEN  =      2186.18394146
  -Hartree energ DENC   =     -7302.93675915
  -exchange      EXHF   =       134.63496475
  -V(xc)+E(xc)   XCENC  =       135.43193957
  PAW double counting   =      5327.97482989    -5724.89007073
  entropy T*S    EENTRO =        -0.00000000
  eigenvalues    EBANDS =      -318.93219267
  atomic energy  EATOM  =      5552.63330582
  ---------------------------------------------------
  free energy    TOTEN  =        -8.43738500 eV

  energy without entropy =       -8.43738500  energy(sigma->0) =       -8.43738500
  exchange ACFDT corr.  =        -0.00000000  see jH, gK, PRB 81, 115126


--------------------------------------------------------------------------------------------------------




--------------------------------------- Iteration      1(  24)  ---------------------------------------


    POTLOK:  cpu time      0.0992: real time      0.0993
    SETDIJ:  cpu time      0.1807: real time      0.1807
    TRIAL :  cpu time      7.9072: real time      7.9116
    CORREC:  cpu time      8.0929: real time      8.0982
    CHARGE:  cpu time      0.0938: real time      0.0940
    --------------------------------------------
      LOOP:  cpu time     16.3807: real time     16.3910

 eigenvalue-minimisations  :     0
 total energy-change (2. order) :-0.4358123E-05  (-0.1610524E-05)
 number of electron      44.0000016 magnetization 
 augmentation part       28.6738109 magnetization 

 Free energy of the ion-electron system (eV)
  ---------------------------------------------------
  alpha Z        PSCENC =         1.46265607
  Ewald energy   TEWEN  =      2186.18394146
  -Hartree energ DENC   =     -7302.97106848
  -exchange      EXHF   =       134.63630126
  -V(xc)+E(xc)   XCENC  =       135.43362784
  PAW double counting   =      5328.00442447    -5724.93508832
  entropy T*S    EENTRO =        -0.00000000
  eigenvalues    EBANDS =      -318.88548948
  atomic energy  EATOM  =      5552.63330582
  ---------------------------------------------------
  free energy    TOTEN  =        -8.43738936 eV

  energy without entropy =       -8.43738936  energy(sigma->0) =       -8.43738936
  exchange ACFDT corr.  =        -0.00000000  see jH, gK, PRB 81, 115126


--------------------------------------------------------------------------------------------------------




--------------------------------------- Iteration      1(  25)  ---------------------------------------


    POTLOK:  cpu time      0.0979: real time      0.0980
    SETDIJ:  cpu time      0.1815: real time      0.1815
    TRIAL :  cpu time      7.9669: real time      7.9720
    CORREC:  cpu time      8.3181: real time      8.3237
    CHARGE:  cpu time      0.0936: real time      0.0939
    --------------------------------------------
      LOOP:  cpu time     16.6650: real time     16.6763

 eigenvalue-minimisations  :     0
 total energy-change (2. order) :-0.1606756E-05  (-0.1118842E-05)
 number of electron      44.0000016 magnetization 
 augmentation part       28.6738104 magnetization 

 Free energy of the ion-electron system (eV)
  ---------------------------------------------------
  alpha Z        PSCENC =         1.46265607
  Ewald energy   TEWEN  =      2186.18394146
  -Hartree energ DENC   =     -7302.90413428
  -exchange      EXHF   =       134.63499258
  -V(xc)+E(xc)   XCENC  =       135.43194978
  PAW double counting   =      5327.96884411    -5724.88401238
  entropy T*S    EENTRO =        -0.00000000
  eigenvalues    EBANDS =      -318.96493412
  atomic energy  EATOM  =      5552.63330582
  ---------------------------------------------------
  free energy    TOTEN  =        -8.43739096 eV

  energy without entropy =       -8.43739096  energy(sigma->0) =       -8.43739096
  exchange ACFDT corr.  =        -0.00000000  see jH, gK, PRB 81, 115126


--------------------------------------------------------------------------------------------------------




--------------------------------------- Iteration      1(  26)  ---------------------------------------


    POTLOK:  cpu time      0.0986: real time      0.0986
    SETDIJ:  cpu time      0.1794: real time      0.1794
    TRIAL :  cpu time      7.9583: real time      7.9636
    CORREC:  cpu time      8.2183: real time      8.2239
    CHARGE:  cpu time      0.0948: real time      0.0951
    --------------------------------------------
      LOOP:  cpu time     16.5562: real time     16.5681

 eigenvalue-minimisations  :     0
 total energy-change (2. order) :-0.1125954E-05  (-0.3035379E-06)
 number of electron      44.0000016 magnetization 
 augmentation part       28.6740129 magnetization 

 Free energy of the ion-electron system (eV)
  ---------------------------------------------------
  alpha Z        PSCENC =         1.46265607
  Ewald energy   TEWEN  =      2186.18394146
  -Hartree energ DENC   =     -7302.89583759
  -exchange      EXHF   =       134.63492245
  -V(xc)+E(xc)   XCENC  =       135.43186589
  PAW double counting   =      5327.96176018    -5724.87650445
  entropy T*S    EENTRO =        -0.00000000
  eigenvalues    EBANDS =      -318.97350192
  atomic energy  EATOM  =      5552.63330582
  ---------------------------------------------------
  free energy    TOTEN  =        -8.43739209 eV

  energy without entropy =       -8.43739209  energy(sigma->0) =       -8.43739209
  exchange ACFDT corr.  =        -0.00000000  see jH, gK, PRB 81, 115126


--------------------------------------------------------------------------------------------------------




--------------------------------------- Iteration      1(  27)  ---------------------------------------


    POTLOK:  cpu time      0.0976: real time      0.0976
    SETDIJ:  cpu time      0.1797: real time      0.1797
    TRIAL :  cpu time      7.9879: real time      7.9932
    CORREC:  cpu time      8.2107: real time      8.2157
    EDDIAG:  cpu time      7.8434: real time      7.8488
    CHARGE:  cpu time      0.0943: real time      0.0946
    --------------------------------------------
      LOOP:  cpu time     24.4207: real time     24.4369

 eigenvalue-minimisations  :     0
 total energy-change (2. order) :-0.3024352E-06  (-0.2486257E-06)
 number of electron      44.0000016 magnetization 
 augmentation part       28.6738624 magnetization 

 Free energy of the ion-electron system (eV)
  ---------------------------------------------------
  alpha Z        PSCENC =         1.46265607
  Ewald energy   TEWEN  =      2186.18394146
  -Hartree energ DENC   =     -7302.91894856
  -exchange      EXHF   =       134.63496225
  -V(xc)+E(xc)   XCENC  =       135.43264157
  PAW double counting   =      5327.96818444    -5724.89060515
  entropy T*S    EENTRO =        -0.00000000
  eigenvalues    EBANDS =      -318.94407961
  atomic energy  EATOM  =      5552.63330582
  ---------------------------------------------------
  free energy    TOTEN  =        -8.43739239 eV

  energy without entropy =       -8.43739239  energy(sigma->0) =       -8.43739239
  exchange ACFDT corr.  =        -0.00000000  see jH, gK, PRB 81, 115126


--------------------------------------------------------------------------------------------------------


  average scaling for gradient   0.9516


 average (electrostatic) potential at core
  the test charge radii are     0.9430
  (the norm of the test charge is              1.0000)
       1 -65.8980       2 -65.8980       3 -65.3417       4 -65.3417



 E-fermi :  -4.7046     XC(G=0):  -0.1978     alpha+bet : -0.0793

 Fermi energy:        -4.7046341283

 k-point     1 :       0.0000    0.0000    0.0000
  band No.  band energies     occupation 
      1      -9.0251      2.00000
      2      -8.7732      2.00000
      3      -8.2309      2.00000
      4      -8.1906      2.00000
      5      -8.1338      2.00000
      6      -7.9484      2.00000
      7      -7.6043      2.00000
      8      -7.4468      2.00000
      9      -7.3781      2.00000
     10      -7.1711      2.00000
     11      -7.1244      2.00000
     12      -6.9672      2.00000
     13      -6.9600      2.00000
     14      -6.9070      2.00000
     15      -6.8929      2.00000
     16      -6.7744      2.00000
     17      -6.7171      2.00000
     18      -6.7152      2.00000
     19      -6.6553      2.00000
     20      -6.6539      2.00000
     21      -6.2762      2.00000
     22      -4.9429      2.00000
     23      -2.6281      0.00000
     24      -1.4116      0.00000
     25      -1.2137      0.00000
     26      -0.2973      0.00000
     27      -0.2240      0.00000
     28       0.1302      0.00000
     29       0.1359      0.00000
     30       0.2919      0.00000
     31       0.3910      0.00000
     32       0.4274      0.00000
     33       0.4413      0.00000
     34       0.5262      0.00000
     35       0.5742      0.00000
     36       0.5887      0.00000
     37       0.6954      0.00000
     38       0.7416      0.00000
     39       0.7422      0.00000
     40       0.7740      0.00000
     41       0.7787      0.00000
     42       0.7919      0.00000
     43       0.7961      0.00000
     44       0.8115      0.00000
     45       0.8391      0.00000
     46       0.9040      0.00000
     47       0.9765      0.00000
     48       1.0264      0.00000
     49       1.0483      0.00000
     50       1.1309      0.00000
     51       1.1391      0.00000
     52       1.1472      0.00000
     53       1.1697      0.00000
     54       1.1917      0.00000
     55       1.2496      0.00000
     56       1.3658      0.00000
     57       1.4311      0.00000
     58       1.4972      0.00000
     59       1.5300      0.00000
     60       1.5455      0.00000
     61       1.5850      0.00000
     62       1.6318      0.00000
     63       1.6422      0.00000
     64       1.6523      0.00000
     65       1.6902      0.00000
     66       1.8275      0.00000
     67       1.8331      0.00000
     68       1.8387      0.00000
     69       1.8577      0.00000
     70       1.8587      0.00000
     71       1.8739      0.00000
     72       1.8858      0.00000
     73       1.8962      0.00000
     74       1.8979      0.00000
     75       1.9019      0.00000
     76       1.9207      0.00000
     77       1.9241      0.00000
     78       1.9263      0.00000
     79       1.9331      0.00000
     80       1.9349      0.00000
     81       1.9744      0.00000
     82       1.9804      0.00000
     83       2.0206      0.00000
     84       2.0361      0.00000
     85       2.0391      0.00000
     86       2.1140      0.00000
     87       2.1435      0.00000
     88       2.1710      0.00000
     89       2.2036      0.00000
     90       2.2183      0.00000
     91       2.2301      0.00000
     92       2.2310      0.00000
     93       2.2359      0.00000
     94       2.2454      0.00000
     95       2.2586      0.00000
     96       2.2629      0.00000


--------------------------------------------------------------------------------------------------------


 soft charge-density along one line, spin component           1
         0         1         2         3         4         5         6         7         8         9
 total charge-density along one line

 pseudopotential strength for first ion, spin component:           1
 -6.855  -0.019   0.014  -0.011  -0.000  -2.022   0.013  -0.012
 -0.019  -6.886  -0.009  -0.018   0.011   0.013  -1.999   0.005
  0.014  -0.009  -6.900  -0.015   0.003  -0.012   0.005  -1.988
 -0.011  -0.018  -0.015  -6.895  -0.021   0.007   0.013   0.009
 -0.000   0.011   0.003  -0.021  -6.852   0.000  -0.007  -0.002
 -2.022   0.013  -0.012   0.007   0.000   8.578  -0.008   0.008
  0.013  -1.999   0.005   0.013  -0.007  -0.008   8.564  -0.002
 -0.012   0.005  -1.988   0.009  -0.002   0.008  -0.002   8.557
  0.007   0.013   0.009  -1.994   0.014  -0.004  -0.008  -0.005
  0.000  -0.007  -0.002   0.014  -2.023  -0.000   0.004   0.002
  0.013  -0.001   0.008   0.003   0.001  -0.005   0.003  -0.001
  0.024  -0.002   0.015   0.006   0.002  -0.009   0.006  -0.001
  0.015   0.029  -0.005   0.000  -0.010  -0.007  -0.014   0.002
  0.000   0.012   0.033   0.017   0.000  -0.000  -0.006  -0.016
  0.010   0.000  -0.008   0.029   0.016  -0.005  -0.000   0.003
  0.016   0.031  -0.005   0.000  -0.011  -0.006  -0.011   0.001
  0.000   0.014   0.036   0.020   0.000  -0.001  -0.006  -0.014
  0.010   0.000  -0.008   0.032   0.017  -0.004  -0.001   0.002
 total augmentation occupancy for first ion, spin component:           1
  1.991   0.003   0.003   0.004   0.000  -0.009  -0.001  -0.007  -0.002  -0.000  -0.016  -0.023  -0.032  -0.017  -0.025   0.022
  0.003   1.985  -0.003  -0.007  -0.002  -0.001  -0.001   0.003   0.014   0.001  -0.021   0.013  -0.055  -0.030  -0.003   0.039
  0.003  -0.003   1.990  -0.003  -0.001  -0.007   0.003  -0.001   0.006  -0.000  -0.029  -0.005   0.001  -0.077   0.003  -0.010
  0.004  -0.007  -0.003   1.983   0.001  -0.002   0.014   0.006   0.002   0.003  -0.032   0.009  -0.005  -0.047  -0.062   0.000
  0.000  -0.002  -0.001   0.001   1.989  -0.000   0.001  -0.000   0.003  -0.015  -0.005   0.000   0.019  -0.003  -0.030  -0.014
 -0.009  -0.001  -0.007  -0.002  -0.000   0.008   0.001  -0.003   0.001   0.000   0.079  -0.012  -0.017  -0.002  -0.017   0.002
 -0.001  -0.001   0.003   0.014   0.001   0.001   0.007  -0.001   0.003   0.000  -0.008   0.001  -0.016   0.001  -0.009   0.001
 -0.007   0.003  -0.001   0.006  -0.000  -0.003  -0.001   0.012   0.000  -0.000   0.049  -0.008   0.015  -0.032   0.013  -0.001
 -0.002   0.014   0.006   0.002   0.003   0.001   0.003   0.000   0.008   0.001   0.017  -0.003  -0.008  -0.006  -0.016   0.001
 -0.000   0.001  -0.000   0.003  -0.015   0.000   0.000  -0.000   0.001   0.004   0.006  -0.001   0.001  -0.000  -0.006   0.000
 -0.016  -0.021  -0.029  -0.032  -0.005   0.079  -0.008   0.049   0.017   0.006   1.889  -0.285  -0.114  -0.316  -0.170   0.015
 -0.023   0.013  -0.005   0.009   0.000  -0.012   0.001  -0.008  -0.003  -0.001  -0.285   0.044   0.018   0.050   0.027  -0.002
 -0.032  -0.055   0.001  -0.005   0.019  -0.017  -0.016   0.015  -0.008   0.001  -0.114   0.018   0.103  -0.038   0.077  -0.010
 -0.017  -0.030  -0.077  -0.047  -0.003  -0.002   0.001  -0.032  -0.006  -0.000  -0.316   0.050  -0.038   0.138  -0.023   0.001
 -0.025  -0.003   0.003  -0.062  -0.030  -0.017  -0.009   0.013  -0.016  -0.006  -0.170   0.027   0.077  -0.023   0.104  -0.007
  0.022   0.039  -0.010   0.000  -0.014   0.002   0.001  -0.001   0.001   0.000   0.015  -0.002  -0.010   0.001  -0.007   0.002
  0.001   0.012   0.046   0.019  -0.000   0.001   0.000   0.003   0.001   0.000   0.041  -0.006   0.001  -0.016  -0.000   0.000
  0.016   0.000  -0.014   0.039   0.021   0.002   0.001  -0.001   0.002   0.001   0.022  -0.003  -0.007  -0.000  -0.011   0.001


------------------------ aborting loop because EDIFF is reached ----------------------------------------


    FORLOC:  cpu time      0.0026: real time      0.0026
    FORHF :  cpu time      1.4288: real time      1.4296
    FORNL :  cpu time      0.0926: real time      0.0927
    FORCOR:  cpu time      0.2469: real time      0.2470
    OFIELD:  cpu time      0.0002: real time      0.0002

  Hirshfeld charges:
            ion         q(e)     
   ------------------------------
      1     Cu          0.084
      2     Cu          0.084
      3     Cu         -0.084
      4     Cu         -0.084

  Hirshfeld-I charges:
            ion         q(e)        dq(e)    
   ------------------------------------------
      1     Cu          0.209     -0.294E-04
      2     Cu          0.209     -0.292E-04
      3     Cu         -0.209      0.293E-04
      4     Cu         -0.209      0.293E-04

   Hirshfeld-I converged in  13 cycles. Convergence criterion |dq|< 0.500E-04 e

  Atomic reference data used in the T-S method for vdW correction:
            C6at              R0at           ALPHAat      REFSTATE
            (au)              (au)            (au)                
   ---------------------------------------------------------------
   Cu        253.000          3.761         42.000         0
 
 Nth order contribution to Edisp (eV)
 Edisp(N=2): -0.12865431367057914     
 Edisp(N=3):   2.6354454249362357E-003
 Edisp(N=4):  -2.3835613968415091E-003
 Edisp(N=5):   1.5291494255927307E-004
 Edisp(N=6):  -9.1041676016266442E-005
 Edisp(N=inf): -0.12833417882720480     

  Tkatchenko/Scheffler method for vdW energy calculation
  ---------------------------------------------------------------------------------------------

  Parameters of vdW forcefield:
            C6ts              R0ts          ALPHAts         R0scs        ALPHAscs        RELVOL 
            (au)              (au)           (au)            (au)          (au)                 
   ---------------------------------------------------------------------------------------------
   Cu        164.873          3.502         33.905          3.261         27.391          0.807
   Cu        164.910          3.502         33.909          3.261         27.395          0.807
   Cu        298.231          3.865         45.600          3.779         42.613          1.086
   Cu        298.241          3.865         45.601          3.779         42.614          1.086

  vdW correction parametrized for the method   $i*  

  IVDW = 212
  VDW_RADIUS =    50.000 A
  VDW_SR =     0.850
  VDW_D =     6.000
  SCSRAD =   120.000 A
  LVDWSCS = T
  LSCSGRAD = T
  LSCALER0 = T
  ITIM = -1
  Edisp (eV):   -0.12833
    FORVDW:  cpu time     25.3312: real time     25.3343

 VOLUME and BASIS-vectors are now :
 -----------------------------------------------------------------------------
  energy-cutoff  :      520.00
  volume of cell :     8000.00
      direct lattice vectors                 reciprocal lattice vectors
    20.000000000  0.000000000  0.000000000     0.050000000  0.000000000  0.000000000
     0.000000000 20.000000000  0.000000000     0.000000000  0.050000000  0.000000000
     0.000000000  0.000000000 20.000000000     0.000000000  0.000000000  0.050000000

  length of vectors
    20.000000000 20.000000000 20.000000000     0.050000000  0.050000000  0.050000000


 FORCES acting on ions:
    Electron-Ion                     Ewald-Force                    Non-Local-Force
 -----------------------------------------------------------------------------------------------
   -.294E+03 -.196E+03 -.545E+03   0.288E+03 0.192E+03 0.535E+03   0.548E+01 0.367E+01 0.102E+02
   0.294E+03 0.195E+03 0.545E+03   -.289E+03 -.192E+03 -.535E+03   -.550E+01 -.366E+01 -.102E+02
   0.378E+03 0.405E+03 -.349E+03   -.371E+03 -.398E+03 0.343E+03   -.664E+01 -.711E+01 0.614E+01
   -.378E+03 -.404E+03 0.349E+03   0.372E+03 0.397E+03 -.343E+03   0.666E+01 0.709E+01 -.614E+01
 -----------------------------------------------------------------------------------------------
   -.102E-01 0.110E-01 0.183E-02   0.000E+00 0.284E-13 0.000E+00   0.292E-02 -.659E-02 -.613E-02


 POSITION                                       TOTAL-FORCE (eV/Angst)
 -----------------------------------------------------------------------------------
      0.50908      0.34024      0.94542         0.088322      0.056919      0.160961
     19.48963     19.66109     19.05474        -0.087460     -0.057635     -0.160911
     18.80177     18.71609      1.10740        -0.168154     -0.177973      0.154735
      1.19952      1.28257     18.89244         0.167291      0.178689     -0.154785
 -----------------------------------------------------------------------------------
    total drift:                               -0.000165     -0.000117     -0.000100


--------------------------------------------------------------------------------------------------------



  FREE ENERGIE OF THE ION-ELECTRON SYSTEM (eV)
  ---------------------------------------------------
  free  energy   TOTEN  =        -8.56572657 eV

  energy  without entropy=       -8.56572657  energy(sigma->0) =       -8.56572657



--------------------------------------------------------------------------------------------------------


    POTLOK:  cpu time      0.2790: real time      0.2791


--------------------------------------------------------------------------------------------------------


     LOOP+:  cpu time    412.9835: real time    413.2687
    4ORBIT:  cpu time      0.0000: real time      0.0000

 total amount of memory used by VASP MPI-rank0   952528. kBytes
=======================================================================

   base      :      30000. kBytes
   nonlr-proj:       2222. kBytes
   fftplans  :      48991. kBytes
   grid      :      38630. kBytes
   one-center:         15. kBytes
   HF        :         64. kBytes
   wavefun   :       2592. kBytes
   fock_wrk  :     830014. kBytes

  
  
 General timing and accounting informations for this job:
 ========================================================
  
                  Total CPU time used (sec):      434.474
                            User time (sec):      412.383
                          System time (sec):       22.091
                         Elapsed time (sec):      437.010
  
                   Maximum memory used (kb):     1665832.
                   Average memory used (kb):          N/A
  
                          Minor page faults:      2851135
                          Major page faults:            0
                 Voluntary context switches:        21605
