 vasp.6.3.0 20Jan22 (build Apr  1 2022 16:44:48) complex                         
 executed on        HPECrayEX_GCC date 2023.01.06  18:55:50
 running  768 mpi-ranks, with    1 threads/rank
 distrk:  each k-point on  384 cores,    2 groups
 distr:  one band on NCORE=   4 cores,   96 groups


--------------------------------------------------------------------------------------------------------


 INCAR:
   SYSTEM = MgO-rocksalt
   ISMEAR = 0
   SIGMA = 0.05
   EDIFF = 1E-6
   ALGO = ALL
   ISTART = 0
   IBRION = -1
   NSW = 0
   ISYM = 2
   GGA = RE
   IVDW = 13
   VDW_S8 = 1.7468
   VDW_A1 = 0.5363
   VDW_A2 = 3.0726
   ENCUT = 520
   PREC = Accurate
   LASPH = .TRUE.
   LREAL = Auto
   ISPIN = 1
   NELM = 200
   NELMIN = 8
   NCORE = 4
   KPAR = 2
   LWAVE = .FALSE.
   LCHARG = .FALSE.

 POTCAR:    PAW_PBE Au 04Oct2007                  
 POTCAR:    PAW_PBE Au 04Oct2007                  
   SHA256 =  d0044ae04e2bdce24051b198fc5c053d722a5bc6fe3c3b100514a13fc5d2db88 Au/POTCAR             
   COPYR  = (c) Copyright 04Oct2007 Georg Kresse                                                    
   COPYR  = This file is part of the software VASP. Any use, copying, and all other rights are regul
   COPYR  = If you do not have a valid VASP license, you may not use, copy or distribute this file. 
   VRHFIN =Au: s1d10                                                                                
   LEXCH  = PE                                                                                      
   EATOM  =   926.0867 eV,   68.0654 Ry                                                             
                                                                                                    
   TITEL  = PAW_PBE Au 04Oct2007                                                                    
   LULTRA =        F    use ultrasoft PP ?                                                          
   IUNSCR =        1    unscreen: 0-lin 1-nonlin 2-no                                               
   RPACOR =    2.330    partial core radius                                                         
   POMASS =  196.966; ZVAL   =   11.000    mass and valenz                                          
   RCORE  =    2.500    outmost cutoff radius                                                       
   RWIGS  =    2.840; RWIGS  =    1.503    wigner-seitz radius (au A)                               
   ENMAX  =  229.943; ENMIN  =  172.457 eV                                                          
   ICORE  =        3    local potential                                                             
   LCOR   =        T    correct aug charges                                                         
   LPAW   =        T    paw PP                                                                      
   EAUG   =  356.670                                                                                
   DEXC   =    0.000                                                                                
   RMAX   =    2.562    core radius for proj-oper                                                   
   RAUG   =    1.300    factor for augmentation sphere                                              
   RDEP   =    2.598    radius for radial grids                                                     
   RDEPT  =    2.193    core radius for aug-charge                                                  
                                                                                                    
   Atomic configuration                                                                             
   16 entries                                                                                       
     n  l   j            E        occ.                                                              
     1  0  0.50    -80748.5001   2.0000                                                             
     2  0  0.50    -14244.7466   2.0000                                                             
     2  1  1.50    -12310.9591   6.0000                                                             
     3  0  0.50     -3362.1768   2.0000                                                             
     3  1  1.50     -2801.5463   6.0000                                                             
     3  2  2.50     -2203.8206  10.0000                                                             
     4  0  0.50      -729.8168   2.0000                                                             
     4  1  1.50      -546.0527   6.0000                                                             
     4  2  2.50      -325.7302  10.0000                                                             
     4  3  3.50       -81.1472  14.0000                                                             
     5  0  0.50      -108.3201   2.0000                                                             
     5  1  1.50       -59.7479   6.0000                                                             
     5  2  2.50        -6.8783  10.0000                                                             
     6  0  0.50        -5.7602   1.0000                                                             
     6  1  1.50        -6.8029   0.0000                                                             
     5  3  2.50        -1.3606   0.0000                                                             
   Description                                                                                      
     l       E           TYP  RCUT    TYP  RCUT                                                     
     2     -6.8782861     23  2.500                                                                 
     2     -8.2388687     23  2.500                                                                 
     0     -5.7601759     23  2.500                                                                 
     0     -0.8493231     23  2.500                                                                 
     1     -2.7211652     23  2.500                                                                 
     1     27.2116520     23  2.500                                                                 
     3     -1.3605826     23  2.500                                                                 
  local pseudopotential read in
  partial core-charges read in
  partial kinetic energy density read in
  atomic valenz-charges read in
  non local Contribution for L=           2  read in
    real space projection operators read in
  non local Contribution for L=           2  read in
    real space projection operators read in
  non local Contribution for L=           0  read in
    real space projection operators read in
  non local Contribution for L=           0  read in
    real space projection operators read in
  non local Contribution for L=           1  read in
    real space projection operators read in
  non local Contribution for L=           1  read in
    real space projection operators read in
    PAW grid and wavefunctions read in

   number of l-projection  operators is LMAX  =           6
   number of lm-projection operators is LMMAX =          18

 -----------------------------------------------------------------------------
|                                                                             |
|               ----> ADVICE to this user running VASP <----                  |
|                                                                             |
|     You have a (more or less) 'small supercell' and for smaller cells       |
|     it is recommended to use the reciprocal-space projection scheme!        |
|     The real-space optimization is not efficient for small cells and it     |
|     is also less accurate ...                                               |
|     Therefore, set LREAL=.FALSE. in the INCAR file.                         |
|                                                                             |
 -----------------------------------------------------------------------------

 Optimization of the real space projectors (new method)

 maximal supplied QI-value         = 15.12
 optimisation between [QCUT,QGAM] = [ 11.64, 23.28] = [ 37.95,151.78] Ry 
 Optimized for a Real-space Cutoff    1.49 Angstroem

   l    n(q)    QCUT    max X(q) W(low)/X(q) W(high)/X(q)  e(spline) 
   2      9    11.641    60.898    0.24E-03    0.10E-03    0.19E-06
   2      9    11.641    58.894    0.25E-03    0.10E-03    0.19E-06
   0     10    11.641   109.617    0.73E-04    0.33E-04    0.11E-06
   0     10    11.641    75.026    0.71E-04    0.32E-04    0.11E-06
   1     10    11.641    16.344    0.27E-04    0.97E-04    0.16E-06
   1     10    11.641    10.160    0.23E-04    0.77E-04    0.13E-06
 -----------------------------------------------------------------------------
|                                                                             |
|               ----> ADVICE to this user running VASP <----                  |
|                                                                             |
|     You enforced a specific xc type in the INCAR file but a different       |
|     type was found in the POTCAR file.                                      |
|     I HOPE YOU KNOW WHAT YOU ARE DOING!                                     |
|                                                                             |
 -----------------------------------------------------------------------------

  PAW_PBE Au 04Oct2007                  :
 energy of atom  1       EATOM= -926.0867
 kinetic energy error for atom=    0.0034 (will be added to EATOM!!)


 POSCAR: Au
  positions in direct lattice
  velocities in cartesian coordinates
 -----------------------------------------------------------------------------
|                                                                             |
|           W    W    AA    RRRRR   N    N  II  N    N   GGGG   !!!           |
|           W    W   A  A   R    R  NN   N  II  NN   N  G    G  !!!           |
|           W    W  A    A  R    R  N N  N  II  N N  N  G       !!!           |
|           W WW W  AAAAAA  RRRRR   N  N N  II  N  N N  G  GGG   !            |
|           WW  WW  A    A  R   R   N   NN  II  N   NN  G    G                |
|           W    W  A    A  R    R  N    N  II  N    N   GGGG   !!!           |
|                                                                             |
|     Specifying the vdW parameters                                           |
|     VDW_S8 = 1.747                                                          |
|     VDW_A1 = 0.536                                                          |
|     VDW_A2 = 3.073                                                          |
|     in the INCAR file will overwrite the defaults for revpbe. Please        |
|     make sure that is what you intended.                                    |
|                                                                             |
 -----------------------------------------------------------------------------

 exchange correlation table for  LEXCH =       40
   RHO(1)=    0.500       N(1)  =     2000
   RHO(2)=  100.500       N(2)  =     4000



--------------------------------------------------------------------------------------------------------


 ion  position               nearest neighbor table
   1  0.521  0.574  0.417-   2 2.67   6 2.75   5 2.75
   2  0.475  0.459  0.466-   6 2.67   4 2.67   3 2.67   1 2.67   5 2.67
   3  0.529  0.426  0.583-   2 2.67   4 2.75   5 2.75
   4  0.401  0.474  0.575-   2 2.67   3 2.75   6 2.75
   5  0.604  0.487  0.485-   2 2.67   3 2.75   1 2.75
   6  0.396  0.566  0.473-   2 2.67   1 2.75   4 2.75

  LATTYP: Found a simple cubic cell.
 ALAT       =    20.0000000000
  
  Lattice vectors:
  
 A1 = (  20.0000000000,   0.0000000000,   0.0000000000)
 A2 = (   0.0000000000,  20.0000000000,   0.0000000000)
 A3 = (   0.0000000000,   0.0000000000,  20.0000000000)


Analysis of symmetry for initial positions (statically):
=====================================================================
 Subroutine PRICEL returns:
 Original cell was already a primitive cell.
 

 Routine SETGRP: Setting up the symmetry group for a 
 simple cubic supercell.


 Subroutine GETGRP returns: Found  1 space group operations
 (whereof  1 operations were pure point group operations)
 out of a pool of 48 trial point group operations.


The static configuration has the point symmetry C_1 .


Analysis of symmetry for dynamics (positions and initial velocities):
=====================================================================
 Subroutine PRICEL returns:
 Original cell was already a primitive cell.
 

 Routine SETGRP: Setting up the symmetry group for a 
 simple cubic supercell.


 Subroutine GETGRP returns: Found  1 space group operations
 (whereof  1 operations were pure point group operations)
 out of a pool of 48 trial point group operations.


The dynamic configuration has the point symmetry C_1 .


 Subroutine INISYM returns: Found  1 space group operations
 (whereof  1 operations are pure point group operations),
 and found     1 'primitive' translations


----------------------------------------------------------------------------------------

                                     Primitive cell                                     

  volume of cell :    8000.0000

  direct lattice vectors                    reciprocal lattice vectors
    20.000000000  0.000000000  0.000000000     0.050000000  0.000000000  0.000000000
     0.000000000 20.000000000  0.000000000     0.000000000  0.050000000  0.000000000
     0.000000000  0.000000000 20.000000000     0.000000000  0.000000000  0.050000000

  length of vectors
    20.000000000 20.000000000 20.000000000     0.050000000  0.050000000  0.050000000

  position of ions in fractional coordinates (direct lattice)
     0.521136731  0.573555906  0.416539994
     0.474852389  0.458505140  0.465676283
     0.529321640  0.425810224  0.582962466
     0.400761804  0.474322039  0.575456518
     0.603722748  0.487159467  0.484779740
     0.395695408  0.565626737  0.472586334

  ion indices of the primitive-cell ions
   primitive index   ion index
                 1           1
                 2           2
                 3           3
                 4           4
                 5           5
                 6           6

----------------------------------------------------------------------------------------



 KPOINTS: KPOINTS created by Atomic Simulation Env

Automatic generation of k-mesh.
 Grid dimensions read from file:
 generate k-points for:    1    1    1

 Generating k-lattice:

  Cartesian coordinates                     Fractional coordinates (reciprocal lattice)
     0.050000000  0.000000000  0.000000000     1.000000000  0.000000000  0.000000000
     0.000000000  0.050000000  0.000000000     0.000000000  1.000000000  0.000000000
     0.000000000  0.000000000  0.050000000     0.000000000  0.000000000  1.000000000

  Length of vectors
     0.050000000  0.050000000  0.050000000

  Shift w.r.t. Gamma in fractional coordinates (k-lattice)
     0.000000000  0.000000000  0.000000000

 
 Subroutine IBZKPT returns following result:
 ===========================================
 
 Found      1 irreducible k-points:
 
 Following reciprocal coordinates:
            Coordinates               Weight
  0.000000  0.000000  0.000000      1.000000
 
 Following cartesian coordinates:
            Coordinates               Weight
  0.000000  0.000000  0.000000      1.000000
 


--------------------------------------------------------------------------------------------------------




 Dimension of arrays:
   k-points           NKPTS =      1   k-points in BZ     NKDIM =      1   number of bands    NBANDS=     96
   number of dos      NEDOS =    301   number of ions     NIONS =      6
   non local maximal  LDIM  =      6   non local SUM 2l+1 LMDIM =     18
   total plane-waves  NPLWV = ******
   max r-space proj   IRMAX =   5885   max aug-charges    IRDMAX=  25995
   dimension x,y,z NGX =   150 NGY =  150 NGZ =  150
   dimension x,y,z NGXF=   300 NGYF=  300 NGZF=  300
   support grid    NGXF=   300 NGYF=  300 NGZF=  300
   ions per type =               6
   NGX,Y,Z   is equivalent  to a cutoff of  12.47, 12.47, 12.47 a.u.
   NGXF,Y,Z  is equivalent  to a cutoff of  24.94, 24.94, 24.94 a.u.

 SYSTEM =  MgO-rocksalt                            
 POSCAR =  Au                                      

 Startparameter for this run:
   NWRITE =      2    write-flag & timer
   PREC   = accura    normal or accurate (medium, high low for compatibility)
   ISTART =      0    job   : 0-new  1-cont  2-samecut
   ICHARG =      2    charge: 1-file 2-atom 10-const
   ISPIN  =      1    spin polarized calculation?
   LNONCOLLINEAR =      F non collinear calculations
   LSORBIT =      F    spin-orbit coupling
   INIWAV =      1    electr: 0-lowe 1-rand  2-diag
   LASPH  =      T    aspherical Exc in radial PAW
 Electronic Relaxation 1
   ENCUT  =  520.0 eV  38.22 Ry    6.18 a.u.  37.19 37.19 37.19*2*pi/ulx,y,z
   ENINI  =  520.0     initial cutoff
   ENAUG  =  356.7 eV  augmentation charge cutoff
   NELM   =    200;   NELMIN=  8; NELMDL= -5     # of ELM steps 
   EDIFF  = 0.1E-05   stopping-criterion for ELM
   LREAL  =      T    real-space projection
   NLSPLINE    = F    spline interpolate recip. space projectors
   LCOMPAT=      F    compatible to vasp.4.4
   GGA_COMPAT  = T    GGA compatible to vasp.4.4-vasp.4.6
   LMAXPAW     = -100 max onsite density
   LMAXMIX     =    2 max onsite mixed and CHGCAR
   VOSKOWN=      0    Vosko Wilk Nusair interpolation
   ROPT   =   -0.00025
 Ionic relaxation
   EDIFFG = 0.1E-04   stopping-criterion for IOM
   NSW    =      0    number of steps for IOM
   NBLOCK =      1;   KBLOCK =      1    inner block; outer block 
   IBRION =     -1    ionic relax: 0-MD 1-quasi-New 2-CG
   NFREE  =      0    steps in history (QN), initial steepest desc. (CG)
   ISIF   =      2    stress and relaxation
   IWAVPR =     10    prediction:  0-non 1-charg 2-wave 3-comb
   ISYM   =      2    0-nonsym 1-usesym 2-fastsym
   LCORR  =      T    Harris-Foulkes like correction to forces

   POTIM  = 0.5000    time-step for ionic-motion
   TEIN   =    0.0    initial temperature
   TEBEG  =    0.0;   TEEND  =   0.0 temperature during run
   SMASS  =  -3.00    Nose mass-parameter (am)
   estimated Nose-frequenzy (Omega)   =  0.10E-29 period in steps = 0.13E+47 mass=  -0.914E-26a.u.
   SCALEE = 1.0000    scale energy and forces
   NPACO  =    256;   APACO  = 10.0  distance and # of slots for P.C.
   PSTRESS=    0.0 pullay stress

  Mass of Ions in am
   POMASS = 196.97
  Ionic Valenz
   ZVAL   =  11.00
  Atomic Wigner-Seitz radii
   RWIGS  =  -1.00
  virtual crystal weights 
   VCA    =   1.00
   NELECT =      66.0000    total number of electrons
   NUPDOWN=      -1.0000    fix difference up-down

 DOS related values:
   EMIN   =  10.00;   EMAX   =-10.00  energy-range for DOS
   EFERMI =   0.00
   ISMEAR =     0;   SIGMA  =   0.05  broadening in eV -4-tet -1-fermi 0-gaus

 Electronic relaxation 2 (details)
   IALGO  =     58    algorithm
   LDIAG  =      T    sub-space diagonalisation (order eigenvalues)
   LSUBROT=      F    optimize rotation matrix (better conditioning)
   TURBO    =      0    0=normal 1=particle mesh
   IRESTART =      0    0=no restart 2=restart with 2 vectors
   NREBOOT  =      0    no. of reboots
   NMIN     =      0    reboot dimension
   EREF     =   0.00    reference energy to select bands
   IMIX   =      4    mixing-type and parameters
     AMIX     =   0.40;   BMIX     =  1.00
     AMIX_MAG =   1.60;   BMIX_MAG =  1.00
     AMIN     =   0.10
     WC   =   100.;   INIMIX=   1;  MIXPRE=   1;  MAXMIX= -45

 Intra band minimization:
   WEIMIN = 0.0000     energy-eigenvalue tresh-hold
   EBREAK =  0.26E-08  absolut break condition
   DEPER  =   0.30     relativ break condition  

   TIME   =   0.40     timestep for ELM

  volume/ion in A,a.u.               =    1333.33      8997.78
  Fermi-wavevector in a.u.,A,eV,Ry     =   0.330795  0.625113  1.488826  0.109426
  Thomas-Fermi vector in A             =   1.226404

 Write flags
   LWAVE        =      F    write WAVECAR
   LDOWNSAMPLE  =      F    k-point downsampling of WAVECAR
   LCHARG       =      F    write CHGCAR
   LVTOT        =      F    write LOCPOT, total local potential
   LVHAR        =      F    write LOCPOT, Hartree potential only
   LELF         =      F    write electronic localiz. function (ELF)
   LORBIT       =      0    0 simple, 1 ext, 2 COOP (PROOUT), +10 PAW based schemes


 Dipole corrections
   LMONO  =      F    monopole corrections only (constant potential shift)
   LDIPOL =      F    correct potential (dipole corrections)
   IDIPOL =      0    1-x, 2-y, 3-z, 4-all directions 
   EPSILON=  1.0000000 bulk dielectric constant

 Exchange correlation treatment:
   GGA     =    RE    GGA type
   LEXCH   =    40    internal setting for exchange type
   LIBXC   =     F    Libxc                    
   VOSKOWN =     0    Vosko Wilk Nusair interpolation
   LHFCALC =     F    Hartree Fock is set to
   LHFONE  =     F    Hartree Fock one center treatment
   AEXX    =    0.0000 exact exchange contribution

 Linear response parameters
   LEPSILON=     F    determine dielectric tensor
   LRPA    =     F    only Hartree local field effects (RPA)
   LNABLA  =     F    use nabla operator in PAW spheres
   LVEL    =     F    velocity operator in full k-point grid
   CSHIFT  =0.1000    complex shift for real part using Kramers Kronig
   OMEGAMAX=  -1.0    maximum frequency
   DEG_THRESHOLD= 0.2000000E-02 threshold for treating states as degnerate
   RTIME   =   -0.100 relaxation time in fs
  (WPLASMAI=    0.000 imaginary part of plasma frequency in eV, 0.658/RTIME)
   DFIELD  = 0.0000000 0.0000000 0.0000000 field for delta impulse in time

  Optional k-point grid parameters
   LKPOINTS_OPT  =     F    use optional k-point grid
   KPOINTS_OPT_MODE=     1    mode for optional k-point grid

 Orbital magnetization related:
   ORBITALMAG=     F  switch on orbital magnetization
   LCHIMAG   =     F  perturbation theory with respect to B field
   DQ        =  0.001000  dq finite difference perturbation B field
   LLRAUG    =     F  two centre corrections for induced B field



--------------------------------------------------------------------------------------------------------


 Static calculation
 charge density and potential will be updated during run
 non-spin polarized calculation
 Conjugate gradient for all bands (Freysoldt, et al. PRB 79, 241103 (2009))
 preconditioned conjugated gradient                                        
 perform sub-space diagonalisation
    before iterative eigenvector-optimisation
 modified Broyden-mixing scheme, WC =      100.0
 initial mixing is a Kerker type mixing with AMIX =  0.4000 and BMIX =      1.0000
 Hartree-type preconditioning will be used
 using additional bands           63
 real space projection scheme for non local part
 use partial core corrections
 no Harris-corrections to forces 
 use gradient corrections 
 use of overlap-Matrix (Vanderbilt PP)
 Gauss-broadening in eV      SIGMA  =   0.05


--------------------------------------------------------------------------------------------------------


  energy-cutoff  :      520.00
  volume of cell :     8000.00
      direct lattice vectors                 reciprocal lattice vectors
    20.000000000  0.000000000  0.000000000     0.050000000  0.000000000  0.000000000
     0.000000000 20.000000000  0.000000000     0.000000000  0.050000000  0.000000000
     0.000000000  0.000000000 20.000000000     0.000000000  0.000000000  0.050000000

  length of vectors
    20.000000000 20.000000000 20.000000000     0.050000000  0.050000000  0.050000000



 k-points in units of 2pi/SCALE and weight: KPOINTS created by Atomic Simulation Env
   0.00000000  0.00000000  0.00000000       1.000

 k-points in reciprocal lattice and weights: KPOINTS created by Atomic Simulation Env
   0.00000000  0.00000000  0.00000000       1.000

 position of ions in fractional coordinates (direct lattice) 
   0.52113673  0.57355591  0.41653999
   0.47485239  0.45850514  0.46567628
   0.52932164  0.42581022  0.58296247
   0.40076180  0.47432204  0.57545652
   0.60372275  0.48715947  0.48477974
   0.39569541  0.56562674  0.47258633

 position of ions in cartesian coordinates  (Angst):
  10.42273462 11.47111812  8.33079989
   9.49704778  9.17010280  9.31352565
  10.58643280  8.51620448 11.65924932
   8.01523608  9.48644078 11.50913036
  12.07445496  9.74318934  9.69559481
   7.91390815 11.31253474  9.45172669



--------------------------------------------------------------------------------------------------------


 k-point   1 :   0.0000 0.0000 0.0000  plane waves:  215503

 maximum and minimum number of plane-waves per node :     53900    53857

 maximum number of plane-waves:    215503
 maximum index in each direction: 
   IXMAX=   37   IYMAX=   37   IZMAX=   37
   IXMIN=  -37   IYMIN=  -37   IZMIN=  -37


 real space projection operators:
  total allocation   :       4775.20 KBytes
  max/ min on nodes  :       1195.31       1192.92


 parallel 3D FFT for wavefunctions:
    minimum data exchange during FFTs selected (reduces bandwidth)
 parallel 3D FFT for charge:
    minimum data exchange during FFTs selected (reduces bandwidth)


 total amount of memory used by VASP MPI-rank0   101670. kBytes
=======================================================================

   base      :      30000. kBytes
   nonlr-proj:       2063. kBytes
   fftplans  :      28354. kBytes
   grid      :      38630. kBytes
   one-center:         31. kBytes
   wavefun   :       2592. kBytes

     INWAV:  cpu time      0.0001: real time      0.0001
 Broyden mixing: mesh for mixing (old mesh)
   NGX = 75   NGY = 75   NGZ = 75
  (NGX  =300   NGY  =300   NGZ  =300)
  gives a total of 421875 points

 initial charge density was supplied:
 charge density of overlapping atoms calculated
 number of electron      66.0000000 magnetization 
 keeping initial charge density in first step


--------------------------------------------------------------------------------------------------------


 Maximum index for non-local projection operator         1419
 Maximum index for augmentation-charges            0 (set IRDMAX)


--------------------------------------------------------------------------------------------------------


 First call to EWALD:  gamma=   0.089
 Maximum number of real-space cells 3x 3x 3
 Maximum number of reciprocal cells 3x 3x 3

    FEWALD:  cpu time      0.0012: real time      0.0012


--------------------------------------- Iteration      1(   1)  ---------------------------------------


    POTLOK:  cpu time      0.1132: real time      0.1134
    SETDIJ:  cpu time      0.1837: real time      0.1838
    TRIAL :  cpu time      0.5467: real time      0.5470
    CORREC:  cpu time      0.0012: real time      0.0012
    --------------------------------------------
      LOOP:  cpu time      0.8461: real time      0.8467

 eigenvalue-minimisations  :   192
 total energy-change (2. order) : 0.4772459E+03  (-0.1449037E+04)
 number of electron      66.0000000 magnetization 
 augmentation part       66.0000000 magnetization 

 Free energy of the ion-electron system (eV)
  ---------------------------------------------------
  alpha Z        PSCENC =         5.24158223
  Ewald energy   TEWEN  =      4015.90966112
  -Hartree energ DENC   =     -9337.25128920
  -exchange      EXHF   =         0.00000000
  -V(xc)+E(xc)   XCENC  =        84.53263618
  PAW double counting   =      5247.48987688    -5103.14535726
  entropy T*S    EENTRO =        -0.04518742
  eigenvalues    EBANDS =        12.62119195
  atomic energy  EATOM  =      5551.89281163
  ---------------------------------------------------
  free energy    TOTEN  =       477.24592611 eV

  energy without entropy =      477.29111353  energy(sigma->0) =      477.26851982


--------------------------------------------------------------------------------------------------------




--------------------------------------- Iteration      1(   2)  ---------------------------------------


    TRIAL :  cpu time      1.9329: real time      1.9331
    CORREC:  cpu time      0.0008: real time      0.0008
    --------------------------------------------
      LOOP:  cpu time      1.9360: real time      1.9412

 eigenvalue-minimisations  :   384
 total energy-change (2. order) :-0.4574849E+03  (-0.4571949E+03)
 number of electron      66.0000000 magnetization 
 augmentation part       66.0000000 magnetization 

 Free energy of the ion-electron system (eV)
  ---------------------------------------------------
  alpha Z        PSCENC =         5.24158223
  Ewald energy   TEWEN  =      4015.90966112
  -Hartree energ DENC   =     -9337.25128920
  -exchange      EXHF   =         0.00000000
  -V(xc)+E(xc)   XCENC  =        84.53263618
  PAW double counting   =      5247.48987688    -5103.14535726
  entropy T*S    EENTRO =        -0.00000000
  eigenvalues    EBANDS =      -444.90889988
  atomic energy  EATOM  =      5551.89281163
  ---------------------------------------------------
  free energy    TOTEN  =        19.76102169 eV

  energy without entropy =       19.76102169  energy(sigma->0) =       19.76102169


--------------------------------------------------------------------------------------------------------




--------------------------------------- Iteration      1(   3)  ---------------------------------------


    TRIAL :  cpu time      0.5414: real time      0.5414
    CORREC:  cpu time      0.0008: real time      0.0008
    --------------------------------------------
      LOOP:  cpu time      0.5463: real time      0.5494

 eigenvalue-minimisations  :   192
 total energy-change (2. order) :-0.3052870E+02  (-0.3052870E+02)
 number of electron      66.0000000 magnetization 
 augmentation part       66.0000000 magnetization 

 Free energy of the ion-electron system (eV)
  ---------------------------------------------------
  alpha Z        PSCENC =         5.24158223
  Ewald energy   TEWEN  =      4015.90966112
  -Hartree energ DENC   =     -9337.25128920
  -exchange      EXHF   =         0.00000000
  -V(xc)+E(xc)   XCENC  =        84.53263618
  PAW double counting   =      5247.48987688    -5103.14535726
  entropy T*S    EENTRO =        -0.00000000
  eigenvalues    EBANDS =      -475.43760037
  atomic energy  EATOM  =      5551.89281163
  ---------------------------------------------------
  free energy    TOTEN  =       -10.76767879 eV

  energy without entropy =      -10.76767879  energy(sigma->0) =      -10.76767879


--------------------------------------------------------------------------------------------------------




--------------------------------------- Iteration      1(   4)  ---------------------------------------


    TRIAL :  cpu time      0.5376: real time      0.5377
    CORREC:  cpu time      0.0006: real time      0.0006
    --------------------------------------------
      LOOP:  cpu time      0.5465: real time      0.5466

 eigenvalue-minimisations  :   192
 total energy-change (2. order) :-0.2175721E+00  (-0.2175721E+00)
 number of electron      66.0000000 magnetization 
 augmentation part       66.0000000 magnetization 

 Free energy of the ion-electron system (eV)
  ---------------------------------------------------
  alpha Z        PSCENC =         5.24158223
  Ewald energy   TEWEN  =      4015.90966112
  -Hartree energ DENC   =     -9337.25128920
  -exchange      EXHF   =         0.00000000
  -V(xc)+E(xc)   XCENC  =        84.53263618
  PAW double counting   =      5247.48987688    -5103.14535726
  entropy T*S    EENTRO =        -0.00000000
  eigenvalues    EBANDS =      -475.65517248
  atomic energy  EATOM  =      5551.89281163
  ---------------------------------------------------
  free energy    TOTEN  =       -10.98525090 eV

  energy without entropy =      -10.98525090  energy(sigma->0) =      -10.98525090


--------------------------------------------------------------------------------------------------------




--------------------------------------- Iteration      1(   5)  ---------------------------------------


    TRIAL :  cpu time      1.8459: real time      1.8461
    CORREC:  cpu time      0.0004: real time      0.0004
    CHARGE:  cpu time      0.0978: real time      0.0981
    --------------------------------------------
      LOOP:  cpu time      1.9465: real time      1.9518

 eigenvalue-minimisations  :   384
 total energy-change (2. order) :-0.4128306E-02  (-0.4128306E-02)
 number of electron      66.0000000 magnetization 
 augmentation part       24.0304759 magnetization 

 Free energy of the ion-electron system (eV)
  ---------------------------------------------------
  alpha Z        PSCENC =         5.24158223
  Ewald energy   TEWEN  =      4015.90966112
  -Hartree energ DENC   =     -9337.25128920
  -exchange      EXHF   =         0.00000000
  -V(xc)+E(xc)   XCENC  =        84.53263618
  PAW double counting   =      5247.48987688    -5103.14535726
  entropy T*S    EENTRO =        -0.00000000
  eigenvalues    EBANDS =      -475.65930078
  atomic energy  EATOM  =      5551.89281163
  ---------------------------------------------------
  free energy    TOTEN  =       -10.98937921 eV

  energy without entropy =      -10.98937921  energy(sigma->0) =      -10.98937921


--------------------------------------------------------------------------------------------------------




--------------------------------------- Iteration      1(   6)  ---------------------------------------


    POTLOK:  cpu time      0.1002: real time      0.1002
    SETDIJ:  cpu time      0.1826: real time      0.1827
    TRIAL :  cpu time      1.3175: real time      1.3179
    CORREC:  cpu time      0.4607: real time      0.4608
    CHARGE:  cpu time      0.0955: real time      0.0955
    --------------------------------------------
      LOOP:  cpu time      2.1601: real time      2.1657

 eigenvalue-minimisations  :     0
 total energy-change (2. order) : 0.1656803E+01  (-0.8750928E+00)
 number of electron      65.9999999 magnetization 
 augmentation part       24.3798118 magnetization 

 Free energy of the ion-electron system (eV)
  ---------------------------------------------------
  alpha Z        PSCENC =         5.24158223
  Ewald energy   TEWEN  =      4015.90966112
  -Hartree energ DENC   =     -9318.96623476
  -exchange      EXHF   =         0.00000000
  -V(xc)+E(xc)   XCENC  =        82.32633465
  PAW double counting   =      5872.04261198    -5737.40022137
  entropy T*S    EENTRO =        -0.00000000
  eigenvalues    EBANDS =      -480.37912155
  atomic energy  EATOM  =      5551.89281163
  ---------------------------------------------------
  free energy    TOTEN  =        -9.33257608 eV

  energy without entropy =       -9.33257608  energy(sigma->0) =       -9.33257608


--------------------------------------------------------------------------------------------------------




--------------------------------------- Iteration      1(   7)  ---------------------------------------


    POTLOK:  cpu time      0.0987: real time      0.0987
    SETDIJ:  cpu time      0.1828: real time      0.1828
    TRIAL :  cpu time      0.2080: real time      0.2081
    CORREC:  cpu time      0.4585: real time      0.4585
    CHARGE:  cpu time      0.0959: real time      0.0960
    --------------------------------------------
      LOOP:  cpu time      1.0514: real time      1.0517

 eigenvalue-minimisations  :     0
 total energy-change (2. order) :-0.8746622E+00  (-0.7323487E-01)
 number of electron      66.0000000 magnetization 
 augmentation part       24.4163850 magnetization 

 Free energy of the ion-electron system (eV)
  ---------------------------------------------------
  alpha Z        PSCENC =         5.24158223
  Ewald energy   TEWEN  =      4015.90966112
  -Hartree energ DENC   =     -9325.16813861
  -exchange      EXHF   =         0.00000000
  -V(xc)+E(xc)   XCENC  =        83.35729578
  PAW double counting   =      5880.12617485    -5744.72789834
  entropy T*S    EENTRO =        -0.00000000
  eigenvalues    EBANDS =      -476.83872697
  atomic energy  EATOM  =      5551.89281163
  ---------------------------------------------------
  free energy    TOTEN  =       -10.20723832 eV

  energy without entropy =      -10.20723832  energy(sigma->0) =      -10.20723832


--------------------------------------------------------------------------------------------------------




--------------------------------------- Iteration      1(   8)  ---------------------------------------


    POTLOK:  cpu time      0.0990: real time      0.0990
    SETDIJ:  cpu time      0.1841: real time      0.1841
    TRIAL :  cpu time      0.2062: real time      0.2062
    CORREC:  cpu time      0.4594: real time      0.4594
    CHARGE:  cpu time      0.0967: real time      0.0967
    --------------------------------------------
      LOOP:  cpu time      1.0528: real time      1.0531

 eigenvalue-minimisations  :     0
 total energy-change (2. order) :-0.7308058E-01  (-0.2391917E-01)
 number of electron      65.9999999 magnetization 
 augmentation part       24.4165962 magnetization 

 Free energy of the ion-electron system (eV)
  ---------------------------------------------------
  alpha Z        PSCENC =         5.24158223
  Ewald energy   TEWEN  =      4015.90966112
  -Hartree energ DENC   =     -9322.26667778
  -exchange      EXHF   =         0.00000000
  -V(xc)+E(xc)   XCENC  =        83.39713610
  PAW double counting   =      5867.05338493    -5731.57452379
  entropy T*S    EENTRO =        -0.00000000
  eigenvalues    EBANDS =      -479.93369334
  atomic energy  EATOM  =      5551.89281163
  ---------------------------------------------------
  free energy    TOTEN  =       -10.28031890 eV

  energy without entropy =      -10.28031890  energy(sigma->0) =      -10.28031890


--------------------------------------------------------------------------------------------------------




--------------------------------------- Iteration      1(   9)  ---------------------------------------


    POTLOK:  cpu time      0.0984: real time      0.0984
    SETDIJ:  cpu time      0.1820: real time      0.1820
    TRIAL :  cpu time      0.2057: real time      0.2058
    CORREC:  cpu time      0.4552: real time      0.4552
    CHARGE:  cpu time      0.0966: real time      0.0966
    --------------------------------------------
      LOOP:  cpu time      1.0422: real time      1.0474

 eigenvalue-minimisations  :     0
 total energy-change (2. order) :-0.2403401E-01  (-0.8004700E-02)
 number of electron      66.0000000 magnetization 
 augmentation part       24.4238302 magnetization 

 Free energy of the ion-electron system (eV)
  ---------------------------------------------------
  alpha Z        PSCENC =         5.24158223
  Ewald energy   TEWEN  =      4015.90966112
  -Hartree energ DENC   =     -9322.17396542
  -exchange      EXHF   =         0.00000000
  -V(xc)+E(xc)   XCENC  =        83.36249601
  PAW double counting   =      5860.03650766    -5724.46188509
  entropy T*S    EENTRO =        -0.00000000
  eigenvalues    EBANDS =      -480.11156104
  atomic energy  EATOM  =      5551.89281163
  ---------------------------------------------------
  free energy    TOTEN  =       -10.30435290 eV

  energy without entropy =      -10.30435290  energy(sigma->0) =      -10.30435290


--------------------------------------------------------------------------------------------------------




--------------------------------------- Iteration      1(  10)  ---------------------------------------


    POTLOK:  cpu time      0.0979: real time      0.0979
    SETDIJ:  cpu time      0.1753: real time      0.1753
    TRIAL :  cpu time      0.2067: real time      0.2067
    CORREC:  cpu time      0.4557: real time      0.4557
    CHARGE:  cpu time      0.0970: real time      0.0970
    --------------------------------------------
      LOOP:  cpu time      1.0403: real time      1.0406

 eigenvalue-minimisations  :     0
 total energy-change (2. order) :-0.8002747E-02  (-0.2073470E-02)
 number of electron      66.0000000 magnetization 
 augmentation part       24.4247770 magnetization 

 Free energy of the ion-electron system (eV)
  ---------------------------------------------------
  alpha Z        PSCENC =         5.24158223
  Ewald energy   TEWEN  =      4015.90966112
  -Hartree energ DENC   =     -9322.46458284
  -exchange      EXHF   =         0.00000000
  -V(xc)+E(xc)   XCENC  =        83.40081958
  PAW double counting   =      5858.63609917    -5722.91812522
  entropy T*S    EENTRO =        -0.00000000
  eigenvalues    EBANDS =      -480.01062131
  atomic energy  EATOM  =      5551.89281163
  ---------------------------------------------------
  free energy    TOTEN  =       -10.31235565 eV

  energy without entropy =      -10.31235565  energy(sigma->0) =      -10.31235565


--------------------------------------------------------------------------------------------------------




--------------------------------------- Iteration      1(  11)  ---------------------------------------


    POTLOK:  cpu time      0.0960: real time      0.0960
    SETDIJ:  cpu time      0.1842: real time      0.1842
    TRIAL :  cpu time      0.2064: real time      0.2064
    CORREC:  cpu time      0.4510: real time      0.4526
    CHARGE:  cpu time      0.0963: real time      0.0963
    --------------------------------------------
      LOOP:  cpu time      1.0401: real time      1.0452

 eigenvalue-minimisations  :     0
 total energy-change (2. order) :-0.2077031E-02  (-0.5502865E-03)
 number of electron      66.0000000 magnetization 
 augmentation part       24.4253957 magnetization 

 Free energy of the ion-electron system (eV)
  ---------------------------------------------------
  alpha Z        PSCENC =         5.24158223
  Ewald energy   TEWEN  =      4015.90966112
  -Hartree energ DENC   =     -9322.93436155
  -exchange      EXHF   =         0.00000000
  -V(xc)+E(xc)   XCENC  =        83.40797111
  PAW double counting   =      5857.01410592    -5721.23098843
  entropy T*S    EENTRO =        -0.00000000
  eigenvalues    EBANDS =      -479.61521471
  atomic energy  EATOM  =      5551.89281163
  ---------------------------------------------------
  free energy    TOTEN  =       -10.31443268 eV

  energy without entropy =      -10.31443268  energy(sigma->0) =      -10.31443268


--------------------------------------------------------------------------------------------------------




--------------------------------------- Iteration      1(  12)  ---------------------------------------


    POTLOK:  cpu time      0.0985: real time      0.0985
    SETDIJ:  cpu time      0.1865: real time      0.1865
    TRIAL :  cpu time      0.2058: real time      0.2058
    CORREC:  cpu time      0.4557: real time      0.4559
    CHARGE:  cpu time      0.0952: real time      0.0952
    --------------------------------------------
      LOOP:  cpu time      1.0447: real time      1.0498

 eigenvalue-minimisations  :     0
 total energy-change (2. order) :-0.5507800E-03  (-0.9199701E-04)
 number of electron      66.0000000 magnetization 
 augmentation part       24.4278381 magnetization 

 Free energy of the ion-electron system (eV)
  ---------------------------------------------------
  alpha Z        PSCENC =         5.24158223
  Ewald energy   TEWEN  =      4015.90966112
  -Hartree energ DENC   =     -9322.67799280
  -exchange      EXHF   =         0.00000000
  -V(xc)+E(xc)   XCENC  =        83.40739787
  PAW double counting   =      5855.48029864    -5719.67710042
  entropy T*S    EENTRO =        -0.00000000
  eigenvalues    EBANDS =      -479.89164174
  atomic energy  EATOM  =      5551.89281163
  ---------------------------------------------------
  free energy    TOTEN  =       -10.31498346 eV

  energy without entropy =      -10.31498346  energy(sigma->0) =      -10.31498346


--------------------------------------------------------------------------------------------------------




--------------------------------------- Iteration      1(  13)  ---------------------------------------


    POTLOK:  cpu time      0.0985: real time      0.0985
    SETDIJ:  cpu time      0.1833: real time      0.1833
    TRIAL :  cpu time      0.2057: real time      0.2057
    CORREC:  cpu time      0.4544: real time      0.4545
    CHARGE:  cpu time      0.0952: real time      0.0952
    --------------------------------------------
      LOOP:  cpu time      1.0451: real time      1.0455

 eigenvalue-minimisations  :     0
 total energy-change (2. order) :-0.9061414E-04  (-0.1436318E-04)
 number of electron      66.0000000 magnetization 
 augmentation part       24.4269355 magnetization 

 Free energy of the ion-electron system (eV)
  ---------------------------------------------------
  alpha Z        PSCENC =         5.24158223
  Ewald energy   TEWEN  =      4015.90966112
  -Hartree energ DENC   =     -9323.17891363
  -exchange      EXHF   =         0.00000000
  -V(xc)+E(xc)   XCENC  =        83.41755412
  PAW double counting   =      5855.85406350    -5720.04442387
  entropy T*S    EENTRO =        -0.00000000
  eigenvalues    EBANDS =      -479.40740917
  atomic energy  EATOM  =      5551.89281163
  ---------------------------------------------------
  free energy    TOTEN  =       -10.31507408 eV

  energy without entropy =      -10.31507408  energy(sigma->0) =      -10.31507408


--------------------------------------------------------------------------------------------------------




--------------------------------------- Iteration      1(  14)  ---------------------------------------


    POTLOK:  cpu time      0.0966: real time      0.0966
    SETDIJ:  cpu time      0.1827: real time      0.1827
    TRIAL :  cpu time      0.2060: real time      0.2060
    CORREC:  cpu time      0.4539: real time      0.4541
    CHARGE:  cpu time      0.0964: real time      0.0964
    --------------------------------------------
      LOOP:  cpu time      1.0411: real time      1.0453

 eigenvalue-minimisations  :     0
 total energy-change (2. order) :-0.1442134E-04  (-0.4369070E-05)
 number of electron      66.0000000 magnetization 
 augmentation part       24.4271333 magnetization 

 Free energy of the ion-electron system (eV)
  ---------------------------------------------------
  alpha Z        PSCENC =         5.24158223
  Ewald energy   TEWEN  =      4015.90966112
  -Hartree energ DENC   =     -9322.91493751
  -exchange      EXHF   =         0.00000000
  -V(xc)+E(xc)   XCENC  =        83.41187077
  PAW double counting   =      5855.50456199    -5719.69539195
  entropy T*S    EENTRO =        -0.00000000
  eigenvalues    EBANDS =      -479.66524677
  atomic energy  EATOM  =      5551.89281163
  ---------------------------------------------------
  free energy    TOTEN  =       -10.31508850 eV

  energy without entropy =      -10.31508850  energy(sigma->0) =      -10.31508850


--------------------------------------------------------------------------------------------------------




--------------------------------------- Iteration      1(  15)  ---------------------------------------


    POTLOK:  cpu time      0.0969: real time      0.0969
    SETDIJ:  cpu time      0.1836: real time      0.1836
    TRIAL :  cpu time      0.2044: real time      0.2044
    CORREC:  cpu time      0.4516: real time      0.4517
    CHARGE:  cpu time      0.0964: real time      0.0964
    --------------------------------------------
      LOOP:  cpu time      1.0372: real time      1.0425

 eigenvalue-minimisations  :     0
 total energy-change (2. order) :-0.4243522E-05  (-0.9721027E-06)
 number of electron      66.0000000 magnetization 
 augmentation part       24.4272802 magnetization 

 Free energy of the ion-electron system (eV)
  ---------------------------------------------------
  alpha Z        PSCENC =         5.24158223
  Ewald energy   TEWEN  =      4015.90966112
  -Hartree energ DENC   =     -9322.94460161
  -exchange      EXHF   =         0.00000000
  -V(xc)+E(xc)   XCENC  =        83.41267153
  PAW double counting   =      5855.57693738    -5719.76717796
  entropy T*S    EENTRO =        -0.00000000
  eigenvalues    EBANDS =      -479.63697705
  atomic energy  EATOM  =      5551.89281163
  ---------------------------------------------------
  free energy    TOTEN  =       -10.31509274 eV

  energy without entropy =      -10.31509274  energy(sigma->0) =      -10.31509274


--------------------------------------------------------------------------------------------------------




--------------------------------------- Iteration      1(  16)  ---------------------------------------


    POTLOK:  cpu time      0.0970: real time      0.0970
    SETDIJ:  cpu time      0.1859: real time      0.1859
    TRIAL :  cpu time      0.2061: real time      0.2061
    CORREC:  cpu time      0.4552: real time      0.4554
    EDDIAG:  cpu time      0.0941: real time      0.0941
    CHARGE:  cpu time      0.0965: real time      0.0965
    --------------------------------------------
      LOOP:  cpu time      1.1392: real time      1.1434

 eigenvalue-minimisations  :     0
 total energy-change (2. order) :-0.8082898E-06  (-0.1181523E-06)
 number of electron      66.0000000 magnetization 
 augmentation part       24.4271978 magnetization 

 Free energy of the ion-electron system (eV)
  ---------------------------------------------------
  alpha Z        PSCENC =         5.24158223
  Ewald energy   TEWEN  =      4015.90966112
  -Hartree energ DENC   =     -9322.99907366
  -exchange      EXHF   =         0.00000000
  -V(xc)+E(xc)   XCENC  =        83.41361922
  PAW double counting   =      5855.64218020    -5719.83223135
  entropy T*S    EENTRO =        -0.00000000
  eigenvalues    EBANDS =      -479.58364293
  atomic energy  EATOM  =      5551.89281163
  ---------------------------------------------------
  free energy    TOTEN  =       -10.31509355 eV

  energy without entropy =      -10.31509355  energy(sigma->0) =      -10.31509355


--------------------------------------------------------------------------------------------------------


  average scaling for gradient   1.3777


 average (electrostatic) potential at core
  the test charge radii are     1.2098
  (the norm of the test charge is              1.0000)
       1 -76.6903       2 -77.3259       3 -76.6905       4 -76.6903       5 -76.6901
       6 -76.6905



 E-fermi :  -5.2003     XC(G=0):  -0.4073     alpha+bet : -0.1781

 Fermi energy:        -5.2003267944

 k-point     1 :       0.0000    0.0000    0.0000
  band No.  band energies     occupation 
      1     -10.0330      2.00000
      2      -9.3375      2.00000
      3      -9.3372      2.00000
      4      -9.2202      2.00000
      5      -9.2200      2.00000
      6      -8.6386      2.00000
      7      -8.5118      2.00000
      8      -7.9941      2.00000
      9      -7.9937      2.00000
     10      -7.9649      2.00000
     11      -7.9644      2.00000
     12      -7.4336      2.00000
     13      -7.4331      2.00000
     14      -7.3963      2.00000
     15      -7.3959      2.00000
     16      -7.0744      2.00000
     17      -6.7955      2.00000
     18      -6.7951      2.00000
     19      -6.6455      2.00000
     20      -6.6454      2.00000
     21      -6.6391      2.00000
     22      -6.6389      2.00000
     23      -6.5854      2.00000
     24      -6.3767      2.00000
     25      -6.3765      2.00000
     26      -6.2622      2.00000
     27      -6.2601      2.00000
     28      -6.2597      2.00000
     29      -5.8867      2.00000
     30      -5.8866      2.00000
     31      -5.8718      2.00000
     32      -5.4681      2.00000
     33      -5.4678      2.00000
     34      -3.7312      0.00000
     35      -3.5427      0.00000
     36      -3.5424      0.00000
     37      -1.8190      0.00000
     38      -1.0345      0.00000
     39      -1.0341      0.00000
     40      -0.3939      0.00000
     41      -0.3931      0.00000
     42      -0.2077      0.00000
     43      -0.1954      0.00000
     44      -0.1897      0.00000
     45       0.2051      0.00000
     46       0.4215      0.00000
     47       0.4612      0.00000
     48       0.4910      0.00000
     49       0.5548      0.00000
     50       0.5924      0.00000
     51       0.6292      0.00000
     52       0.6766      0.00000
     53       0.7188      0.00000
     54       0.7853      0.00000
     55       0.7911      0.00000
     56       0.8345      0.00000
     57       0.8557      0.00000
     58       0.8574      0.00000
     59       0.8654      0.00000
     60       0.9039      0.00000
     61       0.9486      0.00000
     62       0.9700      0.00000
     63       1.0351      0.00000
     64       1.1060      0.00000
     65       1.1490      0.00000
     66       1.1610      0.00000
     67       1.1659      0.00000
     68       1.1925      0.00000
     69       1.1976      0.00000
     70       1.2653      0.00000
     71       1.3010      0.00000
     72       1.3735      0.00000
     73       1.4057      0.00000
     74       1.5180      0.00000
     75       1.5429      0.00000
     76       1.5777      0.00000
     77       1.6311      0.00000
     78       1.6594      0.00000
     79       1.7174      0.00000
     80       1.7765      0.00000
     81       1.7952      0.00000
     82       1.8318      0.00000
     83       1.8321      0.00000
     84       1.8375      0.00000
     85       1.8653      0.00000
     86       1.8829      0.00000
     87       1.8968      0.00000
     88       1.9100      0.00000
     89       1.9248      0.00000
     90       1.9268      0.00000
     91       1.9443      0.00000
     92       1.9867      0.00000
     93       1.9922      0.00000
     94       1.9938      0.00000
     95       1.9954      0.00000
     96       2.0162      0.00000


--------------------------------------------------------------------------------------------------------


 soft charge-density along one line, spin component           1
         0         1         2         3         4         5         6         7         8         9
 total charge-density along one line

 pseudopotential strength for first ion, spin component:           1
 -9.191   0.005   0.006   0.019   0.008  -9.311   0.005   0.006
  0.005  -9.151   0.007  -0.003  -0.018   0.005  -9.273   0.006
  0.006   0.007  -9.135   0.001  -0.005   0.006   0.006  -9.257
  0.019  -0.003   0.001  -9.146   0.005   0.018  -0.003   0.001
  0.008  -0.018  -0.005   0.005  -9.193   0.008  -0.018  -0.005
 -9.311   0.005   0.006   0.018   0.008  -9.416   0.005   0.006
  0.005  -9.273   0.006  -0.003  -0.018   0.005  -9.379   0.006
  0.006   0.006  -9.257   0.001  -0.005   0.006   0.006  -9.364
  0.018  -0.003   0.001  -9.268   0.005   0.018  -0.003   0.001
  0.008  -0.018  -0.005   0.005  -9.313   0.008  -0.017  -0.005
 -0.001  -0.017  -0.022  -0.004   0.002  -0.001  -0.017  -0.022
 -0.001  -0.024  -0.032  -0.006   0.004  -0.001  -0.024  -0.032
  0.008  -0.012  -0.012   0.001  -0.020   0.008  -0.012  -0.012
  0.001   0.019  -0.015   0.008  -0.001   0.001   0.018  -0.015
  0.019   0.001  -0.005  -0.013   0.008   0.019   0.001  -0.005
  0.010  -0.013  -0.013   0.001  -0.022   0.010  -0.013  -0.013
  0.001   0.020  -0.017   0.008  -0.001   0.001   0.020  -0.016
  0.021   0.001  -0.006  -0.014   0.008   0.021   0.001  -0.005
 total augmentation occupancy for first ion, spin component:           1
  3.227  -0.024  -0.074  -0.513   0.206  -1.260   0.040   0.097   0.570  -0.064  -0.006   0.055   0.016  -0.006   0.190   0.006
 -0.024   3.226   0.002  -0.056   0.391   0.041  -1.137  -0.025   0.066  -0.438   0.804  -0.235  -0.176   0.123   0.032  -0.003
 -0.074   0.002   2.804   0.056  -0.011   0.095  -0.025  -0.712  -0.069  -0.003   0.713  -0.121  -0.059  -0.010  -0.047  -0.007
 -0.513  -0.056   0.056   3.292  -0.326   0.570   0.066  -0.069  -1.220   0.335   0.228  -0.080   0.027   0.034  -0.233   0.001
  0.206   0.391  -0.011  -0.326   3.210  -0.064  -0.438  -0.005   0.336  -1.280  -0.063  -0.042  -0.134   0.016   0.129  -0.015
 -1.260   0.041   0.095   0.570  -0.064   1.247  -0.055  -0.113  -0.615  -0.043   0.007  -0.039  -0.038  -0.002  -0.209   0.002
  0.040  -1.137  -0.025   0.066  -0.438  -0.055   1.035   0.042  -0.073   0.476  -0.733   0.240   0.196  -0.146  -0.031  -0.009
  0.097  -0.025  -0.712  -0.069  -0.005  -0.113   0.042   0.604   0.078   0.015  -0.600   0.116   0.088   0.019   0.059  -0.005
  0.570   0.066  -0.069  -1.220   0.336  -0.615  -0.073   0.078   1.126  -0.344  -0.213   0.081  -0.026  -0.042   0.250  -0.000
 -0.064  -0.438  -0.003   0.335  -1.280  -0.043   0.476   0.015  -0.344   1.295   0.056   0.024   0.165  -0.006  -0.129  -0.006
 -0.006   0.804   0.713   0.228  -0.063   0.007  -0.733  -0.600  -0.213   0.056   2.133  -0.394  -0.210   0.152  -0.088   0.015
  0.055  -0.235  -0.121  -0.080  -0.042  -0.039   0.240   0.116   0.081   0.024  -0.394   0.105   0.060  -0.048   0.025  -0.003
  0.016  -0.176  -0.059   0.027  -0.134  -0.038   0.196   0.088  -0.026   0.165  -0.210   0.060   0.060  -0.023  -0.008  -0.003
 -0.006   0.123  -0.010   0.034   0.016  -0.002  -0.146   0.019  -0.042  -0.006   0.152  -0.048  -0.023   0.034  -0.006   0.001
  0.190   0.032  -0.047  -0.233   0.129  -0.209  -0.031   0.059   0.250  -0.129  -0.088   0.025  -0.008  -0.006   0.082  -0.000
  0.006  -0.003  -0.007   0.001  -0.015   0.002  -0.009  -0.005  -0.000  -0.006   0.015  -0.003  -0.003   0.001  -0.000   0.001
  0.001   0.014  -0.017   0.007  -0.001  -0.000   0.006   0.002   0.001   0.000  -0.011   0.003   0.001  -0.002   0.000  -0.000
  0.014   0.002  -0.003  -0.007   0.006   0.007  -0.000  -0.003  -0.008   0.003   0.006  -0.001  -0.000   0.000  -0.003   0.000


------------------------ aborting loop because EDIFF is reached ----------------------------------------


    FORLOC:  cpu time      0.0027: real time      0.0027
    FORNL :  cpu time      0.1047: real time      0.1048
    STRESS:  cpu time      0.3092: real time      0.3095
    FORCOR:  cpu time      0.0702: real time      0.0702
    OFIELD:  cpu time      0.0002: real time      0.0002
    FORVDW:  cpu time      0.0041: real time      0.0041

  FORCE on cell =-STRESS in cart. coord.  units (eV):
  Direction    XX          YY          ZZ          XY          YZ          ZX
  --------------------------------------------------------------------------------------
  Alpha Z     5.24158     5.24158     5.24158
  Ewald    2208.59799   700.98520  1106.32432  -518.57752 -1387.51317  -451.81861
  Hartree  3794.47456  2604.24569  2924.25918  -403.24476 -1079.31695  -351.31291
  E(xc)    -296.36756  -297.84284  -297.44620    -0.53867    -1.43933    -0.46947
  Local   -7012.29055 -4329.28287 -5050.64821   916.40309  2452.36044   798.40973
  n-local   -26.61517   -19.61548   -21.48955     2.55718     6.83963     2.22940
  augment   403.27205   405.41580   404.83959     0.78316     2.09106     0.68234
  Kinetic   925.78327   932.07417   930.38281     2.29782     6.13799     2.00212
  Fock        0.00000     0.00000     0.00000     0.00000     0.00000     0.00000
  vdW        -0.44938    -0.23000    -0.28899     0.07996     0.21376     0.06970
  -------------------------------------------------------------------------------------
  Total       1.64678     0.99126     1.17454    -0.23974    -0.62657    -0.20769
  in kB       0.32980     0.19852     0.23523    -0.04801    -0.12548    -0.04160
  external pressure =        0.25 kB  Pullay stress =        0.00 kB


 VOLUME and BASIS-vectors are now :
 -----------------------------------------------------------------------------
  energy-cutoff  :      520.00
  volume of cell :     8000.00
      direct lattice vectors                 reciprocal lattice vectors
    20.000000000  0.000000000  0.000000000     0.050000000  0.000000000  0.000000000
     0.000000000 20.000000000  0.000000000     0.000000000  0.050000000  0.000000000
     0.000000000  0.000000000 20.000000000     0.000000000  0.000000000  0.050000000

  length of vectors
    20.000000000 20.000000000 20.000000000     0.050000000  0.050000000  0.050000000


 FORCES acting on ions:
    Electron-Ion                     Ewald-Force                    Non-Local-Force
 -----------------------------------------------------------------------------------------------
   -.199E+03 -.462E+03 0.419E+03   0.197E+03 0.458E+03 -.417E+03   0.152E+01 0.369E+01 -.221E+01
   0.139E+03 0.427E+03 0.372E+03   -.139E+03 -.425E+03 -.371E+03   -.743E+00 -.228E+01 -.199E+01
   -.244E+03 0.351E+03 -.496E+03   0.242E+03 -.350E+03 0.492E+03   0.182E+01 -.167E+01 0.383E+01
   0.463E+03 0.842E+02 -.455E+03   -.460E+03 -.843E+02 0.451E+03   -.285E+01 0.914E-01 0.356E+01
   -.652E+03 0.136E+02 0.442E+02   0.648E+03 -.142E+02 -.445E+02   0.452E+01 0.553E+00 0.268E+00
   0.491E+03 -.418E+03 0.111E+03   -.488E+03 0.415E+03 -.111E+03   -.303E+01 0.340E+01 -.170E+00
 -----------------------------------------------------------------------------------------------
   -.123E+01 -.378E+01 -.329E+01   0.114E-12 0.568E-13 -.568E-13   0.123E+01 0.378E+01 0.329E+01


 POSITION                                       TOTAL-FORCE (eV/Angst)
 -----------------------------------------------------------------------------------
     10.42273     11.47112      8.33080         0.099248      0.230961     -0.189029
      9.49705      9.17010      9.31353        -0.085466     -0.264358     -0.230808
     10.58643      8.51620     11.65925         0.121019     -0.153767      0.246445
      8.01524      9.48644     11.50913        -0.218899     -0.026927      0.226006
     12.07445      9.74319      9.69559         0.314072      0.003677     -0.011857
      7.91391     11.31253      9.45173        -0.229975      0.210414     -0.040756
 -----------------------------------------------------------------------------------
    total drift:                               -0.001694      0.004779      0.003684


--------------------------------------------------------------------------------------------------------



  FREE ENERGIE OF THE ION-ELECTRON SYSTEM (eV)
  ---------------------------------------------------
  free  energy   TOTEN  =       -11.36310934 eV

  energy  without entropy=      -11.36310934  energy(sigma->0) =      -11.36310934



--------------------------------------------------------------------------------------------------------


    POTLOK:  cpu time      0.2805: real time      0.2805


--------------------------------------------------------------------------------------------------------


     LOOP+:  cpu time     19.4729: real time     19.5305
    4ORBIT:  cpu time      0.0000: real time      0.0000

 total amount of memory used by VASP MPI-rank0   101670. kBytes
=======================================================================

   base      :      30000. kBytes
   nonlr-proj:       2063. kBytes
   fftplans  :      28354. kBytes
   grid      :      38630. kBytes
   one-center:         31. kBytes
   wavefun   :       2592. kBytes

  
  
 General timing and accounting informations for this job:
 ========================================================
  
                  Total CPU time used (sec):       40.361
                            User time (sec):       39.123
                          System time (sec):        1.238
                         Elapsed time (sec):       42.387
  
                   Maximum memory used (kb):      207704.
                   Average memory used (kb):          N/A
  
                          Minor page faults:        27012
                          Major page faults:            0
                 Voluntary context switches:         9978
