 vasp.6.3.0 20Jan22 (build Apr  1 2022 16:44:48) complex                         
 executed on        HPECrayEX_GCC date 2023.01.06  18:03:33
 running  768 mpi-ranks, with    1 threads/rank
 distrk:  each k-point on  384 cores,    2 groups
 distr:  one band on NCORE=   4 cores,   96 groups


--------------------------------------------------------------------------------------------------------


 INCAR:
   SYSTEM = MgO-rocksalt
   ISMEAR = 0
   SIGMA = 0.05
   EDIFF = 1E-6
   ALGO = ALL
   ISTART = 0
   IBRION = -1
   NSW = 0
   ISYM = 2
   LHFCALC = .TRUE.
   GGA = PE
   IVDW = 212
   LVDWEXPANSION = .TRUE.
   VDW_SR = 0.85
   ENCUT = 520
   PREC = Accurate
   LASPH = .TRUE.
   LREAL = Auto
   ISPIN = 1
   NELM = 200
   NELMIN = 8
   NCORE = 4
   KPAR = 2
   LWAVE = .FALSE.
   LCHARG = .FALSE.

 POTCAR:    PAW_PBE Au 04Oct2007                  
 -----------------------------------------------------------------------------
|                                                                             |
|           W    W    AA    RRRRR   N    N  II  N    N   GGGG   !!!           |
|           W    W   A  A   R    R  NN   N  II  NN   N  G    G  !!!           |
|           W    W  A    A  R    R  N N  N  II  N N  N  G       !!!           |
|           W WW W  AAAAAA  RRRRR   N  N N  II  N  N N  G  GGG   !            |
|           WW  WW  A    A  R   R   N   NN  II  N   NN  G    G                |
|           W    W  A    A  R    R  N    N  II  N    N   GGGG   !!!           |
|                                                                             |
|     You have selected ISYM=2 for a HF type calculation. This will           |
|     symmetrize the charge density but not the exchange potential. I         |
|     suggest to use ISYM=3 instead. This uses symmetry to obtain the         |
|     orbitals at all k-points in the Brillouin zone, but does not apply      |
|     symmetry to the Hartree potential directly. The resultant charge        |
|     might have lower symmetry than the crystal but, at least, Hartree       |
|     and exchange are fully compatible.                                      |
|                                                                             |
 -----------------------------------------------------------------------------

 POTCAR:    PAW_PBE Au 04Oct2007                  
   SHA256 =  d0044ae04e2bdce24051b198fc5c053d722a5bc6fe3c3b100514a13fc5d2db88 Au/POTCAR             
   COPYR  = (c) Copyright 04Oct2007 Georg Kresse                                                    
   COPYR  = This file is part of the software VASP. Any use, copying, and all other rights are regul
   COPYR  = If you do not have a valid VASP license, you may not use, copy or distribute this file. 
   VRHFIN =Au: s1d10                                                                                
   LEXCH  = PE                                                                                      
   EATOM  =   926.0867 eV,   68.0654 Ry                                                             
                                                                                                    
   TITEL  = PAW_PBE Au 04Oct2007                                                                    
   LULTRA =        F    use ultrasoft PP ?                                                          
   IUNSCR =        1    unscreen: 0-lin 1-nonlin 2-no                                               
   RPACOR =    2.330    partial core radius                                                         
   POMASS =  196.966; ZVAL   =   11.000    mass and valenz                                          
   RCORE  =    2.500    outmost cutoff radius                                                       
   RWIGS  =    2.840; RWIGS  =    1.503    wigner-seitz radius (au A)                               
   ENMAX  =  229.943; ENMIN  =  172.457 eV                                                          
   ICORE  =        3    local potential                                                             
   LCOR   =        T    correct aug charges                                                         
   LPAW   =        T    paw PP                                                                      
   EAUG   =  356.670                                                                                
   DEXC   =    0.000                                                                                
   RMAX   =    2.562    core radius for proj-oper                                                   
   RAUG   =    1.300    factor for augmentation sphere                                              
   RDEP   =    2.598    radius for radial grids                                                     
   RDEPT  =    2.193    core radius for aug-charge                                                  
                                                                                                    
   Atomic configuration                                                                             
   16 entries                                                                                       
     n  l   j            E        occ.                                                              
     1  0  0.50    -80748.5001   2.0000                                                             
     2  0  0.50    -14244.7466   2.0000                                                             
     2  1  1.50    -12310.9591   6.0000                                                             
     3  0  0.50     -3362.1768   2.0000                                                             
     3  1  1.50     -2801.5463   6.0000                                                             
     3  2  2.50     -2203.8206  10.0000                                                             
     4  0  0.50      -729.8168   2.0000                                                             
     4  1  1.50      -546.0527   6.0000                                                             
     4  2  2.50      -325.7302  10.0000                                                             
     4  3  3.50       -81.1472  14.0000                                                             
     5  0  0.50      -108.3201   2.0000                                                             
     5  1  1.50       -59.7479   6.0000                                                             
     5  2  2.50        -6.8783  10.0000                                                             
     6  0  0.50        -5.7602   1.0000                                                             
     6  1  1.50        -6.8029   0.0000                                                             
     5  3  2.50        -1.3606   0.0000                                                             
   Description                                                                                      
     l       E           TYP  RCUT    TYP  RCUT                                                     
     2     -6.8782861     23  2.500                                                                 
     2     -8.2388687     23  2.500                                                                 
     0     -5.7601759     23  2.500                                                                 
     0     -0.8493231     23  2.500                                                                 
     1     -2.7211652     23  2.500                                                                 
     1     27.2116520     23  2.500                                                                 
     3     -1.3605826     23  2.500                                                                 
  local pseudopotential read in
  partial core-charges read in
  partial kinetic energy density read in
  atomic valenz-charges read in
  non local Contribution for L=           2  read in
    real space projection operators read in
  non local Contribution for L=           2  read in
    real space projection operators read in
  non local Contribution for L=           0  read in
    real space projection operators read in
  non local Contribution for L=           0  read in
    real space projection operators read in
  non local Contribution for L=           1  read in
    real space projection operators read in
  non local Contribution for L=           1  read in
    real space projection operators read in
    PAW grid and wavefunctions read in

   number of l-projection  operators is LMAX  =           6
   number of lm-projection operators is LMMAX =          18

 -----------------------------------------------------------------------------
|                                                                             |
|               ----> ADVICE to this user running VASP <----                  |
|                                                                             |
|     You have a (more or less) 'small supercell' and for smaller cells       |
|     it is recommended to use the reciprocal-space projection scheme!        |
|     The real-space optimization is not efficient for small cells and it     |
|     is also less accurate ...                                               |
|     Therefore, set LREAL=.FALSE. in the INCAR file.                         |
|                                                                             |
 -----------------------------------------------------------------------------

 Optimization of the real space projectors (new method)

 maximal supplied QI-value         = 15.12
 optimisation between [QCUT,QGAM] = [ 11.64, 23.28] = [ 37.95,151.78] Ry 
 Optimized for a Real-space Cutoff    1.49 Angstroem

   l    n(q)    QCUT    max X(q) W(low)/X(q) W(high)/X(q)  e(spline) 
   2      9    11.641    60.898    0.24E-03    0.10E-03    0.19E-06
   2      9    11.641    58.894    0.25E-03    0.10E-03    0.19E-06
   0     10    11.641   109.617    0.73E-04    0.33E-04    0.11E-06
   0     10    11.641    75.026    0.71E-04    0.32E-04    0.11E-06
   1     10    11.641    16.344    0.27E-04    0.97E-04    0.16E-06
   1     10    11.641    10.160    0.23E-04    0.77E-04    0.13E-06
  PAW_PBE Au 04Oct2007                  :
 energy of atom  1       EATOM= -926.0867
 kinetic energy error for atom=    0.0034 (will be added to EATOM!!)


 POSCAR: au4
  positions in direct lattice
  velocities in cartesian coordinates
 exchange correlation table for  LEXCH =        8
   RHO(1)=    0.500       N(1)  =     2000
   RHO(2)=  100.500       N(2)  =     4000



--------------------------------------------------------------------------------------------------------


 ion  position               nearest neighbor table
   1  0.029  0.020  0.055-   2 2.61   4 2.66   3 2.67
   2  0.970  0.980  0.945-   1 2.61   3 2.66   4 2.67
   3  0.933  0.928  0.062-   2 2.66   1 2.67
   4  0.067  0.072  0.938-   1 2.66   2 2.67

  LATTYP: Found a simple cubic cell.
 ALAT       =    20.0000000000
  
  Lattice vectors:
  
 A1 = (  20.0000000000,   0.0000000000,   0.0000000000)
 A2 = (   0.0000000000,  20.0000000000,   0.0000000000)
 A3 = (   0.0000000000,   0.0000000000,  20.0000000000)


Analysis of symmetry for initial positions (statically):
=====================================================================
 Subroutine PRICEL returns:
 Original cell was already a primitive cell.
 

 Routine SETGRP: Setting up the symmetry group for a 
 simple cubic supercell.


 Subroutine GETGRP returns: Found  1 space group operations
 (whereof  1 operations were pure point group operations)
 out of a pool of 48 trial point group operations.


The static configuration has the point symmetry C_1 .


Analysis of symmetry for dynamics (positions and initial velocities):
=====================================================================
 Subroutine PRICEL returns:
 Original cell was already a primitive cell.
 

 Routine SETGRP: Setting up the symmetry group for a 
 simple cubic supercell.


 Subroutine GETGRP returns: Found  1 space group operations
 (whereof  1 operations were pure point group operations)
 out of a pool of 48 trial point group operations.


The dynamic configuration has the point symmetry C_1 .


 Subroutine INISYM returns: Found  1 space group operations
 (whereof  1 operations are pure point group operations),
 and found     1 'primitive' translations


----------------------------------------------------------------------------------------

                                     Primitive cell                                     

  volume of cell :    8000.0000

  direct lattice vectors                    reciprocal lattice vectors
    20.000000000  0.000000000  0.000000000     0.050000000  0.000000000  0.000000000
     0.000000000 20.000000000  0.000000000     0.000000000  0.050000000  0.000000000
     0.000000000  0.000000000 20.000000000     0.000000000  0.000000000  0.050000000

  length of vectors
    20.000000000 20.000000000 20.000000000     0.050000000  0.050000000  0.050000000

  position of ions in fractional coordinates (direct lattice)
     0.029491123  0.019721331  0.054801070
     0.970412484  0.980381026  0.945210345
     0.932982382  0.928116396  0.061913163
     0.067114011  0.071781247  0.938075422

  ion indices of the primitive-cell ions
   primitive index   ion index
                 1           1
                 2           2
                 3           3
                 4           4

----------------------------------------------------------------------------------------



 KPOINTS: KPOINTS created by Atomic Simulation Env

Automatic generation of k-mesh.
 Grid dimensions read from file:
 generate k-points for:    1    1    1

 Generating k-lattice:

  Cartesian coordinates                     Fractional coordinates (reciprocal lattice)
     0.050000000  0.000000000  0.000000000     1.000000000  0.000000000  0.000000000
     0.000000000  0.050000000  0.000000000     0.000000000  1.000000000  0.000000000
     0.000000000  0.000000000  0.050000000     0.000000000  0.000000000  1.000000000

  Length of vectors
     0.050000000  0.050000000  0.050000000

  Shift w.r.t. Gamma in fractional coordinates (k-lattice)
     0.000000000  0.000000000  0.000000000

 
 Subroutine IBZKPT returns following result:
 ===========================================
 
 Found      1 irreducible k-points:
 
 Following reciprocal coordinates:
            Coordinates               Weight
  0.000000  0.000000  0.000000      1.000000
 
 Following cartesian coordinates:
            Coordinates               Weight
  0.000000  0.000000  0.000000      1.000000
 
 
 Subroutine IBZKPT_HF returns following result:
 ==============================================
 
 Found      1 k-points in 1st BZ
 the following      1 k-points will be used (e.g. in the exchange kernel)
 Following reciprocal coordinates:   # in IRBZ
  0.000000  0.000000  0.000000    1.00000000   1 t-inv F


--------------------------------------------------------------------------------------------------------




 Dimension of arrays:
   k-points           NKPTS =      1   k-points in BZ     NKDIM =      1   number of bands    NBANDS=     96
   number of dos      NEDOS =    301   number of ions     NIONS =      4
   non local maximal  LDIM  =      6   non local SUM 2l+1 LMDIM =     18
   total plane-waves  NPLWV = ******
   max r-space proj   IRMAX =   5885   max aug-charges    IRDMAX=  25995
   dimension x,y,z NGX =   150 NGY =  150 NGZ =  150
   dimension x,y,z NGXF=   300 NGYF=  300 NGZF=  300
   support grid    NGXF=   300 NGYF=  300 NGZF=  300
   ions per type =               4
   NGX,Y,Z   is equivalent  to a cutoff of  12.47, 12.47, 12.47 a.u.
   NGXF,Y,Z  is equivalent  to a cutoff of  24.94, 24.94, 24.94 a.u.

 SYSTEM =  MgO-rocksalt                            
 POSCAR =  au4                                     

 Startparameter for this run:
   NWRITE =      2    write-flag & timer
   PREC   = accura    normal or accurate (medium, high low for compatibility)
   ISTART =      0    job   : 0-new  1-cont  2-samecut
   ICHARG =      2    charge: 1-file 2-atom 10-const
   ISPIN  =      1    spin polarized calculation?
   LNONCOLLINEAR =      F non collinear calculations
   LSORBIT =      F    spin-orbit coupling
   INIWAV =      1    electr: 0-lowe 1-rand  2-diag
   LASPH  =      T    aspherical Exc in radial PAW
 Electronic Relaxation 1
   ENCUT  =  520.0 eV  38.22 Ry    6.18 a.u.  37.19 37.19 37.19*2*pi/ulx,y,z
   ENINI  =  520.0     initial cutoff
   ENAUG  =  356.7 eV  augmentation charge cutoff
   NELM   =    200;   NELMIN=  8; NELMDL= -5     # of ELM steps 
   EDIFF  = 0.1E-05   stopping-criterion for ELM
   LREAL  =      T    real-space projection
   NLSPLINE    = F    spline interpolate recip. space projectors
   LCOMPAT=      F    compatible to vasp.4.4
   GGA_COMPAT  = T    GGA compatible to vasp.4.4-vasp.4.6
   LMAXPAW     = -100 max onsite density
   LMAXMIX     =    2 max onsite mixed and CHGCAR
   VOSKOWN=      0    Vosko Wilk Nusair interpolation
   ROPT   =   -0.00025
 Ionic relaxation
   EDIFFG = 0.1E-04   stopping-criterion for IOM
   NSW    =      0    number of steps for IOM
   NBLOCK =      1;   KBLOCK =      1    inner block; outer block 
   IBRION =     -1    ionic relax: 0-MD 1-quasi-New 2-CG
   NFREE  =      0    steps in history (QN), initial steepest desc. (CG)
   ISIF   =      0    stress and relaxation
   IWAVPR =     10    prediction:  0-non 1-charg 2-wave 3-comb
   ISYM   =      2    0-nonsym 1-usesym 2-fastsym
   LCORR  =      T    Harris-Foulkes like correction to forces

   POTIM  = 0.5000    time-step for ionic-motion
   TEIN   =    0.0    initial temperature
   TEBEG  =    0.0;   TEEND  =   0.0 temperature during run
   SMASS  =  -3.00    Nose mass-parameter (am)
   estimated Nose-frequenzy (Omega)   =  0.10E-29 period in steps = 0.13E+47 mass=  -0.914E-26a.u.
   SCALEE = 1.0000    scale energy and forces
   NPACO  =    256;   APACO  = 10.0  distance and # of slots for P.C.
   PSTRESS=    0.0 pullay stress

  Mass of Ions in am
   POMASS = 196.97
  Ionic Valenz
   ZVAL   =  11.00
  Atomic Wigner-Seitz radii
   RWIGS  =  -1.00
  virtual crystal weights 
   VCA    =   1.00
   NELECT =      44.0000    total number of electrons
   NUPDOWN=      -1.0000    fix difference up-down

 DOS related values:
   EMIN   =  10.00;   EMAX   =-10.00  energy-range for DOS
   EFERMI =   0.00
   ISMEAR =     0;   SIGMA  =   0.05  broadening in eV -4-tet -1-fermi 0-gaus

 Electronic relaxation 2 (details)
   IALGO  =     58    algorithm
   LDIAG  =      T    sub-space diagonalisation (order eigenvalues)
   LSUBROT=      F    optimize rotation matrix (better conditioning)
   TURBO    =      0    0=normal 1=particle mesh
   IRESTART =      0    0=no restart 2=restart with 2 vectors
   NREBOOT  =      0    no. of reboots
   NMIN     =      0    reboot dimension
   EREF     =   0.00    reference energy to select bands
   IMIX   =      4    mixing-type and parameters
     AMIX     =   0.40;   BMIX     =  1.00
     AMIX_MAG =   1.60;   BMIX_MAG =  1.00
     AMIN     =   0.10
     WC   =   100.;   INIMIX=   1;  MIXPRE=   1;  MAXMIX= -45

 Intra band minimization:
   WEIMIN = 0.0000     energy-eigenvalue tresh-hold
   EBREAK =  0.26E-08  absolut break condition
   DEPER  =   0.30     relativ break condition  

   TIME   =   0.40     timestep for ELM

  volume/ion in A,a.u.               =    2000.00     13496.67
  Fermi-wavevector in a.u.,A,eV,Ry     =   0.288976  0.546086  1.136187  0.083507
  Thomas-Fermi vector in A             =   1.146265

 Write flags
   LWAVE        =      F    write WAVECAR
   LDOWNSAMPLE  =      F    k-point downsampling of WAVECAR
   LCHARG       =      F    write CHGCAR
   LVTOT        =      F    write LOCPOT, total local potential
   LVHAR        =      F    write LOCPOT, Hartree potential only
   LELF         =      F    write electronic localiz. function (ELF)
   LORBIT       =      0    0 simple, 1 ext, 2 COOP (PROOUT), +10 PAW based schemes


 Dipole corrections
   LMONO  =      F    monopole corrections only (constant potential shift)
   LDIPOL =      F    correct potential (dipole corrections)
   IDIPOL =      0    1-x, 2-y, 3-z, 4-all directions 
   EPSILON=  1.0000000 bulk dielectric constant

 Exchange correlation treatment:
   GGA     =    PE    GGA type
   LEXCH   =     8    internal setting for exchange type
   LIBXC   =     F    Libxc                    
   VOSKOWN =     0    Vosko Wilk Nusair interpolation
   EXXOEP  =     0    0=HF, 1=EXX-LHF (local Hartree Fock) 2=EXX OEP
   LHFCALC =     T    Hartree Fock is set to
   LSYMGRAD=     F    symmetrize gradient (conserves proper symmetry)
   PRECFOCK=normal    Normal, Fast or Accurate (Low or Medium for compatibility)
   LRHFCALC=     F    long range Hartree Fock
   LRSCOR  =     F    long range correlation only (use DFT for short range part)
   LTHOMAS =     F    Thomas Fermi screening in HF
   LMODELHF=     F    short range full HF, long range fraction AEXX
   LFOCKACE=     T    use Adeptively-Compressed-Exchange operator
   ENCUT4O =  -1.0   cutoff for four orbital integrals eV
   LMAXFOCK=     4    L truncation for augmentation on plane wave grid
   LMAXFOCKAE=  -1    L truncation for all-electron charge restoration on plane wave grid
   NMAXFOCKAE=   1    number of basis functions for all-electron charge restoration
   LFOCKAEDFT=     F  apply the AE augmentation even for DFT
   NKREDX  =     1    reduce k-point grid by
   NKREDY  =     1    reduce k-point grid by
   NKREDZ  =     1    reduce k-point grid by
   SHIFTRED=     F    shift reduced grid of Gamma
   HFKIDENT=     F    idential grid for each k-point
   ODDONLY =     F    use only odd q-grid points
   EVENONLY=     F    use only even q-grid points
   HFALPHA =   -1.0000 decay constant for conv. correction
   MCALPHA =    0.0000 extent of test-charge in conv. correction in multipole expansion
   AEXX    =    0.2500 exact exchange contribution
   HFSCREEN=    0.0000 screening length (either q_TF or 0.3 A-1)
   HFSCREENC=   0.0000 screening length for correlation (either q_TF or 0.3 A-1)
   HFRCUT  =    0.0000 spherical cutoff for potential kernel
   ALDAX   =    0.7500 LDA exchange part
   AGGAX   =    0.7500 GGA exchange part
   ALDAC   =    1.0000 LDA correlation
   AGGAC   =    1.0000 GGA correlation
   ENCUTFOCK=  -1.0 apply spherical cutoff to Coloumb kernel
   NBANDSGWLOW=     1    first orbital included in HF term
   NBLOCK_FOCK=    64    blocking factor in FOCK_ACC

 Linear response parameters
   LEPSILON=     F    determine dielectric tensor
   LRPA    =     F    only Hartree local field effects (RPA)
   LNABLA  =     F    use nabla operator in PAW spheres
   LVEL    =     F    velocity operator in full k-point grid
   CSHIFT  =0.1000    complex shift for real part using Kramers Kronig
   OMEGAMAX=  -1.0    maximum frequency
   DEG_THRESHOLD= 0.2000000E-02 threshold for treating states as degnerate
   RTIME   =   -0.100 relaxation time in fs
  (WPLASMAI=    0.000 imaginary part of plasma frequency in eV, 0.658/RTIME)
   DFIELD  = 0.0000000 0.0000000 0.0000000 field for delta impulse in time

  Optional k-point grid parameters
   LKPOINTS_OPT  =     F    use optional k-point grid
   KPOINTS_OPT_MODE=     1    mode for optional k-point grid

 Orbital magnetization related:
   ORBITALMAG=     F  switch on orbital magnetization
   LCHIMAG   =     F  perturbation theory with respect to B field
   DQ        =  0.001000  dq finite difference perturbation B field
   LLRAUG    =     F  two centre corrections for induced B field



--------------------------------------------------------------------------------------------------------


 Static calculation
 charge density and potential will be updated during run
 non-spin polarized calculation
 Conjugate gradient for all bands (Freysoldt, et al. PRB 79, 241103 (2009))
 preconditioned conjugated gradient                                        
 perform sub-space diagonalisation
    before iterative eigenvector-optimisation
 modified Broyden-mixing scheme, WC =      100.0
 initial mixing is a Kerker type mixing with AMIX =  0.4000 and BMIX =      1.0000
 Hartree-type preconditioning will be used
 using additional bands           74
 real space projection scheme for non local part
 use partial core corrections
 no Harris-corrections to forces 
 use gradient corrections 
 use of overlap-Matrix (Vanderbilt PP)
 Gauss-broadening in eV      SIGMA  =   0.05


--------------------------------------------------------------------------------------------------------


  energy-cutoff  :      520.00
  volume of cell :     8000.00
      direct lattice vectors                 reciprocal lattice vectors
    20.000000000  0.000000000  0.000000000     0.050000000  0.000000000  0.000000000
     0.000000000 20.000000000  0.000000000     0.000000000  0.050000000  0.000000000
     0.000000000  0.000000000 20.000000000     0.000000000  0.000000000  0.050000000

  length of vectors
    20.000000000 20.000000000 20.000000000     0.050000000  0.050000000  0.050000000



 k-points in units of 2pi/SCALE and weight: KPOINTS created by Atomic Simulation Env
   0.00000000  0.00000000  0.00000000       1.000

 k-points in reciprocal lattice and weights: KPOINTS created by Atomic Simulation Env
   0.00000000  0.00000000  0.00000000       1.000

 position of ions in fractional coordinates (direct lattice) 
   0.02949112  0.01972133  0.05480107
   0.97041248  0.98038103  0.94521035
   0.93298238  0.92811640  0.06191316
   0.06711401  0.07178125  0.93807542

 position of ions in cartesian coordinates  (Angst):
   0.58982245  0.39442661  1.09602139
  19.40824969 19.60762053 18.90420690
  18.65964764 18.56232793  1.23826326
   1.34228022  1.43562494 18.76150844



--------------------------------------------------------------------------------------------------------


 k-point   1 :   0.0000 0.0000 0.0000  plane waves:  215503

 maximum and minimum number of plane-waves per node :     53900    53857

 maximum number of plane-waves:    215503
 maximum index in each direction: 
   IXMAX=   37   IYMAX=   37   IZMAX=   37
   IXMIN=  -37   IYMIN=  -37   IZMIN=  -37


 real space projection operators:
  total allocation   :       3181.78 KBytes
  max/ min on nodes  :        853.45        740.25


 parallel 3D FFT for wavefunctions:
    minimum data exchange during FFTs selected (reduces bandwidth)
 parallel 3D FFT for charge:
    minimum data exchange during FFTs selected (reduces bandwidth)


 FFT grid for exact exchange (Hartree Fock) 
  NGX =112; NGY =112; NGZ =112


 Radii for the augmentation spheres in the non-local exchange
 for species   1 augmentation radius   1.512 (default was   1.210)
       energy cutoff for augmentation   2080.0

 real space projection operators:
  total allocation   :       1990.82 KBytes
  max/ min on nodes  :        508.59        485.74

 Maximum index for augmentation-charges in exchange          629
  SETUP_FOCK is finished

 total amount of memory used by VASP MPI-rank0   122513. kBytes
=======================================================================

   base      :      30000. kBytes
   nonlr-proj:       2221. kBytes
   fftplans  :      48991. kBytes
   grid      :      38630. kBytes
   one-center:         15. kBytes
   HF        :         64. kBytes
   wavefun   :       2592. kBytes

     INWAV:  cpu time      0.0000: real time      0.0000
 Broyden mixing: mesh for mixing (old mesh)
   NGX = 75   NGY = 75   NGZ = 75
  (NGX  =300   NGY  =300   NGZ  =300)
  gives a total of 421875 points

 initial charge density was supplied:
 charge density of overlapping atoms calculated
 number of electron      44.0000000 magnetization 
 keeping initial charge density in first step


--------------------------------------------------------------------------------------------------------


 Maximum index for non-local projection operator         1603
 Maximum index for augmentation-charges          787 (set IRDMAX)


--------------------------------------------------------------------------------------------------------


    FEWALD:  cpu time      0.0008: real time      0.0008


--------------------------------------- Iteration      1(   1)  ---------------------------------------


    POTLOK:  cpu time      0.1159: real time      0.1160
    SETDIJ:  cpu time      0.1830: real time      0.1831
    TRIAL :  cpu time      0.5477: real time      0.5480
    CORREC:  cpu time      0.0010: real time      0.0010
    --------------------------------------------
      LOOP:  cpu time      0.8486: real time      0.8491

 eigenvalue-minimisations  :   192
 total energy-change (2. order) :-0.9251317E+04  (-0.9685940E+03)
 number of electron      44.0000000 magnetization 
 augmentation part       44.0000000 magnetization 

 Free energy of the ion-electron system (eV)
  ---------------------------------------------------
  alpha Z        PSCENC =         2.32959210
  Ewald energy   TEWEN  =      1705.48734111
  -Hartree energ DENC   =     -5251.43012379
  -exchange      EXHF   =         0.00000000
  -V(xc)+E(xc)   XCENC  =        57.33052466
  PAW double counting   =      3496.39001341   -12934.52217745
  entropy T*S    EENTRO =        -0.06774751
  eigenvalues    EBANDS =       -28.80246478
  atomic energy  EATOM  =      3701.96848987
  ---------------------------------------------------
  free energy    TOTEN  =     -9251.31655237 eV

  energy without entropy =    -9251.24880486  energy(sigma->0) =    -9251.28267861
  exchange ACFDT corr.  =         0.00000000  see jH, gK, PRB 81, 115126


--------------------------------------------------------------------------------------------------------




--------------------------------------- Iteration      1(   2)  ---------------------------------------


    TRIAL :  cpu time      1.9215: real time      1.9220
    CORREC:  cpu time      0.0003: real time      0.0003
    --------------------------------------------
      LOOP:  cpu time      1.9271: real time      1.9301

 eigenvalue-minimisations  :   384
 total energy-change (2. order) :-0.4091457E+03  (-0.4076972E+03)
 number of electron      44.0000000 magnetization 
 augmentation part       44.0000000 magnetization 

 Free energy of the ion-electron system (eV)
  ---------------------------------------------------
  alpha Z        PSCENC =         2.32959210
  Ewald energy   TEWEN  =      1705.48734111
  -Hartree energ DENC   =     -5251.43012379
  -exchange      EXHF   =         0.00000000
  -V(xc)+E(xc)   XCENC  =        57.33052466
  PAW double counting   =      3496.39001341   -12934.52217745
  entropy T*S    EENTRO =        -0.00000000
  eigenvalues    EBANDS =      -438.01594186
  atomic energy  EATOM  =      3701.96848987
  ---------------------------------------------------
  free energy    TOTEN  =     -9660.46228194 eV

  energy without entropy =    -9660.46228194  energy(sigma->0) =    -9660.46228194
  exchange ACFDT corr.  =         0.00000000  see jH, gK, PRB 81, 115126


--------------------------------------------------------------------------------------------------------




--------------------------------------- Iteration      1(   3)  ---------------------------------------


    TRIAL :  cpu time      0.5409: real time      0.5410
    CORREC:  cpu time      0.0003: real time      0.0003
    --------------------------------------------
      LOOP:  cpu time      0.5438: real time      0.5487

 eigenvalue-minimisations  :   192
 total energy-change (2. order) :-0.9413429E+01  (-0.9413270E+01)
 number of electron      44.0000000 magnetization 
 augmentation part       44.0000000 magnetization 

 Free energy of the ion-electron system (eV)
  ---------------------------------------------------
  alpha Z        PSCENC =         2.32959210
  Ewald energy   TEWEN  =      1705.48734111
  -Hartree energ DENC   =     -5251.43012379
  -exchange      EXHF   =         0.00000000
  -V(xc)+E(xc)   XCENC  =        57.33052466
  PAW double counting   =      3496.39001341   -12934.52217745
  entropy T*S    EENTRO =        -0.00000000
  eigenvalues    EBANDS =      -447.42937056
  atomic energy  EATOM  =      3701.96848987
  ---------------------------------------------------
  free energy    TOTEN  =     -9669.87571064 eV

  energy without entropy =    -9669.87571064  energy(sigma->0) =    -9669.87571064
  exchange ACFDT corr.  =         0.00000000  see jH, gK, PRB 81, 115126


--------------------------------------------------------------------------------------------------------




--------------------------------------- Iteration      1(   4)  ---------------------------------------


    TRIAL :  cpu time      1.8465: real time      1.8468
    CORREC:  cpu time      0.0003: real time      0.0003
    --------------------------------------------
      LOOP:  cpu time      1.8539: real time      1.8545

 eigenvalue-minimisations  :   384
 total energy-change (2. order) :-0.5379902E-01  (-0.5379825E-01)
 number of electron      44.0000000 magnetization 
 augmentation part       44.0000000 magnetization 

 Free energy of the ion-electron system (eV)
  ---------------------------------------------------
  alpha Z        PSCENC =         2.32959210
  Ewald energy   TEWEN  =      1705.48734111
  -Hartree energ DENC   =     -5251.43012379
  -exchange      EXHF   =         0.00000000
  -V(xc)+E(xc)   XCENC  =        57.33052466
  PAW double counting   =      3496.39001341   -12934.52217745
  entropy T*S    EENTRO =        -0.00000000
  eigenvalues    EBANDS =      -447.48316959
  atomic energy  EATOM  =      3701.96848987
  ---------------------------------------------------
  free energy    TOTEN  =     -9669.92950966 eV

  energy without entropy =    -9669.92950966  energy(sigma->0) =    -9669.92950966
  exchange ACFDT corr.  =         0.00000000  see jH, gK, PRB 81, 115126


--------------------------------------------------------------------------------------------------------




--------------------------------------- Iteration      1(   5)  ---------------------------------------


    POTLOK:  cpu time      0.0973: real time      0.0975
    SETDIJ:  cpu time      0.1763: real time      0.1763
    TRIAL :  cpu time      8.6366: real time      8.6422
    CORREC:  cpu time      0.0003: real time      0.0003
    CHARGE:  cpu time      0.0965: real time      0.0967
    --------------------------------------------
      LOOP:  cpu time      9.0112: real time      9.0203

 eigenvalue-minimisations  :   288
 total energy-change (2. order) : 0.9661686E+04  (-0.4259702E+01)
 number of electron      44.0000001 magnetization 
 augmentation part       16.7503683 magnetization 

 Free energy of the ion-electron system (eV)
  ---------------------------------------------------
  alpha Z        PSCENC =         2.32959210
  Ewald energy   TEWEN  =      1705.48734111
  -Hartree energ DENC   =     -5251.43012379
  -exchange      EXHF   =       104.12374812
  -V(xc)+E(xc)   XCENC  =        43.78783368
  PAW double counting   =      3509.30231918    -3422.21618814
  entropy T*S    EENTRO =        -0.00000000
  eigenvalues    EBANDS =      -401.59700284
  atomic energy  EATOM  =      3701.96848987
  ---------------------------------------------------
  free energy    TOTEN  =        -8.24399070 eV

  energy without entropy =       -8.24399070  energy(sigma->0) =       -8.24399070
  exchange ACFDT corr.  =        -0.00000000  see jH, gK, PRB 81, 115126


--------------------------------------------------------------------------------------------------------




--------------------------------------- Iteration      1(   6)  ---------------------------------------


    POTLOK:  cpu time      0.1007: real time      0.1009
    SETDIJ:  cpu time      0.1811: real time      0.1815
    TRIAL :  cpu time      9.0293: real time      9.0360
    CORREC:  cpu time      8.1550: real time      8.1618
    CHARGE:  cpu time      0.0934: real time      0.0937
    --------------------------------------------
      LOOP:  cpu time     17.5675: real time     17.5821

 eigenvalue-minimisations  :     0
 total energy-change (2. order) : 0.9649718E+00  (-0.9348822E+00)
 number of electron      44.0000001 magnetization 
 augmentation part       16.4987742 magnetization 

 Free energy of the ion-electron system (eV)
  ---------------------------------------------------
  alpha Z        PSCENC =         2.32959210
  Ewald energy   TEWEN  =      1705.48734111
  -Hartree energ DENC   =     -5333.26849592
  -exchange      EXHF   =        99.93869619
  -V(xc)+E(xc)   XCENC  =        44.77388679
  PAW double counting   =      4332.39210281    -4249.20450261
  entropy T*S    EENTRO =        -0.00000000
  eigenvalues    EBANDS =      -311.69612929
  atomic energy  EATOM  =      3701.96848987
  ---------------------------------------------------
  free energy    TOTEN  =        -7.27901893 eV

  energy without entropy =       -7.27901893  energy(sigma->0) =       -7.27901893
  exchange ACFDT corr.  =        -0.00000000  see jH, gK, PRB 81, 115126


--------------------------------------------------------------------------------------------------------




--------------------------------------- Iteration      1(   7)  ---------------------------------------


    POTLOK:  cpu time      0.1082: real time      0.1082
    SETDIJ:  cpu time      0.1749: real time      0.1749
    TRIAL :  cpu time      7.9373: real time      7.9441
    CORREC:  cpu time      8.1645: real time      8.1717
    CHARGE:  cpu time      0.0943: real time      0.0949
    --------------------------------------------
      LOOP:  cpu time     16.4873: real time     16.5022

 eigenvalue-minimisations  :     0
 total energy-change (2. order) :-0.9417511E+00  (-0.1108481E+00)
 number of electron      44.0000001 magnetization 
 augmentation part       16.5497990 magnetization 

 Free energy of the ion-electron system (eV)
  ---------------------------------------------------
  alpha Z        PSCENC =         2.32959210
  Ewald energy   TEWEN  =      1705.48734111
  -Hartree energ DENC   =     -5265.15497718
  -exchange      EXHF   =        98.78561591
  -V(xc)+E(xc)   XCENC  =        43.63969275
  PAW double counting   =      4234.84030736    -4152.06069527
  entropy T*S    EENTRO =        -0.00000000
  eigenvalues    EBANDS =      -378.05613665
  atomic energy  EATOM  =      3701.96848987
  ---------------------------------------------------
  free energy    TOTEN  =        -8.22077000 eV

  energy without entropy =       -8.22077000  energy(sigma->0) =       -8.22077000
  exchange ACFDT corr.  =        -0.00000000  see jH, gK, PRB 81, 115126


--------------------------------------------------------------------------------------------------------




--------------------------------------- Iteration      1(   8)  ---------------------------------------


    POTLOK:  cpu time      0.0993: real time      0.0994
    SETDIJ:  cpu time      0.1823: real time      0.1823
    TRIAL :  cpu time      8.0146: real time      8.0209
    CORREC:  cpu time      8.1619: real time      8.1691
    CHARGE:  cpu time      0.0928: real time      0.0931
    --------------------------------------------
      LOOP:  cpu time     16.5589: real time     16.5730

 eigenvalue-minimisations  :     0
 total energy-change (2. order) :-0.1108304E+00  (-0.4581382E-01)
 number of electron      44.0000001 magnetization 
 augmentation part       16.5009582 magnetization 

 Free energy of the ion-electron system (eV)
  ---------------------------------------------------
  alpha Z        PSCENC =         2.32959210
  Ewald energy   TEWEN  =      1705.48734111
  -Hartree energ DENC   =     -5269.53487480
  -exchange      EXHF   =        98.98898949
  -V(xc)+E(xc)   XCENC  =        43.85636992
  PAW double counting   =      4233.88105807    -4150.96559588
  entropy T*S    EENTRO =        -0.00000000
  eigenvalues    EBANDS =      -374.34297029
  atomic energy  EATOM  =      3701.96848987
  ---------------------------------------------------
  free energy    TOTEN  =        -8.33160040 eV

  energy without entropy =       -8.33160040  energy(sigma->0) =       -8.33160040
  exchange ACFDT corr.  =        -0.00000000  see jH, gK, PRB 81, 115126


--------------------------------------------------------------------------------------------------------




--------------------------------------- Iteration      1(   9)  ---------------------------------------


    POTLOK:  cpu time      0.0996: real time      0.0997
    SETDIJ:  cpu time      0.1819: real time      0.1819
    TRIAL :  cpu time      7.9405: real time      7.9476
    CORREC:  cpu time      8.2770: real time      8.2845
    CHARGE:  cpu time      0.0934: real time      0.0938
    --------------------------------------------
      LOOP:  cpu time     16.5963: real time     16.6156

 eigenvalue-minimisations  :     0
 total energy-change (2. order) :-0.4542196E-01  (-0.1669738E-01)
 number of electron      44.0000001 magnetization 
 augmentation part       16.5082425 magnetization 

 Free energy of the ion-electron system (eV)
  ---------------------------------------------------
  alpha Z        PSCENC =         2.32959210
  Ewald energy   TEWEN  =      1705.48734111
  -Hartree energ DENC   =     -5264.37790559
  -exchange      EXHF   =        98.82488442
  -V(xc)+E(xc)   XCENC  =        43.70274033
  PAW double counting   =      4226.16848120    -4143.44798888
  entropy T*S    EENTRO =        -0.00000000
  eigenvalues    EBANDS =      -379.03265693
  atomic energy  EATOM  =      3701.96848987
  ---------------------------------------------------
  free energy    TOTEN  =        -8.37702236 eV

  energy without entropy =       -8.37702236  energy(sigma->0) =       -8.37702236
  exchange ACFDT corr.  =        -0.00000000  see jH, gK, PRB 81, 115126


--------------------------------------------------------------------------------------------------------




--------------------------------------- Iteration      1(  10)  ---------------------------------------


    POTLOK:  cpu time      0.1012: real time      0.1012
    SETDIJ:  cpu time      0.1797: real time      0.1797
    TRIAL :  cpu time      7.9829: real time      7.9900
    CORREC:  cpu time      8.1854: real time      8.1922
    CHARGE:  cpu time      0.0945: real time      0.0948
    --------------------------------------------
      LOOP:  cpu time     16.5518: real time     16.5664

 eigenvalue-minimisations  :     0
 total energy-change (2. order) :-0.1669252E-01  (-0.4731847E-02)
 number of electron      44.0000001 magnetization 
 augmentation part       16.5093300 magnetization 

 Free energy of the ion-electron system (eV)
  ---------------------------------------------------
  alpha Z        PSCENC =         2.32959210
  Ewald energy   TEWEN  =      1705.48734111
  -Hartree energ DENC   =     -5262.95145448
  -exchange      EXHF   =        98.81481648
  -V(xc)+E(xc)   XCENC  =        43.69636607
  PAW double counting   =      4228.30331177    -4145.57368609
  entropy T*S    EENTRO =        -0.00000000
  eigenvalues    EBANDS =      -380.46849172
  atomic energy  EATOM  =      3701.96848987
  ---------------------------------------------------
  free energy    TOTEN  =        -8.39371488 eV

  energy without entropy =       -8.39371488  energy(sigma->0) =       -8.39371488
  exchange ACFDT corr.  =        -0.00000000  see jH, gK, PRB 81, 115126


--------------------------------------------------------------------------------------------------------




--------------------------------------- Iteration      1(  11)  ---------------------------------------


    POTLOK:  cpu time      0.0992: real time      0.0992
    SETDIJ:  cpu time      0.1793: real time      0.1796
    TRIAL :  cpu time      7.9821: real time      7.9889
    CORREC:  cpu time      8.1721: real time      8.1800
    CHARGE:  cpu time      0.0947: real time      0.0949
    --------------------------------------------
      LOOP:  cpu time     16.5310: real time     16.5512

 eigenvalue-minimisations  :     0
 total energy-change (2. order) :-0.4728252E-02  (-0.1829995E-02)
 number of electron      44.0000001 magnetization 
 augmentation part       16.5038502 magnetization 

 Free energy of the ion-electron system (eV)
  ---------------------------------------------------
  alpha Z        PSCENC =         2.32959210
  Ewald energy   TEWEN  =      1705.48734111
  -Hartree energ DENC   =     -5262.88878573
  -exchange      EXHF   =        98.80798156
  -V(xc)+E(xc)   XCENC  =        43.69375981
  PAW double counting   =      4228.63677682    -4145.91988249
  entropy T*S    EENTRO =        -0.00000000
  eigenvalues    EBANDS =      -380.51371620
  atomic energy  EATOM  =      3701.96848987
  ---------------------------------------------------
  free energy    TOTEN  =        -8.39844313 eV

  energy without entropy =       -8.39844313  energy(sigma->0) =       -8.39844313
  exchange ACFDT corr.  =        -0.00000000  see jH, gK, PRB 81, 115126


--------------------------------------------------------------------------------------------------------




--------------------------------------- Iteration      1(  12)  ---------------------------------------


    POTLOK:  cpu time      0.0998: real time      0.0999
    SETDIJ:  cpu time      0.1778: real time      0.1778
    TRIAL :  cpu time      7.9294: real time      7.9364
    CORREC:  cpu time      8.1956: real time      8.2030
    CHARGE:  cpu time      0.0939: real time      0.0941
    --------------------------------------------
      LOOP:  cpu time     16.5044: real time     16.5193

 eigenvalue-minimisations  :     0
 total energy-change (2. order) :-0.1831597E-02  (-0.5123181E-03)
 number of electron      44.0000001 magnetization 
 augmentation part       16.5022665 magnetization 

 Free energy of the ion-electron system (eV)
  ---------------------------------------------------
  alpha Z        PSCENC =         2.32959210
  Ewald energy   TEWEN  =      1705.48734111
  -Hartree energ DENC   =     -5262.27065297
  -exchange      EXHF   =        98.79234013
  -V(xc)+E(xc)   XCENC  =        43.68070928
  PAW double counting   =      4227.22036343    -4144.53739246
  entropy T*S    EENTRO =        -0.00000000
  eigenvalues    EBANDS =      -381.07106523
  atomic energy  EATOM  =      3701.96848987
  ---------------------------------------------------
  free energy    TOTEN  =        -8.40027473 eV

  energy without entropy =       -8.40027473  energy(sigma->0) =       -8.40027473
  exchange ACFDT corr.  =        -0.00000000  see jH, gK, PRB 81, 115126


--------------------------------------------------------------------------------------------------------




--------------------------------------- Iteration      1(  13)  ---------------------------------------


    POTLOK:  cpu time      0.0968: real time      0.0969
    SETDIJ:  cpu time      0.1797: real time      0.1800
    TRIAL :  cpu time      8.0349: real time      8.0421
    CORREC:  cpu time      8.1715: real time      8.1792
    CHARGE:  cpu time      0.0927: real time      0.0930
    --------------------------------------------
      LOOP:  cpu time     16.5780: real time     16.5987

 eigenvalue-minimisations  :     0
 total energy-change (2. order) :-0.5128674E-03  (-0.1846420E-03)
 number of electron      44.0000001 magnetization 
 augmentation part       16.5030952 magnetization 

 Free energy of the ion-electron system (eV)
  ---------------------------------------------------
  alpha Z        PSCENC =         2.32959210
  Ewald energy   TEWEN  =      1705.48734111
  -Hartree energ DENC   =     -5262.19825669
  -exchange      EXHF   =        98.78988419
  -V(xc)+E(xc)   XCENC  =        43.67873708
  PAW double counting   =      4226.87681015    -4144.20547678
  entropy T*S    EENTRO =        -0.00000000
  eigenvalues    EBANDS =      -381.12790863
  atomic energy  EATOM  =      3701.96848987
  ---------------------------------------------------
  free energy    TOTEN  =        -8.40078760 eV

  energy without entropy =       -8.40078760  energy(sigma->0) =       -8.40078760
  exchange ACFDT corr.  =        -0.00000000  see jH, gK, PRB 81, 115126


--------------------------------------------------------------------------------------------------------




--------------------------------------- Iteration      1(  14)  ---------------------------------------


    POTLOK:  cpu time      0.0991: real time      0.0991
    SETDIJ:  cpu time      0.1791: real time      0.1791
    TRIAL :  cpu time      7.9858: real time      7.9927
    CORREC:  cpu time      8.1915: real time      8.1985
    CHARGE:  cpu time      0.0952: real time      0.0959
    --------------------------------------------
      LOOP:  cpu time     16.5581: real time     16.5731

 eigenvalue-minimisations  :     0
 total energy-change (2. order) :-0.1836536E-03  (-0.6052837E-04)
 number of electron      44.0000001 magnetization 
 augmentation part       16.5018003 magnetization 

 Free energy of the ion-electron system (eV)
  ---------------------------------------------------
  alpha Z        PSCENC =         2.32959210
  Ewald energy   TEWEN  =      1705.48734111
  -Hartree energ DENC   =     -5262.34761798
  -exchange      EXHF   =        98.79491566
  -V(xc)+E(xc)   XCENC  =        43.68325339
  PAW double counting   =      4227.01631861    -4144.34521321
  entropy T*S    EENTRO =        -0.00000000
  eigenvalues    EBANDS =      -380.98805082
  atomic energy  EATOM  =      3701.96848987
  ---------------------------------------------------
  free energy    TOTEN  =        -8.40097125 eV

  energy without entropy =       -8.40097125  energy(sigma->0) =       -8.40097125
  exchange ACFDT corr.  =        -0.00000000  see jH, gK, PRB 81, 115126


--------------------------------------------------------------------------------------------------------




--------------------------------------- Iteration      1(  15)  ---------------------------------------


    POTLOK:  cpu time      0.0960: real time      0.0961
    SETDIJ:  cpu time      0.1794: real time      0.1794
    TRIAL :  cpu time      7.9731: real time      7.9921
    CORREC:  cpu time      8.1625: real time      8.1676
    CHARGE:  cpu time      0.0941: real time      0.0944
    --------------------------------------------
      LOOP:  cpu time     16.5083: real time     16.5373

 eigenvalue-minimisations  :     0
 total energy-change (2. order) :-0.6091701E-04  (-0.2354410E-04)
 number of electron      44.0000001 magnetization 
 augmentation part       16.5024266 magnetization 

 Free energy of the ion-electron system (eV)
  ---------------------------------------------------
  alpha Z        PSCENC =         2.32959210
  Ewald energy   TEWEN  =      1705.48734111
  -Hartree energ DENC   =     -5262.18424436
  -exchange      EXHF   =        98.79115508
  -V(xc)+E(xc)   XCENC  =        43.67915744
  PAW double counting   =      4226.71964849    -4144.05283232
  entropy T*S    EENTRO =        -0.00000000
  eigenvalues    EBANDS =      -381.13933959
  atomic energy  EATOM  =      3701.96848987
  ---------------------------------------------------
  free energy    TOTEN  =        -8.40103217 eV

  energy without entropy =       -8.40103217  energy(sigma->0) =       -8.40103217
  exchange ACFDT corr.  =        -0.00000000  see jH, gK, PRB 81, 115126


--------------------------------------------------------------------------------------------------------




--------------------------------------- Iteration      1(  16)  ---------------------------------------


    POTLOK:  cpu time      0.0993: real time      0.0993
    SETDIJ:  cpu time      0.1775: real time      0.1775
    TRIAL :  cpu time      7.9650: real time      7.9699
    CORREC:  cpu time      8.1384: real time      8.1437
    CHARGE:  cpu time      0.0947: real time      0.0950
    --------------------------------------------
      LOOP:  cpu time     16.4822: real time     16.4931

 eigenvalue-minimisations  :     0
 total energy-change (2. order) :-0.2333379E-04  (-0.6732711E-05)
 number of electron      44.0000001 magnetization 
 augmentation part       16.5023026 magnetization 

 Free energy of the ion-electron system (eV)
  ---------------------------------------------------
  alpha Z        PSCENC =         2.32959210
  Ewald energy   TEWEN  =      1705.48734111
  -Hartree energ DENC   =     -5262.33211518
  -exchange      EXHF   =        98.79457916
  -V(xc)+E(xc)   XCENC  =        43.68231847
  PAW double counting   =      4226.88410162    -4144.21614009
  entropy T*S    EENTRO =        -0.00000000
  eigenvalues    EBANDS =      -380.99922257
  atomic energy  EATOM  =      3701.96848987
  ---------------------------------------------------
  free energy    TOTEN  =        -8.40105550 eV

  energy without entropy =       -8.40105550  energy(sigma->0) =       -8.40105550
  exchange ACFDT corr.  =        -0.00000000  see jH, gK, PRB 81, 115126


--------------------------------------------------------------------------------------------------------




--------------------------------------- Iteration      1(  17)  ---------------------------------------


    POTLOK:  cpu time      0.0983: real time      0.0984
    SETDIJ:  cpu time      0.1789: real time      0.1789
    TRIAL :  cpu time      7.9698: real time      7.9742
    CORREC:  cpu time      8.1915: real time      8.1962
    CHARGE:  cpu time      0.0941: real time      0.0944
    --------------------------------------------
      LOOP:  cpu time     16.5405: real time     16.5502

 eigenvalue-minimisations  :     0
 total energy-change (2. order) :-0.6750263E-05  (-0.1624293E-05)
 number of electron      44.0000001 magnetization 
 augmentation part       16.5022236 magnetization 

 Free energy of the ion-electron system (eV)
  ---------------------------------------------------
  alpha Z        PSCENC =         2.32959210
  Ewald energy   TEWEN  =      1705.48734111
  -Hartree energ DENC   =     -5262.31860369
  -exchange      EXHF   =        98.79438437
  -V(xc)+E(xc)   XCENC  =        43.68207513
  PAW double counting   =      4226.83354971    -4144.16593339
  entropy T*S    EENTRO =        -0.00000000
  eigenvalues    EBANDS =      -381.01195747
  atomic energy  EATOM  =      3701.96848987
  ---------------------------------------------------
  free energy    TOTEN  =        -8.40106225 eV

  energy without entropy =       -8.40106225  energy(sigma->0) =       -8.40106225
  exchange ACFDT corr.  =        -0.00000000  see jH, gK, PRB 81, 115126


--------------------------------------------------------------------------------------------------------




--------------------------------------- Iteration      1(  18)  ---------------------------------------


    POTLOK:  cpu time      0.0969: real time      0.0969
    SETDIJ:  cpu time      0.1804: real time      0.1805
    TRIAL :  cpu time      7.9664: real time      7.9710
    CORREC:  cpu time      8.1398: real time      8.1452
    CHARGE:  cpu time      0.0949: real time      0.0952
    --------------------------------------------
      LOOP:  cpu time     16.4842: real time     16.4971

 eigenvalue-minimisations  :     0
 total energy-change (2. order) :-0.1635897E-05  (-0.5991348E-06)
 number of electron      44.0000001 magnetization 
 augmentation part       16.5022805 magnetization 

 Free energy of the ion-electron system (eV)
  ---------------------------------------------------
  alpha Z        PSCENC =         2.32959210
  Ewald energy   TEWEN  =      1705.48734111
  -Hartree energ DENC   =     -5262.31277713
  -exchange      EXHF   =        98.79429734
  -V(xc)+E(xc)   XCENC  =        43.68198095
  PAW double counting   =      4226.81106788    -4144.14379445
  entropy T*S    EENTRO =        -0.00000000
  eigenvalues    EBANDS =      -381.01726158
  atomic energy  EATOM  =      3701.96848987
  ---------------------------------------------------
  free energy    TOTEN  =        -8.40106389 eV

  energy without entropy =       -8.40106389  energy(sigma->0) =       -8.40106389
  exchange ACFDT corr.  =        -0.00000000  see jH, gK, PRB 81, 115126


--------------------------------------------------------------------------------------------------------




--------------------------------------- Iteration      1(  19)  ---------------------------------------


    POTLOK:  cpu time      0.0966: real time      0.0966
    SETDIJ:  cpu time      0.1800: real time      0.1800
    TRIAL :  cpu time      8.0015: real time      8.0064
    CORREC:  cpu time      8.1470: real time      8.1522
    EDDIAG:  cpu time      7.7732: real time      7.7786
    CHARGE:  cpu time      0.0944: real time      0.0946
    --------------------------------------------
      LOOP:  cpu time     24.2970: real time     24.3170

 eigenvalue-minimisations  :     0
 total energy-change (2. order) :-0.5336337E-06  (-0.1150731E-06)
 number of electron      44.0000001 magnetization 
 augmentation part       16.5022371 magnetization 

 Free energy of the ion-electron system (eV)
  ---------------------------------------------------
  alpha Z        PSCENC =         2.32959210
  Ewald energy   TEWEN  =      1705.48734111
  -Hartree energ DENC   =     -5262.33893359
  -exchange      EXHF   =        98.79448442
  -V(xc)+E(xc)   XCENC  =        43.68235673
  PAW double counting   =      4226.84466163    -4144.17743120
  entropy T*S    EENTRO =        -0.00000000
  eigenvalues    EBANDS =      -380.99180499
  atomic energy  EATOM  =      3701.96848987
  ---------------------------------------------------
  free energy    TOTEN  =        -8.40106442 eV

  energy without entropy =       -8.40106442  energy(sigma->0) =       -8.40106442
  exchange ACFDT corr.  =        -0.00000000  see jH, gK, PRB 81, 115126


--------------------------------------------------------------------------------------------------------


  average scaling for gradient   0.9909


 average (electrostatic) potential at core
  the test charge radii are     1.2098
  (the norm of the test charge is              1.0000)
       1 -71.0489       2 -71.0489       3 -70.4911       4 -70.4912



 E-fermi :  -5.6839     XC(G=0):  -0.2205     alpha+bet : -0.1187

 Fermi energy:        -5.6839008838

 k-point     1 :       0.0000    0.0000    0.0000
  band No.  band energies     occupation 
      1     -11.1302      2.00000
      2     -10.9976      2.00000
      3     -10.2356      2.00000
      4     -10.1076      2.00000
      5      -9.9545      2.00000
      6      -9.6431      2.00000
      7      -9.2999      2.00000
      8      -9.1684      2.00000
      9      -8.5985      2.00000
     10      -8.3915      2.00000
     11      -8.3372      2.00000
     12      -8.3144      2.00000
     13      -8.1782      2.00000
     14      -8.1508      2.00000
     15      -8.1334      2.00000
     16      -7.8168      2.00000
     17      -7.7941      2.00000
     18      -7.7645      2.00000
     19      -7.7371      2.00000
     20      -7.7128      2.00000
     21      -7.1052      2.00000
     22      -5.9314      2.00000
     23      -3.6184      0.00000
     24      -2.4611      0.00000
     25      -1.2260      0.00000
     26      -0.5213      0.00000
     27      -0.4926      0.00000
     28       0.0459      0.00000
     29       0.1571      0.00000
     30       0.2922      0.00000
     31       0.4263      0.00000
     32       0.4709      0.00000
     33       0.4975      0.00000
     34       0.5412      0.00000
     35       0.5822      0.00000
     36       0.6027      0.00000
     37       0.7129      0.00000
     38       0.7724      0.00000
     39       0.7923      0.00000
     40       0.8158      0.00000
     41       0.8200      0.00000
     42       0.8210      0.00000
     43       0.8387      0.00000
     44       0.8577      0.00000
     45       0.9111      0.00000
     46       0.9284      0.00000
     47       0.9391      0.00000
     48       1.0528      0.00000
     49       1.0608      0.00000
     50       1.1855      0.00000
     51       1.1879      0.00000
     52       1.1916      0.00000
     53       1.2225      0.00000
     54       1.2308      0.00000
     55       1.2542      0.00000
     56       1.4041      0.00000
     57       1.4360      0.00000
     58       1.5019      0.00000
     59       1.5735      0.00000
     60       1.5768      0.00000
     61       1.6036      0.00000
     62       1.6655      0.00000
     63       1.6710      0.00000
     64       1.6828      0.00000
     65       1.6831      0.00000
     66       1.8777      0.00000
     67       1.8798      0.00000
     68       1.8904      0.00000
     69       1.9080      0.00000
     70       1.9177      0.00000
     71       1.9293      0.00000
     72       1.9330      0.00000
     73       1.9436      0.00000
     74       1.9466      0.00000
     75       1.9492      0.00000
     76       1.9642      0.00000
     77       1.9677      0.00000
     78       1.9717      0.00000
     79       1.9732      0.00000
     80       1.9789      0.00000
     81       2.0166      0.00000
     82       2.0328      0.00000
     83       2.0674      0.00000
     84       2.0786      0.00000
     85       2.0846      0.00000
     86       2.1604      0.00000
     87       2.1894      0.00000
     88       2.1897      0.00000
     89       2.2236      0.00000
     90       2.2620      0.00000
     91       2.2762      0.00000
     92       2.2791      0.00000
     93       2.2803      0.00000
     94       2.2976      0.00000
     95       2.3089      0.00000
     96       2.3263      0.00000


--------------------------------------------------------------------------------------------------------


 soft charge-density along one line, spin component           1
         0         1         2         3         4         5         6         7         8         9
 total charge-density along one line

 pseudopotential strength for first ion, spin component:           1
 -8.297  -0.009   0.022  -0.003  -0.000  -8.457  -0.009   0.021
 -0.009  -8.324  -0.006  -0.030   0.004  -0.009  -8.484  -0.006
  0.022  -0.006  -8.337  -0.014   0.002   0.021  -0.006  -8.496
 -0.003  -0.030  -0.014  -8.333  -0.015  -0.003  -0.029  -0.013
 -0.000   0.004   0.002  -0.015  -8.286  -0.000   0.004   0.002
 -8.457  -0.009   0.021  -0.003  -0.000  -8.601  -0.009   0.020
 -0.009  -8.484  -0.006  -0.029   0.004  -0.009  -8.627  -0.006
  0.021  -0.006  -8.496  -0.013   0.002   0.020  -0.006  -8.639
 -0.003  -0.029  -0.013  -8.492  -0.015  -0.003  -0.028  -0.013
 -0.000   0.004   0.002  -0.015  -8.447  -0.000   0.004   0.002
  0.033  -0.004   0.020   0.006   0.002   0.033  -0.004   0.020
  0.049  -0.007   0.028   0.008   0.003   0.049  -0.007   0.028
  0.016   0.032  -0.006  -0.000  -0.012   0.016   0.031  -0.006
 -0.000   0.012   0.036   0.018   0.000  -0.000   0.012   0.035
  0.011  -0.000  -0.009   0.032   0.017   0.010  -0.000  -0.009
  0.018   0.035  -0.005  -0.000  -0.013   0.017   0.035  -0.005
 -0.000   0.015   0.040   0.021   0.000  -0.000   0.015   0.039
  0.011  -0.000  -0.009   0.036   0.019   0.011  -0.000  -0.009
 total augmentation occupancy for first ion, spin component:           1
  3.540   0.222  -0.500   0.177   0.060  -1.434  -0.163   0.516  -0.126  -0.059  -1.716   0.560   0.184  -0.013   0.185   0.012
  0.222   3.515  -0.259   0.437   0.093  -0.164  -1.433   0.213  -0.589  -0.101   0.236  -0.037   0.155  -0.032   0.116   0.029
 -0.500  -0.259   4.245  -0.039  -0.050   0.516   0.213  -2.130  -0.038   0.044  -0.998   0.362  -0.189   0.338  -0.160  -0.006
  0.177   0.437  -0.039   3.563   0.066  -0.127  -0.589  -0.038  -1.515  -0.099  -0.289   0.147   0.100   0.049   0.151  -0.005
  0.060   0.093  -0.050   0.066   3.111  -0.059  -0.101   0.044  -0.099  -0.876  -0.117   0.045   0.012  -0.002   0.049  -0.013
 -1.434  -0.164   0.516  -0.127  -0.059   1.315   0.119  -0.531   0.088   0.058   1.557  -0.567  -0.198  -0.011  -0.196   0.006
 -0.163  -1.433   0.213  -0.589  -0.101   0.119   1.337  -0.175   0.713   0.106  -0.236   0.064  -0.182   0.014  -0.106   0.003
  0.516   0.213  -2.130  -0.038   0.044  -0.531  -0.175   2.009   0.100  -0.040   0.886  -0.342   0.174  -0.372   0.149  -0.002
 -0.126  -0.589  -0.038  -1.515  -0.099   0.088   0.713   0.100   1.446   0.128   0.233  -0.114  -0.095  -0.076  -0.183   0.004
 -0.059  -0.101   0.044  -0.099  -0.876   0.058   0.106  -0.040   0.128   0.653   0.102  -0.041   0.002  -0.001  -0.068   0.001
 -1.716   0.236  -0.998  -0.289  -0.117   1.557  -0.236   0.886   0.233   0.102   3.993  -1.441  -0.136  -0.378  -0.203   0.008
  0.560  -0.037   0.362   0.147   0.045  -0.567   0.064  -0.342  -0.114  -0.041  -1.441   0.525   0.051   0.143   0.077  -0.003
  0.184   0.155  -0.189   0.100   0.012  -0.198  -0.182   0.174  -0.095   0.002  -0.136   0.051   0.076  -0.029   0.057  -0.003
 -0.013  -0.032   0.338   0.049  -0.002  -0.011   0.014  -0.372  -0.076  -0.001  -0.378   0.143  -0.029   0.100  -0.018  -0.000
  0.185   0.116  -0.160   0.151   0.049  -0.196  -0.106   0.149  -0.183  -0.068  -0.203   0.077   0.057  -0.018   0.076  -0.001
  0.012   0.029  -0.006  -0.005  -0.013   0.006   0.003  -0.002   0.004   0.001   0.008  -0.003  -0.003  -0.000  -0.001   0.001
 -0.006   0.009   0.023   0.010  -0.001   0.006   0.000   0.012   0.005   0.001   0.022  -0.008  -0.000  -0.005  -0.001   0.000
  0.004  -0.005  -0.011   0.027   0.017   0.007   0.004  -0.000   0.004   0.001   0.012  -0.004  -0.001  -0.001  -0.003   0.000


------------------------ aborting loop because EDIFF is reached ----------------------------------------


    FORLOC:  cpu time      0.0022: real time      0.0022
    FORHF :  cpu time      1.4487: real time      1.4501
    FORNL :  cpu time      0.0940: real time      0.0940
    FORCOR:  cpu time      0.2446: real time      0.2446
    OFIELD:  cpu time      0.0002: real time      0.0002

  Hirshfeld charges:
            ion         q(e)     
   ------------------------------
      1     Au          0.098
      2     Au          0.098
      3     Au         -0.098
      4     Au         -0.098

  Hirshfeld-I charges:
            ion         q(e)        dq(e)    
   ------------------------------------------
      1     Au          0.198     -0.416E-04
      2     Au          0.198     -0.415E-04
      3     Au         -0.198      0.415E-04
      4     Au         -0.198      0.416E-04

   Hirshfeld-I converged in  11 cycles. Convergence criterion |dq|< 0.500E-04 e

  Atomic reference data used in the T-S method for vdW correction:
            C6at              R0at           ALPHAat      REFSTATE
            (au)              (au)            (au)                
   ---------------------------------------------------------------
   Au        298.000          3.855         36.500         0
 
 Nth order contribution to Edisp (eV)
 Edisp(N=2): -0.12206457069800861     
 Edisp(N=3):   2.2898232584046001E-003
 Edisp(N=4):  -1.4735473482849972E-003
 Edisp(N=5):   8.4338658193020883E-005
 Edisp(N=6):  -3.7618856609051749E-005
 Edisp(N=inf): -0.12119894450932797     

  Tkatchenko/Scheffler method for vdW energy calculation
  ---------------------------------------------------------------------------------------------

  Parameters of vdW forcefield:
            C6ts              R0ts          ALPHAts         R0scs        ALPHAscs        RELVOL 
            (au)              (au)           (au)            (au)          (au)                 
   ---------------------------------------------------------------------------------------------
   Au        251.896          3.749         33.558          3.682         31.809          0.919
   Au        251.908          3.749         33.559          3.682         31.810          0.919
   Au        353.124          3.966         39.733          3.933         38.749          1.089
   Au        353.145          3.966         39.734          3.933         38.750          1.089

  vdW correction parametrized for the method   A*  

  IVDW = 212
  VDW_RADIUS =    50.000 A
  VDW_SR =     0.850
  VDW_D =     6.000
  SCSRAD =   120.000 A
  LVDWSCS = T
  LSCSGRAD = T
  LSCALER0 = T
  ITIM = -1
  Edisp (eV):   -0.12120
    FORVDW:  cpu time     54.0040: real time     54.0079

 VOLUME and BASIS-vectors are now :
 -----------------------------------------------------------------------------
  energy-cutoff  :      520.00
  volume of cell :     8000.00
      direct lattice vectors                 reciprocal lattice vectors
    20.000000000  0.000000000  0.000000000     0.050000000  0.000000000  0.000000000
     0.000000000 20.000000000  0.000000000     0.000000000  0.050000000  0.000000000
     0.000000000  0.000000000 20.000000000     0.000000000  0.000000000  0.050000000

  length of vectors
    20.000000000 20.000000000 20.000000000     0.050000000  0.050000000  0.050000000


 FORCES acting on ions:
    Electron-Ion                     Ewald-Force                    Non-Local-Force
 -----------------------------------------------------------------------------------------------
   -.225E+03 -.150E+03 -.417E+03   0.222E+03 0.148E+03 0.412E+03   0.259E+01 0.173E+01 0.483E+01
   0.225E+03 0.149E+03 0.417E+03   -.223E+03 -.148E+03 -.412E+03   -.260E+01 -.173E+01 -.482E+01
   0.292E+03 0.314E+03 -.270E+03   -.289E+03 -.310E+03 0.267E+03   -.367E+01 -.395E+01 0.340E+01
   -.293E+03 -.313E+03 0.270E+03   0.289E+03 0.309E+03 -.267E+03   0.368E+01 0.393E+01 -.340E+01
 -----------------------------------------------------------------------------------------------
   -.872E-02 0.101E-01 0.164E-02   0.000E+00 0.000E+00 0.000E+00   0.621E-02 -.887E-02 -.106E-02


 POSITION                                       TOTAL-FORCE (eV/Angst)
 -----------------------------------------------------------------------------------
      0.58982      0.39443      1.09602         0.006390      0.004872      0.015316
     19.40825     19.60762     18.90421        -0.005047     -0.006631     -0.015253
     18.65965     18.56233      1.23826        -0.081235     -0.085704      0.077406
      1.34228      1.43562     18.76151         0.079892      0.087463     -0.077470
 -----------------------------------------------------------------------------------
    total drift:                               -0.001153      0.000245      0.000330


--------------------------------------------------------------------------------------------------------



  FREE ENERGIE OF THE ION-ELECTRON SYSTEM (eV)
  ---------------------------------------------------
  free  energy   TOTEN  =        -8.52226337 eV

  energy  without entropy=       -8.52226337  energy(sigma->0) =       -8.52226337



--------------------------------------------------------------------------------------------------------


    POTLOK:  cpu time      0.2760: real time      0.2760


--------------------------------------------------------------------------------------------------------


     LOOP+:  cpu time    310.5073: real time    310.7688
    4ORBIT:  cpu time      0.0000: real time      0.0000

 total amount of memory used by VASP MPI-rank0   953064. kBytes
=======================================================================

   base      :      30000. kBytes
   nonlr-proj:       2758. kBytes
   fftplans  :      48991. kBytes
   grid      :      38630. kBytes
   one-center:         15. kBytes
   HF        :         64. kBytes
   wavefun   :       2592. kBytes
   fock_wrk  :     830014. kBytes

  
  
 General timing and accounting informations for this job:
 ========================================================
  
                  Total CPU time used (sec):      332.448
                            User time (sec):      316.849
                          System time (sec):       15.599
                         Elapsed time (sec):      334.891
  
                   Maximum memory used (kb):     1666584.
                   Average memory used (kb):          N/A
  
                          Minor page faults:      1876784
                          Major page faults:            0
                 Voluntary context switches:        17603
