 **********************************************************************
                          MRCC program system
 **********************************************************************
 
                              Written by
     Mihaly Kallay, Peter R. Nagy, David Mester, Laszlo Gyevi-Nagy,
        Jozsef Csoka, P. Bernat Szabo, Zoltan Rolik, Gyula Samu,
     Jozsef Csontos, Bence Hegely, Adam Ganyecz, Istvan Ladjanszki,
       Lorant Szegedy, Bence Ladoczki, Klara Petrov, Mate Farkas,
                    Pal D. Mezei, and Reka A. Horvath
 
        Department of Physical Chemistry and Materials Science
            Budapest University of Technology and Economics
                  Budapest P.O.Box 91, H-1521 Hungary
 
                              www.mrcc.hu
 
                      Release date: March 18, 2022

 ************************ 2022-11-11 19:49:49 *************************
 Executing minp...

 Reading input from MINP...
 
 Input file:
 
calc=FNO-CCSD(T)
verbosity=3
mem=150GB
unit=angs
scfiguess=small
scfalg=locfit1
lcorthr=tight
ccmaxit=400
ccsdalg=dfdirect
ccsdthreads=4
ccsdmkl=thr
ptthreads=4
lnoepsv=1e-5
naf_cor=1e-2
ECP=MCDHF-ECP-60
basis=bse_ACVQZ
basis_sm=def2-SVP
dfbasis_scf=def2-QZVPP-RI-JK
dfbasis_cor=bse_ACVQZ_mp2fit
core=0
unit=angs
geom=xyz
    4
Au4
Au     1.34227618     0.43836662     1.24985019
Au     0.01522087    -0.14250087    -1.36303947
Au    -0.48346539    -1.30769546     1.36303947
Au    -1.34227618     1.30769546     0.19991232

ghost=serialno

 
 
 Checking keyword combinations...
 
 Keywords:
 
 active=none
 agrid=ld0006-ld0590
 agrid_pssp=ld0006-ld0194
 agrid_pssp_sm=ld0006-ld0074
 basis=bse_acvqz
 basis_sm=def2-svp
 basopt=off
 bfbasis=none
 bfgsmem=10
 bfgstol=1.0d-3
 bpcompo=0.985
 bpcompv=0.98
 bpdfo=0.985
 bpocc=0.985
 bppdo=0.985
 bppdv=0.98
 bpedo=0.985
 bpedv=0.98
 calc=ccsd(t)
 ccmaxit=400
 ccprog=ccsd
 ccsdalg=dfdirect
 ccsdmkl=thr
 ccsdrest=trf
 ccsdthreads=4
 cctol=6
 charge=0
 cialg=auto
 ciguess=off
 cmpgrp=auto
 comprest=off
 core=corr
 corembed=off
 csapprox=off
 cvs=off
 dboc=off
 delocsomofact=
 dendec=cholesky
 dens=0
 dfalg=lineq
 dfbasis_cab=none
 dfbasis_cor=bse_acvqz_mp2fit
 dfbasis_scf=def2-qzvpp-ri-jk
 dfbasis_scf_sm=def2-qzvpp-ri-jk
 dfintran=drpa
 dft=off
 dhexc=adc(2)
 diag=david
 docc=
 domrad=10.d0
 drpaalg=fit
 dual=off
 dual_df=off
 ecp=mcdhf-ecp-60
 edisp=off
 edisp_embed=off
 embed=off
 etemp=300
 epert=none
 eps=
 espcharge=off
 excrad=1.0
 excrad_fin=0.100000000D-02
 fitting=coulomb
 fmm=off
 fmmord=8
 freq=off
 gamma=1.d0
 gauss=spher
 geom=xyz
 gopt=off
 ghost=serialno
 gtol=7
 grdens=off
 gridbatch_cos=2000
 grtol=10
 guido_ct=off
 hamilton=dc
 iface=none
 intalg=auto
 itol=10
 laptol=1.d-3
 lccoporder=trffirst
 lcorthr=tight
 lccrest=off
 lmp2dens=on
 lnoepso=0.d0
 lnoepsv=1e-5
 boysalg=jacobi
 localcc=off
 localcorrsymm=off
 locintrf=disk
 mact=
 maxact=off
 maxdim=100
 maxex=0
 maxmicroit=100
 mcscfiguess=hf
 mem=150gb
 mmprog=
 molden=on
 mpitasks=1
 mulmet=0
 mult=
 nacto=0
 nactv=0
 naf_amp=1.d-2
 naf_cor=1e-2
 naf_scf=off
 nafalg=albe
 naftyp=
 nchol=auto
 ndeps=1e-3
 nstate=1
 nsing=0
 nto=off
 ntrip=0
 occ=
 occri=off
 oniom=off
 oniom_eechg=off
 oniom_pcm=off
 oniom_qcorr=off
 optalg=
 optmaxit=50
 optetol=1e-6
 optex=0
 optgtol=1e-4
 optstol=1e-3
 orblocc=off
 orbloce=off
 orbloco=off
 orblocv=off
 orblocguess=cholesky
 osveps=1e-4
 ovirt=ppl
 ovltol=1e-7
 ovosnorb=80.0
 pcm=off
 popul=off
 pressure=100000
 pssp=off
 ptfreq=0.0
 ptthreads=4
 qro=off
 qscf=off
 qmmm=off
 redcost_exc=off
 redcost_tddft=off
 refdet=none
 rest=0
 rgrid=log3
 rism=off
 rohfcore=semicanonical
 rohftype=semicanonical
 scfalg=locfit1
 scf_conv=difficult
 scfdamp=0.0d0
 scfdamp_mode=off
 scfdamp_end=50
 scfdamp_dampstep=0.d0
 scfdamp_dtol=0.0d0
 scfdamp_maxfact=0.0d0
 scfdamp_minfact=0.0d0
 scfdiis=on
 scfdiis_dtol=0.0d0
 scfdiis_end=50
 scfdiis_start=2
 scfdiis_step=1
 scfdiis_watch=off
 scfdiis_wrange=10
 scfdiis_wlimit=5
 scfdiis_delmax=2
 scfdtol=7
 scfext=10
 scfguessdens=
 scfiguess=small
 scfloc=pm
 scflshift=0.20
 scflshift_end=8
 scflshift_dtol=0.0
 scflshift_gaptol=0.20
 scfmaxit=50
 scftype=
 scftol=6
 scspe=1.d0
 scsph=1.d0
 scsps=1.2d0
 scsps_t=1.2d0
 scspt=0.33333333333333
 scspt_t=0.33333333333333
 scspv=1.d0
 spairtol=1e-5
 sqmprog=
 subminp=top
 symm=
 talg=occ
 temp=298.15
 test=off
 theodore=off
 tlmo=0.999
 tpao=0.94
 tprint=off
 uncontract=off
 unit=angs
 usedisk=2
 verbosity=3
 wpairtol=0.100000000E-06
 
 Calculating integrals for small-basis SCF...

 ************************ 2022-11-11 19:49:50 *************************
 Executing integ...

 Allocation of 150.0 Gbytes of memory...
 
 
 Number of atoms:                  4
 Charge:                           0
 Number of electrons:             76
 Number of core electrons:         0
 Spin multiplicity:                1
 
                 Cartesian coordinates [bohr]      Atomic mass [AMU]  Z
   1  Au    2.53653436    0.82839285    2.36187456   196.966543      79
   2  Au    0.02876328   -0.26928762   -2.57577130   196.966543      79
   3  Au   -0.91361718   -2.47118627    2.57577130   196.966543      79
   4  Au   -2.53653436    2.47118627    0.37777953   196.966543      79
 
 This molecule is an asymmetric top.
 
 Point group: C1  
 Computational point group: C1  
 
 Cartesian coordinates in standard orientation [bohr]
   1  Au    2.27932454   -1.72212867   -1.65242752
   2  Au   -2.26719807   -1.68826983    1.69453388
   3  Au    2.26933533    1.73120043    1.65074343
   4  Au   -2.28146180    1.67919807   -1.69284979
 
 Nuclear repulsion energy [au]:        405.981725271968
 
 
 Basis set information:
 
 Maximum angular momentum: i
 Maximum number of contracted Gaussians:   13
 Maximum number of primitive Gaussians:    13
 Spherical harmonic GTOs are used.
 
 
 Conventional basis set:
 
   1  Au def2-svp [ 7s 6p 5d 1f | 6s 3p 2d 1f ]
   2  Au def2-svp [ 7s 6p 5d 1f | 6s 3p 2d 1f ]
   3  Au def2-svp [ 7s 6p 5d 1f | 6s 3p 2d 1f ]
   4  Au def2-svp [ 7s 6p 5d 1f | 6s 3p 2d 1f ]
 
 Basis functions:
            1             2             3             4             5             6             7             8             9            10
    0    1Au1s         1Au2s         1Au3s         1Au4s         1Au5s         1Au6s         1Au1pz        1Au1py        1Au1px        1Au2pz    
    1    1Au2py        1Au2px        1Au3pz        1Au3py        1Au3px        1Au1d-2       1Au1d-1       1Au1d0        1Au1d+1       1Au1d+2   
    2    1Au2d-2       1Au2d-1       1Au2d0        1Au2d+1       1Au2d+2       1Au1f-3       1Au1f-2       1Au1f-1       1Au1f0        1Au1f+1   
    3    1Au1f+2       1Au1f+3       2Au1s         2Au2s         2Au3s         2Au4s         2Au5s         2Au6s         2Au1pz        2Au1py    
    4    2Au1px        2Au2pz        2Au2py        2Au2px        2Au3pz        2Au3py        2Au3px        2Au1d-2       2Au1d-1       2Au1d0    
    5    2Au1d+1       2Au1d+2       2Au2d-2       2Au2d-1       2Au2d0        2Au2d+1       2Au2d+2       2Au1f-3       2Au1f-2       2Au1f-1   
    6    2Au1f0        2Au1f+1       2Au1f+2       2Au1f+3       3Au1s         3Au2s         3Au3s         3Au4s         3Au5s         3Au6s     
    7    3Au1pz        3Au1py        3Au1px        3Au2pz        3Au2py        3Au2px        3Au3pz        3Au3py        3Au3px        3Au1d-2   
    8    3Au1d-1       3Au1d0        3Au1d+1       3Au1d+2       3Au2d-2       3Au2d-1       3Au2d0        3Au2d+1       3Au2d+2       3Au1f-3   
    9    3Au1f-2       3Au1f-1       3Au1f0        3Au1f+1       3Au1f+2       3Au1f+3       4Au1s         4Au2s         4Au3s         4Au4s     
   10    4Au5s         4Au6s         4Au1pz        4Au1py        4Au1px        4Au2pz        4Au2py        4Au2px        4Au3pz        4Au3py    
   11    4Au3px        4Au1d-2       4Au1d-1       4Au1d0        4Au1d+1       4Au1d+2       4Au2d-2       4Au2d-1       4Au2d0        4Au2d+1   
   12    4Au2d+2       4Au1f-3       4Au1f-2       4Au1f-1       4Au1f0        4Au1f+1       4Au1f+2       4Au1f+3   
 
 Maximum number of basis functions per shell:   10
 Total number of basis functions:    128
 
 
 Fitting basis set for the SCF calculation:
 
   1  Au def2-qzvpp-ri-jk [ 13s 12p 11d 9f 5g 3h 2i | 13s 11p 10d 8f 4g 3h 2i ]
   2  Au def2-qzvpp-ri-jk [ 13s 12p 11d 9f 5g 3h 2i | 13s 11p 10d 8f 4g 3h 2i ]
   3  Au def2-qzvpp-ri-jk [ 13s 12p 11d 9f 5g 3h 2i | 13s 11p 10d 8f 4g 3h 2i ]
   4  Au def2-qzvpp-ri-jk [ 13s 12p 11d 9f 5g 3h 2i | 13s 11p 10d 8f 4g 3h 2i ]
 
 Basis functions:
            1             2             3             4             5             6             7             8             9            10
    0    1Au1s         1Au2s         1Au3s         1Au4s         1Au5s         1Au6s         1Au7s         1Au8s         1Au9s         1Au10s    
    1    1Au11s        1Au12s        1Au13s        1Au1pz        1Au1py        1Au1px        1Au2pz        1Au2py        1Au2px        1Au3pz    
    2    1Au3py        1Au3px        1Au4pz        1Au4py        1Au4px        1Au5pz        1Au5py        1Au5px        1Au6pz        1Au6py    
    3    1Au6px        1Au7pz        1Au7py        1Au7px        1Au8pz        1Au8py        1Au8px        1Au9pz        1Au9py        1Au9px    
    4    1Au10pz       1Au10py       1Au10px       1Au11pz       1Au11py       1Au11px       1Au1d-2       1Au1d-1       1Au1d0        1Au1d+1   
    5    1Au1d+2       1Au2d-2       1Au2d-1       1Au2d0        1Au2d+1       1Au2d+2       1Au3d-2       1Au3d-1       1Au3d0        1Au3d+1   
    6    1Au3d+2       1Au4d-2       1Au4d-1       1Au4d0        1Au4d+1       1Au4d+2       1Au5d-2       1Au5d-1       1Au5d0        1Au5d+1   
    7    1Au5d+2       1Au6d-2       1Au6d-1       1Au6d0        1Au6d+1       1Au6d+2       1Au7d-2       1Au7d-1       1Au7d0        1Au7d+1   
    8    1Au7d+2       1Au8d-2       1Au8d-1       1Au8d0        1Au8d+1       1Au8d+2       1Au9d-2       1Au9d-1       1Au9d0        1Au9d+1   
    9    1Au9d+2       1Au10d-2      1Au10d-1      1Au10d0       1Au10d+1      1Au10d+2      1Au1f-3       1Au1f-2       1Au1f-1       1Au1f0    
   10    1Au1f+1       1Au1f+2       1Au1f+3       1Au2f-3       1Au2f-2       1Au2f-1       1Au2f0        1Au2f+1       1Au2f+2       1Au2f+3   
   11    1Au3f-3       1Au3f-2       1Au3f-1       1Au3f0        1Au3f+1       1Au3f+2       1Au3f+3       1Au4f-3       1Au4f-2       1Au4f-1   
   12    1Au4f0        1Au4f+1       1Au4f+2       1Au4f+3       1Au5f-3       1Au5f-2       1Au5f-1       1Au5f0        1Au5f+1       1Au5f+2   
   13    1Au5f+3       1Au6f-3       1Au6f-2       1Au6f-1       1Au6f0        1Au6f+1       1Au6f+2       1Au6f+3       1Au7f-3       1Au7f-2   
   14    1Au7f-1       1Au7f0        1Au7f+1       1Au7f+2       1Au7f+3       1Au8f-3       1Au8f-2       1Au8f-1       1Au8f0        1Au8f+1   
   15    1Au8f+2       1Au8f+3       1Au1g-4       1Au1g-3       1Au1g-2       1Au1g-1       1Au1g0        1Au1g+1       1Au1g+2       1Au1g+3   
   16    1Au1g+4       1Au2g-4       1Au2g-3       1Au2g-2       1Au2g-1       1Au2g0        1Au2g+1       1Au2g+2       1Au2g+3       1Au2g+4   
   17    1Au3g-4       1Au3g-3       1Au3g-2       1Au3g-1       1Au3g0        1Au3g+1       1Au3g+2       1Au3g+3       1Au3g+4       1Au4g-4   
   18    1Au4g-3       1Au4g-2       1Au4g-1       1Au4g0        1Au4g+1       1Au4g+2       1Au4g+3       1Au4g+4       1Au1h-5       1Au1h-4   
   19    1Au1h-3       1Au1h-2       1Au1h-1       1Au1h0        1Au1h+1       1Au1h+2       1Au1h+3       1Au1h+4       1Au1h+5       1Au2h-5   
   20    1Au2h-4       1Au2h-3       1Au2h-2       1Au2h-1       1Au2h0        1Au2h+1       1Au2h+2       1Au2h+3       1Au2h+4       1Au2h+5   
   21    1Au3h-5       1Au3h-4       1Au3h-3       1Au3h-2       1Au3h-1       1Au3h0        1Au3h+1       1Au3h+2       1Au3h+3       1Au3h+4   
   22    1Au3h+5       1Au1i-6       1Au1i-5       1Au1i-4       1Au1i-3       1Au1i-2       1Au1i-1       1Au1i0        1Au1i+1       1Au1i+2   
   23    1Au1i+3       1Au1i+4       1Au1i+5       1Au1i+6       1Au2i-6       1Au2i-5       1Au2i-4       1Au2i-3       1Au2i-2       1Au2i-1   
   24    1Au2i0        1Au2i+1       1Au2i+2       1Au2i+3       1Au2i+4       1Au2i+5       1Au2i+6       2Au1s         2Au2s         2Au3s     
   25    2Au4s         2Au5s         2Au6s         2Au7s         2Au8s         2Au9s         2Au10s        2Au11s        2Au12s        2Au13s    
   26    2Au1pz        2Au1py        2Au1px        2Au2pz        2Au2py        2Au2px        2Au3pz        2Au3py        2Au3px        2Au4pz    
   27    2Au4py        2Au4px        2Au5pz        2Au5py        2Au5px        2Au6pz        2Au6py        2Au6px        2Au7pz        2Au7py    
   28    2Au7px        2Au8pz        2Au8py        2Au8px        2Au9pz        2Au9py        2Au9px        2Au10pz       2Au10py       2Au10px   
   29    2Au11pz       2Au11py       2Au11px       2Au1d-2       2Au1d-1       2Au1d0        2Au1d+1       2Au1d+2       2Au2d-2       2Au2d-1   
   30    2Au2d0        2Au2d+1       2Au2d+2       2Au3d-2       2Au3d-1       2Au3d0        2Au3d+1       2Au3d+2       2Au4d-2       2Au4d-1   
   31    2Au4d0        2Au4d+1       2Au4d+2       2Au5d-2       2Au5d-1       2Au5d0        2Au5d+1       2Au5d+2       2Au6d-2       2Au6d-1   
   32    2Au6d0        2Au6d+1       2Au6d+2       2Au7d-2       2Au7d-1       2Au7d0        2Au7d+1       2Au7d+2       2Au8d-2       2Au8d-1   
   33    2Au8d0        2Au8d+1       2Au8d+2       2Au9d-2       2Au9d-1       2Au9d0        2Au9d+1       2Au9d+2       2Au10d-2      2Au10d-1  
   34    2Au10d0       2Au10d+1      2Au10d+2      2Au1f-3       2Au1f-2       2Au1f-1       2Au1f0        2Au1f+1       2Au1f+2       2Au1f+3   
   35    2Au2f-3       2Au2f-2       2Au2f-1       2Au2f0        2Au2f+1       2Au2f+2       2Au2f+3       2Au3f-3       2Au3f-2       2Au3f-1   
   36    2Au3f0        2Au3f+1       2Au3f+2       2Au3f+3       2Au4f-3       2Au4f-2       2Au4f-1       2Au4f0        2Au4f+1       2Au4f+2   
   37    2Au4f+3       2Au5f-3       2Au5f-2       2Au5f-1       2Au5f0        2Au5f+1       2Au5f+2       2Au5f+3       2Au6f-3       2Au6f-2   
   38    2Au6f-1       2Au6f0        2Au6f+1       2Au6f+2       2Au6f+3       2Au7f-3       2Au7f-2       2Au7f-1       2Au7f0        2Au7f+1   
   39    2Au7f+2       2Au7f+3       2Au8f-3       2Au8f-2       2Au8f-1       2Au8f0        2Au8f+1       2Au8f+2       2Au8f+3       2Au1g-4   
   40    2Au1g-3       2Au1g-2       2Au1g-1       2Au1g0        2Au1g+1       2Au1g+2       2Au1g+3       2Au1g+4       2Au2g-4       2Au2g-3   
   41    2Au2g-2       2Au2g-1       2Au2g0        2Au2g+1       2Au2g+2       2Au2g+3       2Au2g+4       2Au3g-4       2Au3g-3       2Au3g-2   
   42    2Au3g-1       2Au3g0        2Au3g+1       2Au3g+2       2Au3g+3       2Au3g+4       2Au4g-4       2Au4g-3       2Au4g-2       2Au4g-1   
   43    2Au4g0        2Au4g+1       2Au4g+2       2Au4g+3       2Au4g+4       2Au1h-5       2Au1h-4       2Au1h-3       2Au1h-2       2Au1h-1   
   44    2Au1h0        2Au1h+1       2Au1h+2       2Au1h+3       2Au1h+4       2Au1h+5       2Au2h-5       2Au2h-4       2Au2h-3       2Au2h-2   
   45    2Au2h-1       2Au2h0        2Au2h+1       2Au2h+2       2Au2h+3       2Au2h+4       2Au2h+5       2Au3h-5       2Au3h-4       2Au3h-3   
   46    2Au3h-2       2Au3h-1       2Au3h0        2Au3h+1       2Au3h+2       2Au3h+3       2Au3h+4       2Au3h+5       2Au1i-6       2Au1i-5   
   47    2Au1i-4       2Au1i-3       2Au1i-2       2Au1i-1       2Au1i0        2Au1i+1       2Au1i+2       2Au1i+3       2Au1i+4       2Au1i+5   
   48    2Au1i+6       2Au2i-6       2Au2i-5       2Au2i-4       2Au2i-3       2Au2i-2       2Au2i-1       2Au2i0        2Au2i+1       2Au2i+2   
   49    2Au2i+3       2Au2i+4       2Au2i+5       2Au2i+6       3Au1s         3Au2s         3Au3s         3Au4s         3Au5s         3Au6s     
   50    3Au7s         3Au8s         3Au9s         3Au10s        3Au11s        3Au12s        3Au13s        3Au1pz        3Au1py        3Au1px    
   51    3Au2pz        3Au2py        3Au2px        3Au3pz        3Au3py        3Au3px        3Au4pz        3Au4py        3Au4px        3Au5pz    
   52    3Au5py        3Au5px        3Au6pz        3Au6py        3Au6px        3Au7pz        3Au7py        3Au7px        3Au8pz        3Au8py    
   53    3Au8px        3Au9pz        3Au9py        3Au9px        3Au10pz       3Au10py       3Au10px       3Au11pz       3Au11py       3Au11px   
   54    3Au1d-2       3Au1d-1       3Au1d0        3Au1d+1       3Au1d+2       3Au2d-2       3Au2d-1       3Au2d0        3Au2d+1       3Au2d+2   
   55    3Au3d-2       3Au3d-1       3Au3d0        3Au3d+1       3Au3d+2       3Au4d-2       3Au4d-1       3Au4d0        3Au4d+1       3Au4d+2   
   56    3Au5d-2       3Au5d-1       3Au5d0        3Au5d+1       3Au5d+2       3Au6d-2       3Au6d-1       3Au6d0        3Au6d+1       3Au6d+2   
   57    3Au7d-2       3Au7d-1       3Au7d0        3Au7d+1       3Au7d+2       3Au8d-2       3Au8d-1       3Au8d0        3Au8d+1       3Au8d+2   
   58    3Au9d-2       3Au9d-1       3Au9d0        3Au9d+1       3Au9d+2       3Au10d-2      3Au10d-1      3Au10d0       3Au10d+1      3Au10d+2  
   59    3Au1f-3       3Au1f-2       3Au1f-1       3Au1f0        3Au1f+1       3Au1f+2       3Au1f+3       3Au2f-3       3Au2f-2       3Au2f-1   
   60    3Au2f0        3Au2f+1       3Au2f+2       3Au2f+3       3Au3f-3       3Au3f-2       3Au3f-1       3Au3f0        3Au3f+1       3Au3f+2   
   61    3Au3f+3       3Au4f-3       3Au4f-2       3Au4f-1       3Au4f0        3Au4f+1       3Au4f+2       3Au4f+3       3Au5f-3       3Au5f-2   
   62    3Au5f-1       3Au5f0        3Au5f+1       3Au5f+2       3Au5f+3       3Au6f-3       3Au6f-2       3Au6f-1       3Au6f0        3Au6f+1   
   63    3Au6f+2       3Au6f+3       3Au7f-3       3Au7f-2       3Au7f-1       3Au7f0        3Au7f+1       3Au7f+2       3Au7f+3       3Au8f-3   
   64    3Au8f-2       3Au8f-1       3Au8f0        3Au8f+1       3Au8f+2       3Au8f+3       3Au1g-4       3Au1g-3       3Au1g-2       3Au1g-1   
   65    3Au1g0        3Au1g+1       3Au1g+2       3Au1g+3       3Au1g+4       3Au2g-4       3Au2g-3       3Au2g-2       3Au2g-1       3Au2g0    
   66    3Au2g+1       3Au2g+2       3Au2g+3       3Au2g+4       3Au3g-4       3Au3g-3       3Au3g-2       3Au3g-1       3Au3g0        3Au3g+1   
   67    3Au3g+2       3Au3g+3       3Au3g+4       3Au4g-4       3Au4g-3       3Au4g-2       3Au4g-1       3Au4g0        3Au4g+1       3Au4g+2   
   68    3Au4g+3       3Au4g+4       3Au1h-5       3Au1h-4       3Au1h-3       3Au1h-2       3Au1h-1       3Au1h0        3Au1h+1       3Au1h+2   
   69    3Au1h+3       3Au1h+4       3Au1h+5       3Au2h-5       3Au2h-4       3Au2h-3       3Au2h-2       3Au2h-1       3Au2h0        3Au2h+1   
   70    3Au2h+2       3Au2h+3       3Au2h+4       3Au2h+5       3Au3h-5       3Au3h-4       3Au3h-3       3Au3h-2       3Au3h-1       3Au3h0    
   71    3Au3h+1       3Au3h+2       3Au3h+3       3Au3h+4       3Au3h+5       3Au1i-6       3Au1i-5       3Au1i-4       3Au1i-3       3Au1i-2   
   72    3Au1i-1       3Au1i0        3Au1i+1       3Au1i+2       3Au1i+3       3Au1i+4       3Au1i+5       3Au1i+6       3Au2i-6       3Au2i-5   
   73    3Au2i-4       3Au2i-3       3Au2i-2       3Au2i-1       3Au2i0        3Au2i+1       3Au2i+2       3Au2i+3       3Au2i+4       3Au2i+5   
   74    3Au2i+6       4Au1s         4Au2s         4Au3s         4Au4s         4Au5s         4Au6s         4Au7s         4Au8s         4Au9s     
   75    4Au10s        4Au11s        4Au12s        4Au13s        4Au1pz        4Au1py        4Au1px        4Au2pz        4Au2py        4Au2px    
   76    4Au3pz        4Au3py        4Au3px        4Au4pz        4Au4py        4Au4px        4Au5pz        4Au5py        4Au5px        4Au6pz    
   77    4Au6py        4Au6px        4Au7pz        4Au7py        4Au7px        4Au8pz        4Au8py        4Au8px        4Au9pz        4Au9py    
   78    4Au9px        4Au10pz       4Au10py       4Au10px       4Au11pz       4Au11py       4Au11px       4Au1d-2       4Au1d-1       4Au1d0    
   79    4Au1d+1       4Au1d+2       4Au2d-2       4Au2d-1       4Au2d0        4Au2d+1       4Au2d+2       4Au3d-2       4Au3d-1       4Au3d0    
   80    4Au3d+1       4Au3d+2       4Au4d-2       4Au4d-1       4Au4d0        4Au4d+1       4Au4d+2       4Au5d-2       4Au5d-1       4Au5d0    
   81    4Au5d+1       4Au5d+2       4Au6d-2       4Au6d-1       4Au6d0        4Au6d+1       4Au6d+2       4Au7d-2       4Au7d-1       4Au7d0    
   82    4Au7d+1       4Au7d+2       4Au8d-2       4Au8d-1       4Au8d0        4Au8d+1       4Au8d+2       4Au9d-2       4Au9d-1       4Au9d0    
   83    4Au9d+1       4Au9d+2       4Au10d-2      4Au10d-1      4Au10d0       4Au10d+1      4Au10d+2      4Au1f-3       4Au1f-2       4Au1f-1   
   84    4Au1f0        4Au1f+1       4Au1f+2       4Au1f+3       4Au2f-3       4Au2f-2       4Au2f-1       4Au2f0        4Au2f+1       4Au2f+2   
   85    4Au2f+3       4Au3f-3       4Au3f-2       4Au3f-1       4Au3f0        4Au3f+1       4Au3f+2       4Au3f+3       4Au4f-3       4Au4f-2   
   86    4Au4f-1       4Au4f0        4Au4f+1       4Au4f+2       4Au4f+3       4Au5f-3       4Au5f-2       4Au5f-1       4Au5f0        4Au5f+1   
   87    4Au5f+2       4Au5f+3       4Au6f-3       4Au6f-2       4Au6f-1       4Au6f0        4Au6f+1       4Au6f+2       4Au6f+3       4Au7f-3   
   88    4Au7f-2       4Au7f-1       4Au7f0        4Au7f+1       4Au7f+2       4Au7f+3       4Au8f-3       4Au8f-2       4Au8f-1       4Au8f0    
   89    4Au8f+1       4Au8f+2       4Au8f+3       4Au1g-4       4Au1g-3       4Au1g-2       4Au1g-1       4Au1g0        4Au1g+1       4Au1g+2   
   90    4Au1g+3       4Au1g+4       4Au2g-4       4Au2g-3       4Au2g-2       4Au2g-1       4Au2g0        4Au2g+1       4Au2g+2       4Au2g+3   
   91    4Au2g+4       4Au3g-4       4Au3g-3       4Au3g-2       4Au3g-1       4Au3g0        4Au3g+1       4Au3g+2       4Au3g+3       4Au3g+4   
   92    4Au4g-4       4Au4g-3       4Au4g-2       4Au4g-1       4Au4g0        4Au4g+1       4Au4g+2       4Au4g+3       4Au4g+4       4Au1h-5   
   93    4Au1h-4       4Au1h-3       4Au1h-2       4Au1h-1       4Au1h0        4Au1h+1       4Au1h+2       4Au1h+3       4Au1h+4       4Au1h+5   
   94    4Au2h-5       4Au2h-4       4Au2h-3       4Au2h-2       4Au2h-1       4Au2h0        4Au2h+1       4Au2h+2       4Au2h+3       4Au2h+4   
   95    4Au2h+5       4Au3h-5       4Au3h-4       4Au3h-3       4Au3h-2       4Au3h-1       4Au3h0        4Au3h+1       4Au3h+2       4Au3h+3   
   96    4Au3h+4       4Au3h+5       4Au1i-6       4Au1i-5       4Au1i-4       4Au1i-3       4Au1i-2       4Au1i-1       4Au1i0        4Au1i+1   
   97    4Au1i+2       4Au1i+3       4Au1i+4       4Au1i+5       4Au1i+6       4Au2i-6       4Au2i-5       4Au2i-4       4Au2i-3       4Au2i-2   
   98    4Au2i-1       4Au2i0        4Au2i+1       4Au2i+2       4Au2i+3       4Au2i+4       4Au2i+5       4Au2i+6   
 
 Maximum number of basis functions per shell:   56
 Total number of basis functions:    988
 
 
 Effective core potentials:
 
   1  Au mcdhf-ecp-60        
   2  Au mcdhf-ecp-60        
   3  Au mcdhf-ecp-60        
   4  Au mcdhf-ecp-60        
 
 Initializing the SAD routines for the initial guess...
 Checking the files required for the initial guess...
 Density files have not been found for the initial guess.
 Generating SCFDENSITIES.Au.def2-svp.0
 CPU time [min]:     0.077                   Wall time [min]:     0.176
 
 Character table for point group C1:
 
          E  
    A     1
 
 Number of basis functions per irrep:
    A     128
 
 
 Calculation of overlap integrals...
 CPU time [min]:     0.080                   Wall time [min]:     0.177
 
 Calculation of the square root of the overlap matrix...
 Minimum eigenvalue of the overlap matrix: 0.292265E-02
 CPU time [min]:     0.090                   Wall time [min]:     0.177
 
 Calculation of kinetic energy integrals...
 CPU time [min]:     0.091                   Wall time [min]:     0.177
 Calculation of dipole moment integrals...
 CPU time [min]:     0.091                   Wall time [min]:     0.177
 Calculation of nuclear attraction integrals...
 CPU time [min]:     0.094                   Wall time [min]:     0.177
 Calculation of core potential integrals...
 CPU time [min]:     0.339                   Wall time [min]:     0.368
 
 Calculation of prescreening integrals...
 CPU time [min]:     0.429                   Wall time [min]:     0.372
 
 Calculation of two-center Coulomb integrals...
   1% done.
  12% done.
  25% done.
  36% done.
  48% done.
  63% done.
  82% done.
  95% done.
 100% done.
 CPU time [min]:     0.440                   Wall time [min]:     0.372
 
 Cholesky decomposition of the two-center matrix...
 Reciprocal of the condition number:  0.154923E-05
 CPU time [min]:     0.471                   Wall time [min]:     0.374
 
 
 Running small-basis SCF...

 ************************ 2022-11-11 19:50:12 *************************
 Executing scf...

 @scfsetup: integrals calculated directly
            mrcc/integ direct run
 @scfsetup: calculating on full matrices
            not using symmetry adapted basis
 @scfsetup: diis switched on
 @scfsetup: number of steps to extrapolate from  10
 @scfsetup: tolerance in energy deviation    0.100000E-05
            tolerance in density deviation    0.100000E-06
 @scfsetup: maximum number of iterations:  50
 @scfsetup: restricted closed shell hf calc
 @scfsetup: starting scf from superposition of atomic densities
 @scfsetup: occupation set:
            from initial orbitals
 @scfsetup: Parameter-set for SCF acceleration: difficult
 @scfsetup: diis runs from iteration:   2
 @scfsetup: diis runs to iteration:  50
 @scfsetup: diis runs in every iteration
 @scfsetup: diiswatch is disabled                   
 @scfsetup: diis dtol criteria to switch on:      0.0000E+00
           (or the iteration number below is reached)
 @scfsetup: damping is turned off.
 @scfsetup: dynamic level shifting
            tolarance in HOMO-LUMO gap:  0.200
            tolarance in density deviation:     0.0000E+00
            iteration step criteria to turn level shifting off: 8
 Allocation of 150.0 Gbytes of memory...
 ======================================================================
 ITERATION STEP   1
 CPU time [min]:     0.028                   Wall time [min]:     0.006
 

 SCF control                  : initial
 Damping factor/level shift   : 0.000/0.200
 DIIS [start/end/frequency]   :   2 / 50 /  1

 Constructing Fock-matrix...
 
 Pipek-Mezey localization...
 Step  Convergence
   1  60.031287192271
   2  18.324988395195
   3   5.477203476639
   4   0.888135681828
   5   0.013330635060
   6   0.000001464099
   7   0.000000000072
 CPU time [min]:     0.050                   Wall time [min]:     0.007
 
 Constructing local fitting domains...
 Maximum number of atoms in fitting domains:    4
 Average number of atoms in fitting domains:    4.0
 
 First step of Coulomb + first step of exchange...
 Exchange contribution is evaluated for MOs 1 to 38.
   1% done.
  14% done.
  25% done.
  38% done.
  49% done.
  64% done.
  75% done.
  89% done.
 100% done.
 CPU time [min]:     0.142                   Wall time [min]:     0.011
 
 Fitting and assembly step of exchange...
 CPU time [min]:     0.149                   Wall time [min]:     0.011
 
 Second step of Coulomb...
   1% done.
  14% done.
  25% done.
  38% done.
  49% done.
  64% done.
  75% done.
  89% done.
 100% done.
 CPU time [min]:     0.179                   Wall time [min]:     0.013
 
 Gradient norm:      1.9514E+00
 RMS of [F,P]:                                         0.04274142110567
 RMS of difference density:                            0.02954132387885
 Gap [au]:  0.13968600
 ALPHA OCC:  38
 BETA  OCC:  38
 
 ***HARTREE-FOCK ENERGY IN STEP   1 IS       -537.7022156743441883 [AU]
 ======================================================================
 ITERATION STEP   2
 CPU time [min]:     0.186                   Wall time [min]:     0.013
 

 SCF control                  : diis
 Damping factor/level shift   : 0.000/0.200
 DIIS [start/end/frequency]   :   2 / 50 /  1

 Constructing Fock-matrix...
 
 Pipek-Mezey localization...
 Step  Convergence
   1   1.744944620627
   2   3.906316984636
   3   0.127815247080
   4   0.000099590494
   5   0.000000001086
 CPU time [min]:     0.204                   Wall time [min]:     0.014
 
 Constructing local fitting domains...
 Maximum number of atoms in fitting domains:    4
 Average number of atoms in fitting domains:    4.0
 
 First step of Coulomb + first step of exchange...
 Exchange contribution is evaluated for MOs 1 to 38.
   1% done.
  14% done.
  25% done.
  38% done.
  49% done.
  64% done.
  75% done.
  89% done.
 100% done.
 CPU time [min]:     0.344                   Wall time [min]:     0.020
 
 Fitting and assembly step of exchange...
 CPU time [min]:     0.349                   Wall time [min]:     0.020
 
 Second step of Coulomb...
   1% done.
  14% done.
  25% done.
  38% done.
  49% done.
  64% done.
  75% done.
  89% done.
 100% done.
 CPU time [min]:     0.379                   Wall time [min]:     0.021
 
 Gradient norm:      4.0024E-01
 DIIS is running in this iteration step.
 RMS of [F,P]:                                         0.01373080959146
 RMS of difference density:                            0.01634470497522
 Gap [au]:  0.18806065
 ALPHA OCC:  38
 BETA  OCC:  38
 
 ***HARTREE-FOCK ENERGY IN STEP   2 IS       -538.8331545200844630 [AU]
 
 Step comparison  Energy Drift [au]  DIIS error drift  Gradient drift
        1            1.1309E+00         2.9011E-02       1.5511E+00
        2            5.3883E+02         1.0000E-07       1.5511E+00
 ======================================================================
 ITERATION STEP   3
 CPU time [min]:     0.435                   Wall time [min]:     0.027
 

 SCF control                  : diis
 Damping factor/level shift   : 0.000/0.200
 DIIS [start/end/frequency]   :   2 / 50 /  1

 Constructing Fock-matrix...
 
 Pipek-Mezey localization...
 Step  Convergence
   1  10.873373041387
   2   2.017274204854
   3   0.025089982753
   4   0.000003884625
   5   0.000000000686
 CPU time [min]:     0.445                   Wall time [min]:     0.028
 
 Constructing local fitting domains...
 Local fitting domains are unchanged.
 
 First step of Coulomb + first step of exchange...
 Exchange contribution is evaluated for MOs 1 to 38.
   1% done.
  14% done.
  25% done.
  38% done.
  49% done.
  64% done.
  75% done.
  89% done.
 100% done.
 CPU time [min]:     0.532                   Wall time [min]:     0.032
 
 Fitting and assembly step of exchange...
 CPU time [min]:     0.538                   Wall time [min]:     0.032
 
 Second step of Coulomb...
   1% done.
  14% done.
  25% done.
  38% done.
  49% done.
  64% done.
  75% done.
  89% done.
 100% done.
 CPU time [min]:     0.568                   Wall time [min]:     0.033
 
 Gradient norm:      1.3931E-01
 DIIS is running in this iteration step.
 RMS of [F,P]:                                         0.00524838839757
 RMS of difference density:                            0.00379671827028
 Gap [au]:  0.18171503
 ALPHA OCC:  38
 BETA  OCC:  38
 
 ***HARTREE-FOCK ENERGY IN STEP   3 IS       -539.0581177198939713 [AU]
 
 Step comparison  Energy Drift [au]  DIIS error drift  Gradient drift
        2            2.2496E-01         8.4824E-03       2.6092E-01
 ======================================================================
 ITERATION STEP   4
 CPU time [min]:     0.575                   Wall time [min]:     0.033
 

 SCF control                  : diis
 Damping factor/level shift   : 0.000/0.200
 DIIS [start/end/frequency]   :   2 / 50 /  1

 Constructing Fock-matrix...
 
 Pipek-Mezey localization...
 Step  Convergence
   1   8.865112564482
   2   4.521037944361
   3   0.272989219707
   4   0.000237362313
   5   0.000000005338
 CPU time [min]:     0.594                   Wall time [min]:     0.034
 
 Constructing local fitting domains...
 Local fitting domains are unchanged.
 
 First step of Coulomb + first step of exchange...
 Exchange contribution is evaluated for MOs 1 to 38.
   1% done.
  14% done.
  25% done.
  38% done.
  49% done.
  64% done.
  75% done.
  89% done.
 100% done.
 CPU time [min]:     0.679                   Wall time [min]:     0.038
 
 Fitting and assembly step of exchange...
 CPU time [min]:     0.685                   Wall time [min]:     0.038
 
 Second step of Coulomb...
   1% done.
  14% done.
  25% done.
  38% done.
  49% done.
  64% done.
  75% done.
  89% done.
 100% done.
 CPU time [min]:     0.715                   Wall time [min]:     0.039
 
 Gradient norm:      3.8758E-02
 DIIS is running in this iteration step.
 RMS of [F,P]:                                         0.00084174379399
 RMS of difference density:                            0.00088674871262
 Gap [au]:  0.18538780
 ALPHA OCC:  38
 BETA  OCC:  38
 
 ***HARTREE-FOCK ENERGY IN STEP   4 IS       -539.0988933090270621 [AU]
 
 Step comparison  Energy Drift [au]  DIIS error drift  Gradient drift
        3            4.0776E-02         4.4066E-03       1.0056E-01
 ======================================================================
 ITERATION STEP   5
 CPU time [min]:     0.722                   Wall time [min]:     0.040
 

 SCF control                  : diis
 Damping factor/level shift   : 0.000/0.200
 DIIS [start/end/frequency]   :   2 / 50 /  1

 Constructing Fock-matrix...
 
 Pipek-Mezey localization...
 Step  Convergence
   1  10.114050166255
   2   2.788958108129
   3   0.050814172459
   4   0.000014644663
   5   0.000000002212
 CPU time [min]:     0.740                   Wall time [min]:     0.041
 
 Constructing local fitting domains...
 Local fitting domains are unchanged.
 
 First step of Coulomb + first step of exchange...
 Exchange contribution is evaluated for MOs 1 to 38.
   1% done.
  14% done.
  25% done.
  38% done.
  49% done.
  64% done.
  75% done.
  89% done.
 100% done.
 CPU time [min]:     0.825                   Wall time [min]:     0.044
 
 Fitting and assembly step of exchange...
 CPU time [min]:     0.831                   Wall time [min]:     0.045
 
 Second step of Coulomb...
   1% done.
  14% done.
  25% done.
  38% done.
  49% done.
  64% done.
  75% done.
  89% done.
 100% done.
 CPU time [min]:     0.861                   Wall time [min]:     0.046
 
 Gradient norm:      1.9731E-02
 DIIS is running in this iteration step.
 RMS of [F,P]:                                         0.00035574262002
 RMS of difference density:                            0.00095536294508
 Gap [au]:  0.18792114
 ALPHA OCC:  38
 BETA  OCC:  38
 
 ***HARTREE-FOCK ENERGY IN STEP   5 IS       -539.1011518998673182 [AU]
 
 Step comparison  Energy Drift [au]  DIIS error drift  Gradient drift
        4            2.2586E-03         4.8600E-04       1.9026E-02
 ======================================================================
 ITERATION STEP   6
 CPU time [min]:     0.868                   Wall time [min]:     0.046
 

 SCF control                  : diis
 Damping factor/level shift   : 0.000/0.200
 DIIS [start/end/frequency]   :   2 / 50 /  1

 Constructing Fock-matrix...
 
 Pipek-Mezey localization...
 Step  Convergence
   1  14.082802611365
   2   3.711732209563
   3   0.092247490731
   4   0.000196649526
   5   0.000000047839
 CPU time [min]:     0.887                   Wall time [min]:     0.047
 
 Constructing local fitting domains...
 Local fitting domains are unchanged.
 
 First step of Coulomb + first step of exchange...
 Exchange contribution is evaluated for MOs 1 to 38.
   1% done.
  14% done.
  25% done.
  38% done.
  49% done.
  64% done.
  75% done.
  89% done.
 100% done.
 CPU time [min]:     0.971                   Wall time [min]:     0.051
 
 Fitting and assembly step of exchange...
 CPU time [min]:     0.977                   Wall time [min]:     0.051
 
 Second step of Coulomb...
   1% done.
  14% done.
  25% done.
  38% done.
  49% done.
  64% done.
  75% done.
  89% done.
 100% done.
 CPU time [min]:     1.007                   Wall time [min]:     0.052
 
 Gradient norm:      1.1507E-02
 DIIS is running in this iteration step.
 RMS of [F,P]:                                         0.00012425795241
 RMS of difference density:                            0.00044106040210
 Gap [au]:  0.18813554
 ALPHA OCC:  38
 BETA  OCC:  38
 
 ***HARTREE-FOCK ENERGY IN STEP   6 IS       -539.1020018162494125 [AU]
 
 Step comparison  Energy Drift [au]  DIIS error drift  Gradient drift
        5            8.4992E-04         2.3148E-04       8.2241E-03
 ======================================================================
 ITERATION STEP   7
 CPU time [min]:     1.014                   Wall time [min]:     0.052
 

 SCF control                  : diis
 Damping factor/level shift   : 0.000/0.200
 DIIS [start/end/frequency]   :   2 / 50 /  1

 Constructing Fock-matrix...
 
 Pipek-Mezey localization...
 Step  Convergence
   1  15.818366280367
   2   6.213402125728
   3  11.302666508316
   4   3.428651295388
   5   0.314163024998
   6   0.011420007396
   7   0.001085793235
   8   0.000193889501
   9   0.000037511373
  10   0.000076122019
  11   0.000062205491
  12   0.000000635872
  13   0.000000165769
  14   0.000000029939
  15   0.000000009382
  16   0.000000002092
  17   0.000000000629
  18   0.000000000157
  19   0.000000000046
  20   0.000000000012
  21   0.000000000004
  22   0.000000000001
 CPU time [min]:     1.038                   Wall time [min]:     0.054
 
 Constructing local fitting domains...
 Local fitting domains are unchanged.
 
 First step of Coulomb + first step of exchange...
 Exchange contribution is evaluated for MOs 1 to 38.
   1% done.
  14% done.
  25% done.
  38% done.
  49% done.
  64% done.
  75% done.
  89% done.
 100% done.
 CPU time [min]:     1.124                   Wall time [min]:     0.057
 
 Fitting and assembly step of exchange...
 CPU time [min]:     1.129                   Wall time [min]:     0.057
 
 Second step of Coulomb...
   1% done.
  14% done.
  25% done.
  38% done.
  49% done.
  64% done.
  75% done.
  89% done.
 100% done.
 CPU time [min]:     1.159                   Wall time [min]:     0.059
 
 Gradient norm:      6.7843E-03
 DIIS is running in this iteration step.
 RMS of [F,P]:                                         0.00006708821878
 RMS of difference density:                            0.00026329212950
 Gap [au]:  0.18863082
 ALPHA OCC:  38
 BETA  OCC:  38
 
 ***HARTREE-FOCK ENERGY IN STEP   7 IS       -539.1021887497001899 [AU]
 
 Step comparison  Energy Drift [au]  DIIS error drift  Gradient drift
        6            1.8693E-04         5.7170E-05       4.7229E-03
 ======================================================================
 ITERATION STEP   8
 CPU time [min]:     1.166                   Wall time [min]:     0.059
 

 SCF control                  : diis
 Damping factor/level shift   : 0.000/0.200
 DIIS [start/end/frequency]   :   2 / 50 /  1

 Constructing Fock-matrix...
 
 Pipek-Mezey localization...
 Step  Convergence
   1  14.224375449683
   2   8.456780351413
   3   8.570963779909
   4   3.979752377424
   5   1.141554122539
   6   0.359924186418
   7   0.026882187267
   8   0.002496672356
   9   0.000467565160
  10   0.000092382392
  11   0.000017813531
  12   0.000003643804
  13   0.000000815273
  14   0.000000159296
  15   0.000000030891
  16   0.000000007218
  17   0.000000001612
  18   0.000000000369
  19   0.000000000086
  20   0.000000000020
  21   0.000000000004
  22   0.000000000001
 CPU time [min]:     1.190                   Wall time [min]:     0.060
 
 Constructing local fitting domains...
 Local fitting domains are unchanged.
 
 First step of Coulomb + first step of exchange...
 Exchange contribution is evaluated for MOs 1 to 38.
   1% done.
  14% done.
  25% done.
  38% done.
  49% done.
  64% done.
  75% done.
  89% done.
 100% done.
 CPU time [min]:     1.275                   Wall time [min]:     0.064
 
 Fitting and assembly step of exchange...
 CPU time [min]:     1.281                   Wall time [min]:     0.064
 
 Second step of Coulomb...
   1% done.
  14% done.
  25% done.
  38% done.
  49% done.
  64% done.
  75% done.
  89% done.
 100% done.
 CPU time [min]:     1.311                   Wall time [min]:     0.065
 
 Gradient norm:      3.5327E-03
 DIIS is running in this iteration step.
 RMS of [F,P]:                                         0.00003275051475
 RMS of difference density:                            0.00013503529526
 Gap [au]:  0.18872176
 ALPHA OCC:  38
 BETA  OCC:  38
 
 ***HARTREE-FOCK ENERGY IN STEP   8 IS       -539.1022504649968141 [AU]
 
 Step comparison  Energy Drift [au]  DIIS error drift  Gradient drift
        7            6.1715E-05         3.4338E-05       3.2516E-03
 ======================================================================
 ITERATION STEP   9
 CPU time [min]:     1.318                   Wall time [min]:     0.066
 

 SCF control                  : diis
 Damping factor/level shift   : 0.000/0.000
 DIIS [start/end/frequency]   :   2 / 50 /  1

 Constructing Fock-matrix...
 
 Pipek-Mezey localization...
 Step  Convergence
   1  12.151613308638
   2   7.662155834563
   3   8.678814871385
   4   3.824330593112
   5   0.350353303789
   6   0.091358386738
   7   0.008081141696
   8   0.001749304329
   9   0.000417155310
  10   0.000119695575
  11   0.000059338800
  12   0.000008521897
  13   0.000002001094
  14   0.000000419447
  15   0.000000114790
  16   0.000000141353
  17   0.000000060256
  18   0.000000010423
  19   0.000000003116
  20   0.000000002696
  21   0.000000000041
  22   0.000000000009
  23   0.000000000003
  24   0.000000000001
 CPU time [min]:     1.343                   Wall time [min]:     0.067
 
 Constructing local fitting domains...
 Local fitting domains are unchanged.
 
 First step of Coulomb + first step of exchange...
 Exchange contribution is evaluated for MOs 1 to 38.
   1% done.
  14% done.
  25% done.
  38% done.
  49% done.
  64% done.
  75% done.
  89% done.
 100% done.
 CPU time [min]:     1.428                   Wall time [min]:     0.070
 
 Fitting and assembly step of exchange...
 CPU time [min]:     1.434                   Wall time [min]:     0.071
 
 Second step of Coulomb...
   1% done.
  14% done.
  25% done.
  38% done.
  49% done.
  64% done.
  75% done.
  89% done.
 100% done.
 CPU time [min]:     1.464                   Wall time [min]:     0.072
 
 Gradient norm:      1.8371E-03
 DIIS is running in this iteration step.
 RMS of [F,P]:                                         0.00001644112673
 RMS of difference density:                            0.00010042794876
 Gap [au]:  0.18878979
 ALPHA OCC:  38
 BETA  OCC:  38
 
 ***HARTREE-FOCK ENERGY IN STEP   9 IS       -539.1022661685553885 [AU]
 
 Step comparison  Energy Drift [au]  DIIS error drift  Gradient drift
        8            1.5704E-05         1.6309E-05       1.6956E-03
 ======================================================================
 ITERATION STEP  10
 CPU time [min]:     1.471                   Wall time [min]:     0.072
 

 SCF control                  : diis
 Damping factor/level shift   : 0.000/0.000
 DIIS [start/end/frequency]   :   2 / 50 /  1

 Constructing Fock-matrix...
 
 Pipek-Mezey localization...
 Step  Convergence
   1  16.155231524454
   2   6.643408157021
   3   6.886527836306
   4   4.678972229761
   5   0.448430440562
   6   0.024377069110
   7   0.007139142193
   8   0.002022653625
   9   0.000668078142
  10   0.000211336266
  11   0.000068992874
  12   0.000022614079
  13   0.000007419928
  14   0.000002460508
  15   0.000000815687
  16   0.000000270234
  17   0.000000089929
  18   0.000000030048
  19   0.000000010042
  20   0.000000003363
  21   0.000000001130
  22   0.000000000380
  23   0.000000000128
  24   0.000000000043
  25   0.000000000015
  26   0.000000000007
  27   0.000000000001
  28   0.000000000000
 CPU time [min]:     1.497                   Wall time [min]:     0.073
 
 Constructing local fitting domains...
 Local fitting domains are unchanged.
 
 First step of Coulomb + first step of exchange...
 Exchange contribution is evaluated for MOs 1 to 38.
   1% done.
  14% done.
  25% done.
  38% done.
  49% done.
  64% done.
  75% done.
  89% done.
 100% done.
 CPU time [min]:     1.583                   Wall time [min]:     0.077
 
 Fitting and assembly step of exchange...
 CPU time [min]:     1.588                   Wall time [min]:     0.077
 
 Second step of Coulomb...
   1% done.
  14% done.
  25% done.
  38% done.
  49% done.
  64% done.
  75% done.
  89% done.
 100% done.
 CPU time [min]:     1.618                   Wall time [min]:     0.078
 
 Gradient norm:      1.4058E-04
 DIIS is running in this iteration step.
 RMS of [F,P]:                                         0.00000227054200
 RMS of difference density:                            0.00000952176884
 Gap [au]:  0.18879419
 ALPHA OCC:  38
 BETA  OCC:  38
 
 ***HARTREE-FOCK ENERGY IN STEP  10 IS       -539.1022708047642027 [AU]
 
 Step comparison  Energy Drift [au]  DIIS error drift  Gradient drift
        9            4.6362E-06         1.4171E-05       1.6965E-03
 ======================================================================
 ITERATION STEP  11
 CPU time [min]:     1.625                   Wall time [min]:     0.079
 

 SCF control                  : diis
 Damping factor/level shift   : 0.000/0.000
 DIIS [start/end/frequency]   :   2 / 50 /  1

 Constructing Fock-matrix...
 
 Pipek-Mezey localization...
 Step  Convergence
   1  17.038477945302
   2   8.343223222041
   3   9.140217646770
   4   3.141664956467
   5   0.428317559077
   6   0.017730460792
   7   0.004971070157
   8   0.001284267233
   9   0.000332553119
  10   0.000091985448
  11   0.000025092356
  12   0.000007236537
  13   0.000002056761
  14   0.000000593037
  15   0.000000175045
  16   0.000000055604
  17   0.000000013187
  18   0.000000003901
  19   0.000000000997
  20   0.000000000278
  21   0.000000000077
  22   0.000000000036
  23   0.000000000018
  24   0.000000000002
  25   0.000000000000
 CPU time [min]:     1.650                   Wall time [min]:     0.080
 
 Constructing local fitting domains...
 Local fitting domains are unchanged.
 
 First step of Coulomb + first step of exchange...
 Exchange contribution is evaluated for MOs 1 to 38.
   1% done.
  14% done.
  25% done.
  38% done.
  49% done.
  64% done.
  75% done.
  89% done.
 100% done.
 CPU time [min]:     1.735                   Wall time [min]:     0.084
 
 Fitting and assembly step of exchange...
 CPU time [min]:     1.741                   Wall time [min]:     0.084
 
 Second step of Coulomb...
   1% done.
  14% done.
  25% done.
  38% done.
  49% done.
  64% done.
  75% done.
  89% done.
 100% done.
 CPU time [min]:     1.771                   Wall time [min]:     0.085
 
 Gradient norm:      2.3759E-05
 DIIS is running in this iteration step.
 RMS of [F,P]:                                         0.00000052749950
 RMS of difference density:                            0.00000174408376
 Gap [au]:  0.18879537
 ALPHA OCC:  38
 BETA  OCC:  38
 
 ***HARTREE-FOCK ENERGY IN STEP  11 IS       -539.1022708506045547 [AU]
 
 Step comparison  Energy Drift [au]  DIIS error drift  Gradient drift
       10            4.5840E-08         1.7430E-06       1.1682E-04
 ======================================================================
 ITERATION STEP  12
 CPU time [min]:     1.778                   Wall time [min]:     0.085
 

 SCF control                  : diis
 Damping factor/level shift   : 0.000/0.000
 DIIS [start/end/frequency]   :   2 / 50 /  1

 Constructing Fock-matrix...
 
 Pipek-Mezey localization...
 Step  Convergence
   1  15.209809803790
   2   8.357236593146
   3  10.542756942696
   4   3.061861131396
   5   0.706377615936
   6   0.057657891764
   7   0.034227066148
   8   0.015856166515
   9   0.019276773149
  10   0.025721949273
  11   0.031261643087
  12   0.036368145783
  13   0.219365801689
  14   0.012447502587
  15   0.003026239535
  16   0.000622440475
  17   0.000147368965
  18   0.000032012345
  19   0.000009753403
  20   0.000002539706
  21   0.000000601338
  22   0.000000146755
  23   0.000000035801
  24   0.000000008709
  25   0.000000002115
  26   0.000000000516
  27   0.000000000127
  28   0.000000000031
  29   0.000000000007
  30   0.000000000002
  31   0.000000000000
 CPU time [min]:     1.805                   Wall time [min]:     0.087
 
 Constructing local fitting domains...
 Local fitting domains are unchanged.
 
 First step of Coulomb + first step of exchange...
 Exchange contribution is evaluated for MOs 1 to 38.
   1% done.
  14% done.
  25% done.
  38% done.
  49% done.
  64% done.
  75% done.
  89% done.
 100% done.
 CPU time [min]:     1.891                   Wall time [min]:     0.090
 
 Fitting and assembly step of exchange...
 CPU time [min]:     1.896                   Wall time [min]:     0.091
 
 Second step of Coulomb...
   1% done.
  14% done.
  25% done.
  38% done.
  49% done.
  64% done.
  75% done.
  89% done.
 100% done.
 CPU time [min]:     1.926                   Wall time [min]:     0.092
 
 Gradient norm:      8.3388E-06
 DIIS is running in this iteration step.
 RMS of [F,P]:                                         0.00000030905382
 RMS of difference density:                            0.00000073046396
 Gap [au]:  0.18879580
 ALPHA OCC:  38
 BETA  OCC:  38
 
 ***HARTREE-FOCK ENERGY IN STEP  12 IS       -539.1022708522539233 [AU]
 
 Step comparison  Energy Drift [au]  DIIS error drift  Gradient drift
       11            1.6494E-09         2.1845E-07       1.5420E-05
 ======================================================================
 ITERATION STEP  13
 CPU time [min]:     1.933                   Wall time [min]:     0.092
 

 SCF control                  : diis
 Damping factor/level shift   : 0.000/0.000
 DIIS [start/end/frequency]   :   2 / 50 /  1

 Constructing Fock-matrix...
 
 Pipek-Mezey localization...
 Step  Convergence
   1  14.446431755898
   2   6.885065716256
   3   6.304139033028
   4   2.567789654143
   5   0.446009598554
   6   0.046554178995
   7   0.200714658000
   8   0.009843573889
   9   0.001949768225
  10   0.000493501549
  11   0.000113862125
  12   0.000027174374
  13   0.000006609893
  14   0.000001626306
  15   0.000000402336
  16   0.000000099855
  17   0.000000024942
  18   0.000000006183
  19   0.000000001524
  20   0.000000000380
  21   0.000000000095
  22   0.000000000024
  23   0.000000000006
  24   0.000000000001
  25   0.000000000000
 CPU time [min]:     1.958                   Wall time [min]:     0.093
 
 Constructing local fitting domains...
 Local fitting domains are unchanged.
 
 First step of Coulomb + first step of exchange...
 Exchange contribution is evaluated for MOs 1 to 38.
   1% done.
  14% done.
  25% done.
  38% done.
  49% done.
  64% done.
  75% done.
  89% done.
 100% done.
 CPU time [min]:     2.043                   Wall time [min]:     0.097
 
 Fitting and assembly step of exchange...
 CPU time [min]:     2.049                   Wall time [min]:     0.097
 
 Second step of Coulomb...
   1% done.
  14% done.
  25% done.
  38% done.
  49% done.
  64% done.
  75% done.
  89% done.
 100% done.
 CPU time [min]:     2.079                   Wall time [min]:     0.098
 
 Gradient norm:      5.0911E-06
 DIIS is running in this iteration step.
 RMS of [F,P]:                                         0.00000007468509
 RMS of difference density:                            0.00000031606159
 Gap [au]:  0.18879594
 ALPHA OCC:  38
 BETA  OCC:  38
 
 ***HARTREE-FOCK ENERGY IN STEP  13 IS       -539.1022708526370479 [AU]
 
 Step comparison  Energy Drift [au]  DIIS error drift  Gradient drift
       12            3.8312E-10         2.3437E-07       3.2477E-06
 ======================================================================
 ITERATION STEP  14
 CPU time [min]:     2.087                   Wall time [min]:     0.099
 

 SCF control                  : diis
 Damping factor/level shift   : 0.000/0.000
 DIIS [start/end/frequency]   :   2 / 50 /  1

 Constructing Fock-matrix...
 
 Pipek-Mezey localization...
 Step  Convergence
   1  11.982372588828
   2   8.068386503893
   3   7.847181831414
   4   2.468544507488
   5   0.340436485168
   6   0.369574394170
   7   0.036076458334
   8   0.015640237957
   9   0.002802786775
  10   0.001019817837
  11   0.000286600047
  12   0.000080185353
  13   0.000022073072
  14   0.000006037389
  15   0.000001646405
  16   0.000000447990
  17   0.000000121668
  18   0.000000032655
  19   0.000000008762
  20   0.000000002510
  21   0.000000000708
  22   0.000000000190
  23   0.000000000052
  24   0.000000000014
  25   0.000000000004
  26   0.000000000001
  27   0.000000000000
 CPU time [min]:     2.112                   Wall time [min]:     0.100
 
 Constructing local fitting domains...
 Local fitting domains are unchanged.
 
 First step of Coulomb + first step of exchange...
 Exchange contribution is evaluated for MOs 1 to 38.
   1% done.
  14% done.
  25% done.
  38% done.
  49% done.
  64% done.
  75% done.
  89% done.
 100% done.
 CPU time [min]:     2.198                   Wall time [min]:     0.104
 
 Fitting and assembly step of exchange...
 CPU time [min]:     2.203                   Wall time [min]:     0.104
 
 Second step of Coulomb...
   1% done.
  14% done.
  25% done.
  38% done.
  49% done.
  64% done.
  75% done.
  89% done.
 100% done.
 CPU time [min]:     2.233                   Wall time [min]:     0.105
 
 Gradient norm:      4.0595E-06
 DIIS is running in this iteration step.
 RMS of [F,P]:                                         0.00000003801308
 RMS of difference density:                            0.00000020320957
 Gap [au]:  0.18879603
 ALPHA OCC:  38
 BETA  OCC:  38
 
 ***HARTREE-FOCK ENERGY IN STEP  14 IS       -539.1022708527286795 [AU]
 
 Step comparison  Energy Drift [au]  DIIS error drift  Gradient drift
       13            9.1632E-11         3.6672E-08       1.0316E-06
 ======================================================================
 ITERATION STEP  15
 CPU time [min]:     2.240                   Wall time [min]:     0.105
 

 SCF control                  : diis
 Damping factor/level shift   : 0.000/0.000
 DIIS [start/end/frequency]   :   2 / 50 /  1

 Constructing Fock-matrix...
 
 Pipek-Mezey localization...
 Step  Convergence
   1  14.064793883444
   2   8.405223375859
   3   7.876928352976
   4   3.276339859161
   5   1.014978091420
   6   0.258585146465
   7   0.018857618730
   8   0.012547372388
   9   0.002349185687
  10   0.000531980741
  11   0.000135923192
  12   0.000036607288
  13   0.000010492380
  14   0.000003119945
  15   0.000000966946
  16   0.000000308119
  17   0.000000100599
  18   0.000000033464
  19   0.000000011292
  20   0.000000003848
  21   0.000000001324
  22   0.000000000456
  23   0.000000000158
  24   0.000000000055
  25   0.000000000019
  26   0.000000000007
  27   0.000000000002
  28   0.000000000001
 CPU time [min]:     2.266                   Wall time [min]:     0.107
 
 Constructing local fitting domains...
 Local fitting domains are unchanged.
 
 First step of Coulomb + first step of exchange...
 Exchange contribution is evaluated for MOs 1 to 38.
   1% done.
  14% done.
  25% done.
  38% done.
  49% done.
  64% done.
  75% done.
  89% done.
 100% done.
 CPU time [min]:     2.351                   Wall time [min]:     0.110
 
 Fitting and assembly step of exchange...
 CPU time [min]:     2.357                   Wall time [min]:     0.110
 
 Second step of Coulomb...
   1% done.
  14% done.
  25% done.
  38% done.
  49% done.
  64% done.
  75% done.
  89% done.
 100% done.
 CPU time [min]:     2.386                   Wall time [min]:     0.112
 
 Gradient norm:      2.8088E-06
 DIIS is running in this iteration step.
 RMS of [F,P]:                                         0.00000002867724
 RMS of difference density:                            0.00000020837709
 Gap [au]:  0.18879603
 ALPHA OCC:  38
 BETA  OCC:  38
 
 ***HARTREE-FOCK ENERGY IN STEP  15 IS       -539.1022708527632403 [AU]
 
 Step comparison  Energy Drift [au]  DIIS error drift  Gradient drift
       14            3.4561E-11         9.3358E-09       1.2507E-06
 ======================================================================
 ITERATION STEP  16
 CPU time [min]:     2.394                   Wall time [min]:     0.112
 

 SCF control                  : diis
 Damping factor/level shift   : 0.000/0.000
 DIIS [start/end/frequency]   :   2 / 50 /  1

 Constructing Fock-matrix...
 
 Pipek-Mezey localization...
 Step  Convergence
   1  13.943049176676
   2   6.991975933346
   3  10.103051513386
   4   3.457959372124
   5   0.476483096166
   6   0.037776296595
   7   0.051469809940
   8   0.026011978237
   9   0.022388155738
  10   0.012982412239
  11   0.279521019817
  12   0.018881199187
  13   0.009557082053
  14   0.003013418100
  15   0.000864267058
  16   0.000240135066
  17   0.000058880984
  18   0.000020324349
  19   0.000005111288
  20   0.000001207767
  21   0.000000371728
  22   0.000000119204
  23   0.000000026070
  24   0.000000007985
  25   0.000000002546
  26   0.000000000555
  27   0.000000000192
  28   0.000000000048
  29   0.000000000012
  30   0.000000000003
  31   0.000000000001
 CPU time [min]:     2.420                   Wall time [min]:     0.113
 
 Constructing local fitting domains...
 Local fitting domains are unchanged.
 
 First step of Coulomb + first step of exchange...
 Exchange contribution is evaluated for MOs 1 to 38.
   1% done.
  14% done.
  25% done.
  38% done.
  49% done.
  64% done.
  75% done.
  89% done.
 100% done.
 CPU time [min]:     2.505                   Wall time [min]:     0.117
 
 Fitting and assembly step of exchange...
 CPU time [min]:     2.510                   Wall time [min]:     0.117
 
 Second step of Coulomb...
   1% done.
  14% done.
  25% done.
  38% done.
  49% done.
  64% done.
  75% done.
  89% done.
 100% done.
 CPU time [min]:     2.540                   Wall time [min]:     0.118
 
 Gradient norm:      1.8406E-06
 DIIS is running in this iteration step.
 RMS of [F,P]:                                         0.00000001531994
 RMS of difference density:                            0.00000018847375
 Gap [au]:  0.18879602
 ALPHA OCC:  38
 BETA  OCC:  38
 
 ***HARTREE-FOCK ENERGY IN STEP  16 IS       -539.1022708527871146 [AU]
 
 Step comparison  Energy Drift [au]  DIIS error drift  Gradient drift
       15            2.3874E-11         1.3357E-08       9.6818E-07
 ======================================================================
 ITERATION STEP  17
 CPU time [min]:     2.547                   Wall time [min]:     0.119
 

 SCF control                  : diis
 Damping factor/level shift   : 0.000/0.000
 DIIS [start/end/frequency]   :   2 / 50 /  1

 Constructing Fock-matrix...
 
 Pipek-Mezey localization...
 Step  Convergence
   1  12.384402998867
   2   7.431995922333
   3   8.848250000918
   4   3.615241541965
   5   0.976093147172
   6   0.033267217497
   7   0.004618954883
   8   0.000944594510
   9   0.000226968970
  10   0.000055169705
  11   0.000013337462
  12   0.000003287035
  13   0.000000768467
  14   0.000000184038
  15   0.000000148724
  16   0.000000069371
  17   0.000000003308
  18   0.000000000670
  19   0.000000000168
  20   0.000000000040
  21   0.000000000010
  22   0.000000000002
  23   0.000000000001
 CPU time [min]:     2.571                   Wall time [min]:     0.120
 
 Constructing local fitting domains...
 Local fitting domains are unchanged.
 
 First step of Coulomb + first step of exchange...
 Exchange contribution is evaluated for MOs 1 to 38.
   1% done.
  14% done.
  25% done.
  38% done.
  49% done.
  64% done.
  75% done.
  89% done.
 100% done.
 CPU time [min]:     2.656                   Wall time [min]:     0.123
 
 Fitting and assembly step of exchange...
 CPU time [min]:     2.662                   Wall time [min]:     0.124
 
 Second step of Coulomb...
   1% done.
  14% done.
  25% done.
  38% done.
  49% done.
  64% done.
  75% done.
  89% done.
 100% done.
 CPU time [min]:     2.691                   Wall time [min]:     0.125
 
 Gradient norm:      7.9191E-07
 DIIS is running in this iteration step.
 RMS of [F,P]:                                         0.00000000857272
 RMS of difference density:                            0.00000009260333
 Gap [au]:  0.18879602
 ALPHA OCC:  38
 BETA  OCC:  38
 
 ***HARTREE-FOCK ENERGY IN STEP  17 IS       -539.1022708527987106 [AU]
 
 Step comparison  Energy Drift [au]  DIIS error drift  Gradient drift
       16            1.1596E-11         6.7472E-09       1.0487E-06
 ======================================================================
 
 SUCCESS...
 THE SCF ITERATION HAS CONVERGED!
 
                   A   
 FINAL ALPHA OCC:  38
 FINAL BETA  OCC:  38
 
 ***FINAL HARTREE-FOCK ENERGY:       -539.1022708527987106 [AU]
 
 Orbital energies [au]:
      Irrep         Alpha          Beta
    1   A         -4.677663      -4.677663
    2   A         -4.677534      -4.677534
    3   A         -4.676748      -4.676748
    4   A         -4.676741      -4.676741
    5   A         -2.753164      -2.753164
    6   A         -2.752053      -2.752053
    7   A         -2.739587      -2.739587
    8   A         -2.739444      -2.739444
    9   A         -2.739307      -2.739307
   10   A         -2.737846      -2.737846
   11   A         -2.737606      -2.737606
   12   A         -2.737578      -2.737578
   13   A         -2.736824      -2.736824
   14   A         -2.736810      -2.736810
   15   A         -2.736149      -2.736149
   16   A         -2.736119      -2.736119
   17   A         -0.545250      -0.545250
   18   A         -0.525030      -0.525030
   19   A         -0.523687      -0.523687
   20   A         -0.511218      -0.511218
   21   A         -0.511094      -0.511094
   22   A         -0.491612      -0.491612
   23   A         -0.477576      -0.477576
   24   A         -0.477094      -0.477094
   25   A         -0.475642      -0.475642
   26   A         -0.456692      -0.456692
   27   A         -0.454780      -0.454780
   28   A         -0.446683      -0.446683
   29   A         -0.446033      -0.446033
   30   A         -0.432531      -0.432531
   31   A         -0.432177      -0.432177
   32   A         -0.431059      -0.431059
   33   A         -0.430679      -0.430679
   34   A         -0.421663      -0.421663
   35   A         -0.405338      -0.405338
   36   A         -0.404101      -0.404101
   37   A         -0.372008      -0.372008
   38   A         -0.208872      -0.208872
 
   39   A         -0.020076      -0.020076
   40   A         -0.018703      -0.018703
   41   A          0.061353       0.061353
   42   A          0.082259       0.082259
   43   A          0.083136       0.083136
   44   A          0.090893       0.090893
   45   A          0.094300       0.094300
   46   A          0.112987       0.112987
   47   A          0.172658       0.172658
   48   A          0.182859       0.182859
   49   A          0.187517       0.187517
   50   A          0.188761       0.188761
   51   A          0.193855       0.193855
   52   A          0.194139       0.194139
   53   A          0.317980       0.317980
   54   A          0.351040       0.351040
   55   A          0.353471       0.353471
   56   A          0.362741       0.362741
   57   A          0.561203       0.561203
   58   A          0.595095       0.595095
   59   A          0.596460       0.596460
   60   A          0.606919       0.606919
   61   A          0.643584       0.643584
   62   A          0.643668       0.643668
   63   A          0.665681       0.665681
   64   A          0.700140       0.700140
   65   A          0.701516       0.701516
   66   A          0.704854       0.704854
   67   A          0.715667       0.715667
   68   A          0.730073       0.730073
   69   A          0.756135       0.756135
   70   A          0.761281       0.761281
   71   A          0.802985       0.802985
   72   A          0.804844       0.804844
   73   A          0.811505       0.811505
   74   A          0.827442       0.827442
   75   A          0.835564       0.835564
   76   A          0.843465       0.843465
   77   A          0.992935       0.992935
   78   A          1.021822       1.021822
   79   A          1.063170       1.063170
   80   A          1.119871       1.119871
   81   A          1.120551       1.120551
   82   A          1.196730       1.196730
   83   A          1.227607       1.227607
   84   A          1.239149       1.239149
   85   A          1.251992       1.251992
   86   A          1.379081       1.379081
   87   A          1.495312       1.495312
   88   A          1.497522       1.497522
   89   A          1.759029       1.759029
   90   A          1.787574       1.787574
   91   A          1.788215       1.788215
   92   A          1.793210       1.793210
   93   A          1.823953       1.823953
   94   A          1.830513       1.830513
   95   A          1.840843       1.840843
   96   A          1.841157       1.841157
   97   A          1.846405       1.846405
   98   A          1.846613       1.846613
   99   A          1.868549       1.868549
  100   A          1.869687       1.869687
  101   A          1.875201       1.875201
  102   A          1.879775       1.879775
  103   A          1.879840       1.879840
  104   A          1.881177       1.881177
  105   A          1.884385       1.884385
  106   A          1.896283       1.896283
  107   A          1.899695       1.899695
  108   A          1.909055       1.909055
  109   A          1.910598       1.910598
  110   A          1.968258       1.968258
  111   A          1.995517       1.995517
  112   A          2.005250       2.005250
  113   A          2.006556       2.006556
  114   A          2.007194       2.007194
  115   A          2.158421       2.158421
  116   A          2.160050       2.160050
  117   A          2.262333       2.262333
  118   A          2.437615       2.437615
  119   A          2.437727       2.437727
  120   A          2.463545       2.463545
  121   A         41.873247      41.873247
  122   A         41.947520      41.947520
  123   A         41.948930      41.948930
  124   A         42.040096      42.040096
  125   A        200.225649     200.225649
  126   A        200.264004     200.264004
  127   A        200.264666     200.264666
  128   A        200.309410     200.309410
 
 RETURNING FROM SCF ALGORITHM
 ======================================================================

 ************************ 2022-11-11 19:50:20 *************************
 Executing integ...

 Allocation of 150.0 Gbytes of memory...
 
 
 Number of atoms:                  4
 Charge:                           0
 Number of electrons:             76
 Number of core electrons:         0
 Spin multiplicity:                1
 
                 Cartesian coordinates [bohr]      Atomic mass [AMU]  Z
   1  Au    2.53653436    0.82839285    2.36187456   196.966543      79
   2  Au    0.02876328   -0.26928762   -2.57577130   196.966543      79
   3  Au   -0.91361718   -2.47118627    2.57577130   196.966543      79
   4  Au   -2.53653436    2.47118627    0.37777953   196.966543      79
 
 This molecule is an asymmetric top.
 
 Point group: C1  
 Computational point group: C1  
 
 Cartesian coordinates in standard orientation [bohr]
   1  Au    2.27932454   -1.72212867   -1.65242752
   2  Au   -2.26719807   -1.68826983    1.69453388
   3  Au    2.26933533    1.73120043    1.65074343
   4  Au   -2.28146180    1.67919807   -1.69284979
 
 Nuclear repulsion energy [au]:        405.981725271968
 
 
 Basis set information:
 
 Maximum angular momentum: k
 Maximum number of contracted Gaussians:   13
 Maximum number of primitive Gaussians:    17
 Spherical harmonic GTOs are used.
 
 
 Conventional basis set:
 
   1  Au bse_acvqz [ 17s 14p 13d 5f 4g 3h | 9s 9p 8d 5f 4g 3h ]
   2  Au bse_acvqz [ 17s 14p 13d 5f 4g 3h | 9s 9p 8d 5f 4g 3h ]
   3  Au bse_acvqz [ 17s 14p 13d 5f 4g 3h | 9s 9p 8d 5f 4g 3h ]
   4  Au bse_acvqz [ 17s 14p 13d 5f 4g 3h | 9s 9p 8d 5f 4g 3h ]
 
 Basis functions:
            1             2             3             4             5             6             7             8             9            10
    0    1Au1s         1Au2s         1Au3s         1Au4s         1Au5s         1Au6s         1Au7s         1Au8s         1Au9s         1Au1pz    
    1    1Au1py        1Au1px        1Au2pz        1Au2py        1Au2px        1Au3pz        1Au3py        1Au3px        1Au4pz        1Au4py    
    2    1Au4px        1Au5pz        1Au5py        1Au5px        1Au6pz        1Au6py        1Au6px        1Au7pz        1Au7py        1Au7px    
    3    1Au8pz        1Au8py        1Au8px        1Au9pz        1Au9py        1Au9px        1Au1d-2       1Au1d-1       1Au1d0        1Au1d+1   
    4    1Au1d+2       1Au2d-2       1Au2d-1       1Au2d0        1Au2d+1       1Au2d+2       1Au3d-2       1Au3d-1       1Au3d0        1Au3d+1   
    5    1Au3d+2       1Au4d-2       1Au4d-1       1Au4d0        1Au4d+1       1Au4d+2       1Au5d-2       1Au5d-1       1Au5d0        1Au5d+1   
    6    1Au5d+2       1Au6d-2       1Au6d-1       1Au6d0        1Au6d+1       1Au6d+2       1Au7d-2       1Au7d-1       1Au7d0        1Au7d+1   
    7    1Au7d+2       1Au8d-2       1Au8d-1       1Au8d0        1Au8d+1       1Au8d+2       1Au1f-3       1Au1f-2       1Au1f-1       1Au1f0    
    8    1Au1f+1       1Au1f+2       1Au1f+3       1Au2f-3       1Au2f-2       1Au2f-1       1Au2f0        1Au2f+1       1Au2f+2       1Au2f+3   
    9    1Au3f-3       1Au3f-2       1Au3f-1       1Au3f0        1Au3f+1       1Au3f+2       1Au3f+3       1Au4f-3       1Au4f-2       1Au4f-1   
   10    1Au4f0        1Au4f+1       1Au4f+2       1Au4f+3       1Au5f-3       1Au5f-2       1Au5f-1       1Au5f0        1Au5f+1       1Au5f+2   
   11    1Au5f+3       1Au1g-4       1Au1g-3       1Au1g-2       1Au1g-1       1Au1g0        1Au1g+1       1Au1g+2       1Au1g+3       1Au1g+4   
   12    1Au2g-4       1Au2g-3       1Au2g-2       1Au2g-1       1Au2g0        1Au2g+1       1Au2g+2       1Au2g+3       1Au2g+4       1Au3g-4   
   13    1Au3g-3       1Au3g-2       1Au3g-1       1Au3g0        1Au3g+1       1Au3g+2       1Au3g+3       1Au3g+4       1Au4g-4       1Au4g-3   
   14    1Au4g-2       1Au4g-1       1Au4g0        1Au4g+1       1Au4g+2       1Au4g+3       1Au4g+4       1Au1h-5       1Au1h-4       1Au1h-3   
   15    1Au1h-2       1Au1h-1       1Au1h0        1Au1h+1       1Au1h+2       1Au1h+3       1Au1h+4       1Au1h+5       1Au2h-5       1Au2h-4   
   16    1Au2h-3       1Au2h-2       1Au2h-1       1Au2h0        1Au2h+1       1Au2h+2       1Au2h+3       1Au2h+4       1Au2h+5       1Au3h-5   
   17    1Au3h-4       1Au3h-3       1Au3h-2       1Au3h-1       1Au3h0        1Au3h+1       1Au3h+2       1Au3h+3       1Au3h+4       1Au3h+5   
   18    2Au1s         2Au2s         2Au3s         2Au4s         2Au5s         2Au6s         2Au7s         2Au8s         2Au9s         2Au1pz    
   19    2Au1py        2Au1px        2Au2pz        2Au2py        2Au2px        2Au3pz        2Au3py        2Au3px        2Au4pz        2Au4py    
   20    2Au4px        2Au5pz        2Au5py        2Au5px        2Au6pz        2Au6py        2Au6px        2Au7pz        2Au7py        2Au7px    
   21    2Au8pz        2Au8py        2Au8px        2Au9pz        2Au9py        2Au9px        2Au1d-2       2Au1d-1       2Au1d0        2Au1d+1   
   22    2Au1d+2       2Au2d-2       2Au2d-1       2Au2d0        2Au2d+1       2Au2d+2       2Au3d-2       2Au3d-1       2Au3d0        2Au3d+1   
   23    2Au3d+2       2Au4d-2       2Au4d-1       2Au4d0        2Au4d+1       2Au4d+2       2Au5d-2       2Au5d-1       2Au5d0        2Au5d+1   
   24    2Au5d+2       2Au6d-2       2Au6d-1       2Au6d0        2Au6d+1       2Au6d+2       2Au7d-2       2Au7d-1       2Au7d0        2Au7d+1   
   25    2Au7d+2       2Au8d-2       2Au8d-1       2Au8d0        2Au8d+1       2Au8d+2       2Au1f-3       2Au1f-2       2Au1f-1       2Au1f0    
   26    2Au1f+1       2Au1f+2       2Au1f+3       2Au2f-3       2Au2f-2       2Au2f-1       2Au2f0        2Au2f+1       2Au2f+2       2Au2f+3   
   27    2Au3f-3       2Au3f-2       2Au3f-1       2Au3f0        2Au3f+1       2Au3f+2       2Au3f+3       2Au4f-3       2Au4f-2       2Au4f-1   
   28    2Au4f0        2Au4f+1       2Au4f+2       2Au4f+3       2Au5f-3       2Au5f-2       2Au5f-1       2Au5f0        2Au5f+1       2Au5f+2   
   29    2Au5f+3       2Au1g-4       2Au1g-3       2Au1g-2       2Au1g-1       2Au1g0        2Au1g+1       2Au1g+2       2Au1g+3       2Au1g+4   
   30    2Au2g-4       2Au2g-3       2Au2g-2       2Au2g-1       2Au2g0        2Au2g+1       2Au2g+2       2Au2g+3       2Au2g+4       2Au3g-4   
   31    2Au3g-3       2Au3g-2       2Au3g-1       2Au3g0        2Au3g+1       2Au3g+2       2Au3g+3       2Au3g+4       2Au4g-4       2Au4g-3   
   32    2Au4g-2       2Au4g-1       2Au4g0        2Au4g+1       2Au4g+2       2Au4g+3       2Au4g+4       2Au1h-5       2Au1h-4       2Au1h-3   
   33    2Au1h-2       2Au1h-1       2Au1h0        2Au1h+1       2Au1h+2       2Au1h+3       2Au1h+4       2Au1h+5       2Au2h-5       2Au2h-4   
   34    2Au2h-3       2Au2h-2       2Au2h-1       2Au2h0        2Au2h+1       2Au2h+2       2Au2h+3       2Au2h+4       2Au2h+5       2Au3h-5   
   35    2Au3h-4       2Au3h-3       2Au3h-2       2Au3h-1       2Au3h0        2Au3h+1       2Au3h+2       2Au3h+3       2Au3h+4       2Au3h+5   
   36    3Au1s         3Au2s         3Au3s         3Au4s         3Au5s         3Au6s         3Au7s         3Au8s         3Au9s         3Au1pz    
   37    3Au1py        3Au1px        3Au2pz        3Au2py        3Au2px        3Au3pz        3Au3py        3Au3px        3Au4pz        3Au4py    
   38    3Au4px        3Au5pz        3Au5py        3Au5px        3Au6pz        3Au6py        3Au6px        3Au7pz        3Au7py        3Au7px    
   39    3Au8pz        3Au8py        3Au8px        3Au9pz        3Au9py        3Au9px        3Au1d-2       3Au1d-1       3Au1d0        3Au1d+1   
   40    3Au1d+2       3Au2d-2       3Au2d-1       3Au2d0        3Au2d+1       3Au2d+2       3Au3d-2       3Au3d-1       3Au3d0        3Au3d+1   
   41    3Au3d+2       3Au4d-2       3Au4d-1       3Au4d0        3Au4d+1       3Au4d+2       3Au5d-2       3Au5d-1       3Au5d0        3Au5d+1   
   42    3Au5d+2       3Au6d-2       3Au6d-1       3Au6d0        3Au6d+1       3Au6d+2       3Au7d-2       3Au7d-1       3Au7d0        3Au7d+1   
   43    3Au7d+2       3Au8d-2       3Au8d-1       3Au8d0        3Au8d+1       3Au8d+2       3Au1f-3       3Au1f-2       3Au1f-1       3Au1f0    
   44    3Au1f+1       3Au1f+2       3Au1f+3       3Au2f-3       3Au2f-2       3Au2f-1       3Au2f0        3Au2f+1       3Au2f+2       3Au2f+3   
   45    3Au3f-3       3Au3f-2       3Au3f-1       3Au3f0        3Au3f+1       3Au3f+2       3Au3f+3       3Au4f-3       3Au4f-2       3Au4f-1   
   46    3Au4f0        3Au4f+1       3Au4f+2       3Au4f+3       3Au5f-3       3Au5f-2       3Au5f-1       3Au5f0        3Au5f+1       3Au5f+2   
   47    3Au5f+3       3Au1g-4       3Au1g-3       3Au1g-2       3Au1g-1       3Au1g0        3Au1g+1       3Au1g+2       3Au1g+3       3Au1g+4   
   48    3Au2g-4       3Au2g-3       3Au2g-2       3Au2g-1       3Au2g0        3Au2g+1       3Au2g+2       3Au2g+3       3Au2g+4       3Au3g-4   
   49    3Au3g-3       3Au3g-2       3Au3g-1       3Au3g0        3Au3g+1       3Au3g+2       3Au3g+3       3Au3g+4       3Au4g-4       3Au4g-3   
   50    3Au4g-2       3Au4g-1       3Au4g0        3Au4g+1       3Au4g+2       3Au4g+3       3Au4g+4       3Au1h-5       3Au1h-4       3Au1h-3   
   51    3Au1h-2       3Au1h-1       3Au1h0        3Au1h+1       3Au1h+2       3Au1h+3       3Au1h+4       3Au1h+5       3Au2h-5       3Au2h-4   
   52    3Au2h-3       3Au2h-2       3Au2h-1       3Au2h0        3Au2h+1       3Au2h+2       3Au2h+3       3Au2h+4       3Au2h+5       3Au3h-5   
   53    3Au3h-4       3Au3h-3       3Au3h-2       3Au3h-1       3Au3h0        3Au3h+1       3Au3h+2       3Au3h+3       3Au3h+4       3Au3h+5   
   54    4Au1s         4Au2s         4Au3s         4Au4s         4Au5s         4Au6s         4Au7s         4Au8s         4Au9s         4Au1pz    
   55    4Au1py        4Au1px        4Au2pz        4Au2py        4Au2px        4Au3pz        4Au3py        4Au3px        4Au4pz        4Au4py    
   56    4Au4px        4Au5pz        4Au5py        4Au5px        4Au6pz        4Au6py        4Au6px        4Au7pz        4Au7py        4Au7px    
   57    4Au8pz        4Au8py        4Au8px        4Au9pz        4Au9py        4Au9px        4Au1d-2       4Au1d-1       4Au1d0        4Au1d+1   
   58    4Au1d+2       4Au2d-2       4Au2d-1       4Au2d0        4Au2d+1       4Au2d+2       4Au3d-2       4Au3d-1       4Au3d0        4Au3d+1   
   59    4Au3d+2       4Au4d-2       4Au4d-1       4Au4d0        4Au4d+1       4Au4d+2       4Au5d-2       4Au5d-1       4Au5d0        4Au5d+1   
   60    4Au5d+2       4Au6d-2       4Au6d-1       4Au6d0        4Au6d+1       4Au6d+2       4Au7d-2       4Au7d-1       4Au7d0        4Au7d+1   
   61    4Au7d+2       4Au8d-2       4Au8d-1       4Au8d0        4Au8d+1       4Au8d+2       4Au1f-3       4Au1f-2       4Au1f-1       4Au1f0    
   62    4Au1f+1       4Au1f+2       4Au1f+3       4Au2f-3       4Au2f-2       4Au2f-1       4Au2f0        4Au2f+1       4Au2f+2       4Au2f+3   
   63    4Au3f-3       4Au3f-2       4Au3f-1       4Au3f0        4Au3f+1       4Au3f+2       4Au3f+3       4Au4f-3       4Au4f-2       4Au4f-1   
   64    4Au4f0        4Au4f+1       4Au4f+2       4Au4f+3       4Au5f-3       4Au5f-2       4Au5f-1       4Au5f0        4Au5f+1       4Au5f+2   
   65    4Au5f+3       4Au1g-4       4Au1g-3       4Au1g-2       4Au1g-1       4Au1g0        4Au1g+1       4Au1g+2       4Au1g+3       4Au1g+4   
   66    4Au2g-4       4Au2g-3       4Au2g-2       4Au2g-1       4Au2g0        4Au2g+1       4Au2g+2       4Au2g+3       4Au2g+4       4Au3g-4   
   67    4Au3g-3       4Au3g-2       4Au3g-1       4Au3g0        4Au3g+1       4Au3g+2       4Au3g+3       4Au3g+4       4Au4g-4       4Au4g-3   
   68    4Au4g-2       4Au4g-1       4Au4g0        4Au4g+1       4Au4g+2       4Au4g+3       4Au4g+4       4Au1h-5       4Au1h-4       4Au1h-3   
   69    4Au1h-2       4Au1h-1       4Au1h0        4Au1h+1       4Au1h+2       4Au1h+3       4Au1h+4       4Au1h+5       4Au2h-5       4Au2h-4   
   70    4Au2h-3       4Au2h-2       4Au2h-1       4Au2h0        4Au2h+1       4Au2h+2       4Au2h+3       4Au2h+4       4Au2h+5       4Au3h-5   
   71    4Au3h-4       4Au3h-3       4Au3h-2       4Au3h-1       4Au3h0        4Au3h+1       4Au3h+2       4Au3h+3       4Au3h+4       4Au3h+5   
 
 Maximum number of basis functions per shell:   40
 Total number of basis functions:    720
 
 
 Fitting basis set for the SCF calculation:
 
   1  Au def2-qzvpp-ri-jk [ 13s 12p 11d 9f 5g 3h 2i | 13s 11p 10d 8f 4g 3h 2i ]
   2  Au def2-qzvpp-ri-jk [ 13s 12p 11d 9f 5g 3h 2i | 13s 11p 10d 8f 4g 3h 2i ]
   3  Au def2-qzvpp-ri-jk [ 13s 12p 11d 9f 5g 3h 2i | 13s 11p 10d 8f 4g 3h 2i ]
   4  Au def2-qzvpp-ri-jk [ 13s 12p 11d 9f 5g 3h 2i | 13s 11p 10d 8f 4g 3h 2i ]
 
 Basis functions:
            1             2             3             4             5             6             7             8             9            10
    0    1Au1s         1Au2s         1Au3s         1Au4s         1Au5s         1Au6s         1Au7s         1Au8s         1Au9s         1Au10s    
[...]
  131    3Au2i-6       3Au2i-5       3Au2i-4       3Au2i-3       3Au2i-2       3Au2i-1       3Au2i0        3Au2i+1       3Au2i+2       3Au2i+3   
  132    3Au2i+4       3Au2i+5       3Au2i+6       3Au3i-6       3Au3i-5       3Au3i-4       3Au3i-3       3Au3i-2       3Au3i-1       3Au3i0    
  133    3Au3i+1       3Au3i+2       3Au3i+3       3Au3i+4       3Au3i+5       3Au3i+6       3Au4i-6       3Au4i-5       3Au4i-4       3Au4i-3   
  134    3Au4i-2       3Au4i-1       3Au4i0        3Au4i+1       3Au4i+2       3Au4i+3       3Au4i+4       3Au4i+5       3Au4i+6       3Au5i-6   
  135    3Au5i-5       3Au5i-4       3Au5i-3       3Au5i-2       3Au5i-1       3Au5i0        3Au5i+1       3Au5i+2       3Au5i+3       3Au5i+4   
  136    3Au5i+5       3Au5i+6       3Au1k-7       3Au1k-6       3Au1k-5       3Au1k-4       3Au1k-3       3Au1k-2       3Au1k-1       3Au1k0    
  137    3Au1k+1       3Au1k+2       3Au1k+3       3Au1k+4       3Au1k+5       3Au1k+6       3Au1k+7       3Au2k-7       3Au2k-6       3Au2k-5   
  138    3Au2k-4       3Au2k-3       3Au2k-2       3Au2k-1       3Au2k0        3Au2k+1       3Au2k+2       3Au2k+3       3Au2k+4       3Au2k+5   
  139    3Au2k+6       3Au2k+7       3Au3k-7       3Au3k-6       3Au3k-5       3Au3k-4       3Au3k-3       3Au3k-2       3Au3k-1       3Au3k0    
  140    3Au3k+1       3Au3k+2       3Au3k+3       3Au3k+4       3Au3k+5       3Au3k+6       3Au3k+7       3Au4k-7       3Au4k-6       3Au4k-5   
  141    3Au4k-4       3Au4k-3       3Au4k-2       3Au4k-1       3Au4k0        3Au4k+1       3Au4k+2       3Au4k+3       3Au4k+4       3Au4k+5   
  142    3Au4k+6       3Au4k+7       4Au1s         4Au2s         4Au3s         4Au4s         4Au5s         4Au6s         4Au7s         4Au8s     
  143    4Au9s         4Au10s        4Au11s        4Au12s        4Au13s        4Au1pz        4Au1py        4Au1px        4Au2pz        4Au2py    
  144    4Au2px        4Au3pz        4Au3py        4Au3px        4Au4pz        4Au4py        4Au4px        4Au5pz        4Au5py        4Au5px    
  145    4Au6pz        4Au6py        4Au6px        4Au7pz        4Au7py        4Au7px        4Au8pz        4Au8py        4Au8px        4Au9pz    
  146    4Au9py        4Au9px        4Au10pz       4Au10py       4Au10px       4Au11pz       4Au11py       4Au11px       4Au12pz       4Au12py   
  147    4Au12px       4Au13pz       4Au13py       4Au13px       4Au1d-2       4Au1d-1       4Au1d0        4Au1d+1       4Au1d+2       4Au2d-2   
  148    4Au2d-1       4Au2d0        4Au2d+1       4Au2d+2       4Au3d-2       4Au3d-1       4Au3d0        4Au3d+1       4Au3d+2       4Au4d-2   
  149    4Au4d-1       4Au4d0        4Au4d+1       4Au4d+2       4Au5d-2       4Au5d-1       4Au5d0        4Au5d+1       4Au5d+2       4Au6d-2   
  150    4Au6d-1       4Au6d0        4Au6d+1       4Au6d+2       4Au7d-2       4Au7d-1       4Au7d0        4Au7d+1       4Au7d+2       4Au8d-2   
  151    4Au8d-1       4Au8d0        4Au8d+1       4Au8d+2       4Au9d-2       4Au9d-1       4Au9d0        4Au9d+1       4Au9d+2       4Au10d-2  
  152    4Au10d-1      4Au10d0       4Au10d+1      4Au10d+2      4Au11d-2      4Au11d-1      4Au11d0       4Au11d+1      4Au11d+2      4Au12d-2  
  153    4Au12d-1      4Au12d0       4Au12d+1      4Au12d+2      4Au1f-3       4Au1f-2       4Au1f-1       4Au1f0        4Au1f+1       4Au1f+2   
  154    4Au1f+3       4Au2f-3       4Au2f-2       4Au2f-1       4Au2f0        4Au2f+1       4Au2f+2       4Au2f+3       4Au3f-3       4Au3f-2   
  155    4Au3f-1       4Au3f0        4Au3f+1       4Au3f+2       4Au3f+3       4Au4f-3       4Au4f-2       4Au4f-1       4Au4f0        4Au4f+1   
  156    4Au4f+2       4Au4f+3       4Au5f-3       4Au5f-2       4Au5f-1       4Au5f0        4Au5f+1       4Au5f+2       4Au5f+3       4Au6f-3   
  157    4Au6f-2       4Au6f-1       4Au6f0        4Au6f+1       4Au6f+2       4Au6f+3       4Au7f-3       4Au7f-2       4Au7f-1       4Au7f0    
  158    4Au7f+1       4Au7f+2       4Au7f+3       4Au8f-3       4Au8f-2       4Au8f-1       4Au8f0        4Au8f+1       4Au8f+2       4Au8f+3   
  159    4Au9f-3       4Au9f-2       4Au9f-1       4Au9f0        4Au9f+1       4Au9f+2       4Au9f+3       4Au10f-3      4Au10f-2      4Au10f-1  
  160    4Au10f0       4Au10f+1      4Au10f+2      4Au10f+3      4Au1g-4       4Au1g-3       4Au1g-2       4Au1g-1       4Au1g0        4Au1g+1   
  161    4Au1g+2       4Au1g+3       4Au1g+4       4Au2g-4       4Au2g-3       4Au2g-2       4Au2g-1       4Au2g0        4Au2g+1       4Au2g+2   
  162    4Au2g+3       4Au2g+4       4Au3g-4       4Au3g-3       4Au3g-2       4Au3g-1       4Au3g0        4Au3g+1       4Au3g+2       4Au3g+3   
  163    4Au3g+4       4Au4g-4       4Au4g-3       4Au4g-2       4Au4g-1       4Au4g0        4Au4g+1       4Au4g+2       4Au4g+3       4Au4g+4   
  164    4Au5g-4       4Au5g-3       4Au5g-2       4Au5g-1       4Au5g0        4Au5g+1       4Au5g+2       4Au5g+3       4Au5g+4       4Au6g-4   
  165    4Au6g-3       4Au6g-2       4Au6g-1       4Au6g0        4Au6g+1       4Au6g+2       4Au6g+3       4Au6g+4       4Au7g-4       4Au7g-3   
  166    4Au7g-2       4Au7g-1       4Au7g0        4Au7g+1       4Au7g+2       4Au7g+3       4Au7g+4       4Au8g-4       4Au8g-3       4Au8g-2   
  167    4Au8g-1       4Au8g0        4Au8g+1       4Au8g+2       4Au8g+3       4Au8g+4       4Au9g-4       4Au9g-3       4Au9g-2       4Au9g-1   
  168    4Au9g0        4Au9g+1       4Au9g+2       4Au9g+3       4Au9g+4       4Au10g-4      4Au10g-3      4Au10g-2      4Au10g-1      4Au10g0   
  169    4Au10g+1      4Au10g+2      4Au10g+3      4Au10g+4      4Au1h-5       4Au1h-4       4Au1h-3       4Au1h-2       4Au1h-1       4Au1h0    
  170    4Au1h+1       4Au1h+2       4Au1h+3       4Au1h+4       4Au1h+5       4Au2h-5       4Au2h-4       4Au2h-3       4Au2h-2       4Au2h-1   
  171    4Au2h0        4Au2h+1       4Au2h+2       4Au2h+3       4Au2h+4       4Au2h+5       4Au3h-5       4Au3h-4       4Au3h-3       4Au3h-2   
  172    4Au3h-1       4Au3h0        4Au3h+1       4Au3h+2       4Au3h+3       4Au3h+4       4Au3h+5       4Au4h-5       4Au4h-4       4Au4h-3   
  173    4Au4h-2       4Au4h-1       4Au4h0        4Au4h+1       4Au4h+2       4Au4h+3       4Au4h+4       4Au4h+5       4Au5h-5       4Au5h-4   
  174    4Au5h-3       4Au5h-2       4Au5h-1       4Au5h0        4Au5h+1       4Au5h+2       4Au5h+3       4Au5h+4       4Au5h+5       4Au6h-5   
  175    4Au6h-4       4Au6h-3       4Au6h-2       4Au6h-1       4Au6h0        4Au6h+1       4Au6h+2       4Au6h+3       4Au6h+4       4Au6h+5   
  176    4Au7h-5       4Au7h-4       4Au7h-3       4Au7h-2       4Au7h-1       4Au7h0        4Au7h+1       4Au7h+2       4Au7h+3       4Au7h+4   
  177    4Au7h+5       4Au1i-6       4Au1i-5       4Au1i-4       4Au1i-3       4Au1i-2       4Au1i-1       4Au1i0        4Au1i+1       4Au1i+2   
  178    4Au1i+3       4Au1i+4       4Au1i+5       4Au1i+6       4Au2i-6       4Au2i-5       4Au2i-4       4Au2i-3       4Au2i-2       4Au2i-1   
  179    4Au2i0        4Au2i+1       4Au2i+2       4Au2i+3       4Au2i+4       4Au2i+5       4Au2i+6       4Au3i-6       4Au3i-5       4Au3i-4   
  180    4Au3i-3       4Au3i-2       4Au3i-1       4Au3i0        4Au3i+1       4Au3i+2       4Au3i+3       4Au3i+4       4Au3i+5       4Au3i+6   
  181    4Au4i-6       4Au4i-5       4Au4i-4       4Au4i-3       4Au4i-2       4Au4i-1       4Au4i0        4Au4i+1       4Au4i+2       4Au4i+3   
  182    4Au4i+4       4Au4i+5       4Au4i+6       4Au5i-6       4Au5i-5       4Au5i-4       4Au5i-3       4Au5i-2       4Au5i-1       4Au5i0    
  183    4Au5i+1       4Au5i+2       4Au5i+3       4Au5i+4       4Au5i+5       4Au5i+6       4Au1k-7       4Au1k-6       4Au1k-5       4Au1k-4   
  184    4Au1k-3       4Au1k-2       4Au1k-1       4Au1k0        4Au1k+1       4Au1k+2       4Au1k+3       4Au1k+4       4Au1k+5       4Au1k+6   
  185    4Au1k+7       4Au2k-7       4Au2k-6       4Au2k-5       4Au2k-4       4Au2k-3       4Au2k-2       4Au2k-1       4Au2k0        4Au2k+1   
  186    4Au2k+2       4Au2k+3       4Au2k+4       4Au2k+5       4Au2k+6       4Au2k+7       4Au3k-7       4Au3k-6       4Au3k-5       4Au3k-4   
  187    4Au3k-3       4Au3k-2       4Au3k-1       4Au3k0        4Au3k+1       4Au3k+2       4Au3k+3       4Au3k+4       4Au3k+5       4Au3k+6   
  188    4Au3k+7       4Au4k-7       4Au4k-6       4Au4k-5       4Au4k-4       4Au4k-3       4Au4k-2       4Au4k-1       4Au4k0        4Au4k+1   
  189    4Au4k+2       4Au4k+3       4Au4k+4       4Au4k+5       4Au4k+6       4Au4k+7   
 
 Maximum number of basis functions per shell:   90
 Total number of basis functions:   1896
 
 
 Old basis set for SCF restart
 
   1  Au def2-svp [ 7s 6p 5d 1f | 6s 3p 2d 1f ]
   2  Au def2-svp [ 7s 6p 5d 1f | 6s 3p 2d 1f ]
   3  Au def2-svp [ 7s 6p 5d 1f | 6s 3p 2d 1f ]
   4  Au def2-svp [ 7s 6p 5d 1f | 6s 3p 2d 1f ]
 
 Basis functions:
            1             2             3             4             5             6             7             8             9            10
    0    1Au1s         1Au2s         1Au3s         1Au4s         1Au5s         1Au6s         1Au1pz        1Au1py        1Au1px        1Au2pz    
    1    1Au2py        1Au2px        1Au3pz        1Au3py        1Au3px        1Au1d-2       1Au1d-1       1Au1d0        1Au1d+1       1Au1d+2   
    2    1Au2d-2       1Au2d-1       1Au2d0        1Au2d+1       1Au2d+2       1Au1f-3       1Au1f-2       1Au1f-1       1Au1f0        1Au1f+1   
    3    1Au1f+2       1Au1f+3       2Au1s         2Au2s         2Au3s         2Au4s         2Au5s         2Au6s         2Au1pz        2Au1py    
    4    2Au1px        2Au2pz        2Au2py        2Au2px        2Au3pz        2Au3py        2Au3px        2Au1d-2       2Au1d-1       2Au1d0    
    5    2Au1d+1       2Au1d+2       2Au2d-2       2Au2d-1       2Au2d0        2Au2d+1       2Au2d+2       2Au1f-3       2Au1f-2       2Au1f-1   
    6    2Au1f0        2Au1f+1       2Au1f+2       2Au1f+3       3Au1s         3Au2s         3Au3s         3Au4s         3Au5s         3Au6s     
    7    3Au1pz        3Au1py        3Au1px        3Au2pz        3Au2py        3Au2px        3Au3pz        3Au3py        3Au3px        3Au1d-2   
    8    3Au1d-1       3Au1d0        3Au1d+1       3Au1d+2       3Au2d-2       3Au2d-1       3Au2d0        3Au2d+1       3Au2d+2       3Au1f-3   
    9    3Au1f-2       3Au1f-1       3Au1f0        3Au1f+1       3Au1f+2       3Au1f+3       4Au1s         4Au2s         4Au3s         4Au4s     
   10    4Au5s         4Au6s         4Au1pz        4Au1py        4Au1px        4Au2pz        4Au2py        4Au2px        4Au3pz        4Au3py    
   11    4Au3px        4Au1d-2       4Au1d-1       4Au1d0        4Au1d+1       4Au1d+2       4Au2d-2       4Au2d-1       4Au2d0        4Au2d+1   
   12    4Au2d+2       4Au1f-3       4Au1f-2       4Au1f-1       4Au1f0        4Au1f+1       4Au1f+2       4Au1f+3   
 
 Maximum number of basis functions per shell:   90
 Total number of basis functions:    128
 
 
 Effective core potentials:
 
   1  Au mcdhf-ecp-60        
   2  Au mcdhf-ecp-60        
   3  Au mcdhf-ecp-60        
   4  Au mcdhf-ecp-60        
 
 Calculation of prescreening integrals...
 CPU time [min]:    14.924                   Wall time [min]:     0.929
 
 Calculation of two-center Coulomb integrals...
   1% done.
  12% done.
  25% done.
  36% done.
  47% done.
  60% done.
  72% done.
  87% done.
 100% done.
 CPU time [min]:    14.959                   Wall time [min]:     0.930
 
 Cholesky decomposition of the inverse of the two-center matrix...
 CPU time [min]:    15.014                   Wall time [min]:     0.932
 
 Calculation of three-center Coulomb integrals...
   1% done.
  13% done.
  25% done.
  37% done.
  50% done.
  64% done.
  82% done.
 100% done.
 CPU time [min]:    21.013                   Wall time [min]:     1.358

 ************************ 2022-11-11 20:08:12 *************************
 Executing drpa...

 Three-index integral transformation
 
 Allocation of 150.0 Gbytes of memory...
 Minimal memory requirement for (ai|P) and (ij|P) integrals:      103.0 MB

 Calculating (ai|P) and (ij|P) integrals...
 Number of integral batches:    1
 Occupied indices per batch:   38
 
 Transforming integrals of batch 1...
 CPU time [min]:    72.611                   Wall time [min]:     3.728
 

 Constructing MP2 natural orbitals...

 Threshold for individual occupations:     1.0000E-05
 Corresponding cummulative occupation threshold:  0.99973586  0.99972826
 Total number of virtual orbitals:     682
 Number of virtual natural orbitals:   535  (78.45%)
 
 Transforming (ai|P) integrals to the NO basis...
 Number of integral batches:    1
 Occupied indices per batch:   38
 
 Transforming integrals of batch 1 to the NO basis...
 CPU time [min]:   104.632                   Wall time [min]:     5.484

 Calculating (ab|P) integrals...
 Minimal memory requirement for (ab|P) integrals:       63.0 MB
 Number of integral batches:    1
 Virtual indices per batch:   535

 Transforming integrals of batch 1...
 CPU time [min]:   140.587                   Wall time [min]:     7.825
 

 Constructing natural auxiliary functions...

 Threshold for eigenvalues:     1.0000E-02
 Total number of auxiliary functions:    1896
 Number of natural auxiliary functions:  1501  (79.17%)

 Transforming (ai|P) and (ij|P) integrals to the NAF basis...
 Number of integral batches:    1
 Occupied indices per batch:   38
 
 Transforming integrals of batch 1 to the NAF basis...
 CPU time [min]:   172.398                   Wall time [min]:     9.555

 Transforming (ab|P) integrals to the NAF basis...
 Number of integral batches:    1
 Virtual indices per batch:   535

 Transforming integrals of batch 1 to the NAF basis...
 CPU time [min]:   173.360                   Wall time [min]:    10.119
 

 Results in full basis:
 
 
 Reference energy [au]:                      -539.156704325859
 DF-MP2 singlet pair energy [au]:              -2.300249541774
 DF-MP2 triplet pair energy [au]:              -1.035536636519
 DF-SCS-MP2 correlation energy [au]:           -3.105478328968
 DF-SCS-MP2 energy [au]:                     -542.262182654828
 DF-SOS-MP2 correlation energy [au]:           -2.990324404306
 DF-SOS-MP2 energy [au]:                     -542.147028730165
 DF-MP2 correlation energy [au]:               -3.335786178293
 DF-MP2 energy [au]:                         -542.492490504152

 Results in FNO basis:
 
 
 Reference energy [au]:                      -539.156704325859
 DF-MP2 singlet pair energy [au]:              -2.295414356588
 DF-MP2 triplet pair energy [au]:              -1.034887894245
 DF-SCS-MP2 correlation energy [au]:           -3.099459859320
 DF-SCS-MP2 energy [au]:                     -542.256164185180
 DF-SOS-MP2 correlation energy [au]:           -2.984038663564
 DF-SOS-MP2 energy [au]:                     -542.140742989423
 DF-MP2 correlation energy [au]:               -3.330302250832
 DF-MP2 energy [au]:                         -542.487006576692

 Results in NAF basis:
 
 
 Reference energy [au]:                      -539.156704325859
 DF-MP2 singlet pair energy [au]:              -2.295375611382
 DF-MP2 triplet pair energy [au]:              -1.034889347229
 DF-SCS-MP2 correlation energy [au]:           -3.099413849401
 DF-SCS-MP2 energy [au]:                     -542.256118175260
 DF-SOS-MP2 correlation energy [au]:           -2.983988294796
 DF-SOS-MP2 energy [au]:                     -542.140692620656
 DF-MP2 correlation energy [au]:               -3.330264958611
 DF-MP2 energy [au]:                         -542.486969284470

 ************************ 2022-11-11 20:18:21 *************************
 Executing ccsd...

 Allocation of 150.0 Gbytes of memory...

 Direct DF-CCSD(T) calculation
 
 Convergence criterion:  1.0E-06
 
 Number of occupied/virtual/auxiliary orbitals:    38   535  1501
  27192.54 MB is the minimal memory requirement for (T)
   8594.36 MB is the minimal memory requirement for CCSD
 
 Reference energy [au]:            -539.156704325859
 T1 contribution [au]:                0.000000000000
 Same spin MP2 energy [au]:          -1.034888616009
 Opposite spin MP2 energy [au]:      -2.295394975779
 MP2 correlation energy [au]:        -3.330283591788
 Total MP2 energy [au]:            -542.486987917648
 MP2 correction [au]:                -0.005502586505
 
 
 CPU time [min]:     8.047                   Wall time [min]:     3.676
 
 Starting CCSD iterations...
 
                     Residual norm          Energy
 Iteration  1        0.565104442851     -542.125636470384
 Iteration  2        0.197642745865     -542.234625387497
 Iteration  3        0.042093477490     -542.254698147930
 Iteration  4        0.023976293721     -542.252542858702
 Iteration  5        0.010778936726     -542.249162209526
 Iteration  6        0.006298086045     -542.249141002525
 Iteration  7        0.003605993257     -542.250143618218
 Iteration  8        0.001982889968     -542.250197288784
 Iteration  9        0.001141713507     -542.250066475814
 Iteration 10        0.000545526613     -542.250073785731
 Iteration 11        0.000284119670     -542.250065182767
 Iteration 12        0.000134655732     -542.250059694134
 Iteration 13        0.000064112240     -542.250062985492
 Iteration 14        0.000034742199     -542.250065164435
 Iteration 15        0.000018907577     -542.250064048856
 Iteration 16        0.000010545538     -542.250063378504
 Iteration 17        0.000005552597     -542.250063675608
 
 CCSD iteration has converged in 17 steps.
   153599.84 MB memory was utilized by CCSD
 
 T1 diagnostic:      2.018E-02            D1 diagnostic:      1.100E-01
 
 T1 contribution [au]:                                  0.000000000000
 PPL energy contribution [au]:                          0.499962068429
 Scaled PPL energy contribution [au]:                   0.500750861897

 OS-PPL energy contribution [au]:                       0.379056934877
 Scaled OS-PPL energy contribution [au]:                0.379821900316
 SS-PPL energy contribution [au]:                       0.120905133552
 Scaled SS-PPL energy contribution [au]:                0.120977665289

 Opposite spin CCSD energy [au]:                       -2.214436683769
 Same spin CCSD energy [au]:                           -0.878941954061
 CCSD correlation energy [au]:                         -3.093378637831
 CCSD correlation energy + MP2 correction [au]:        -3.098881224335
 CCSD correlation energy + MP2 + PPL corr. [au]:       -3.098092430867
 Total CCSD energy [au]:                             -542.250082963690
 Total CCSD energy + MP2 correction [au]:            -542.255585550195
 Total CCSD energy + MP2 + PPL corr. [au]:           -542.254796756726
 
 CPU time [min]:  2970.057                   Wall time [min]:   182.556
 
 Calculation of (T) correction...
 
 
    66956.11 MB memory is utilized for (T)

 0%       25%       50%       75%       100%
 |---------|---------|---------|---------| 
 
 (T) correction [au]:                                    -0.146378849822
 (T*) correction [au]:                                   -0.146620709790
 (T+) correction [au]:                                   -0.146596837892
 CCSD(T) correlation energy [au]:                        -3.239757487653
 CCSD(T) correlation energy + MP2 correction [au]:       -3.245260074157
 CCSD(T+) correlation en. + MP2 + PPL corr. [au]:        -3.244689268759
 Total CCSD(T) energy [au]:                            -542.396461813512
 Total CCSD(T) energy + MP2 correction [au]:           -542.401964400017
 Total CCSD(T+) energy + MP2 + PPL corr. [au]:         -542.401393594618
 
 CPU time [min]: 10694.415                   Wall time [min]:   511.666
 
 ************************ 2022-11-12 04:50:11 *************************
                      Normal termination of mrcc.
 **********************************************************************
