 vasp.6.4.0 14Feb23 (build Dec 05 2023 14:15:48) complex                        
  
 executed on             LinuxIFC date 2023.12.11  23:33:25
 running  512 mpi-ranks, with    1 threads/rank, on   32 nodes
 distrk:  each k-point on  512 cores,    1 groups
 distr:  one band on NCORE=  16 cores,   32 groups


--------------------------------------------------------------------------------------------------------


 INCAR:
   SYSTEM = MgO-rocksalt
   ISMEAR = 0
   SIGMA = 0.05
   EDIFF = 1E-6
   ALGO = ALL
   ISTART = 2
   IBRION = -1
   NSW = 0
   ISYM = 0
   METAGGA = M06L
   ENCUT = 520
   PREC = Accurate
   LASPH = .TRUE.
   LREAL = Auto
   ISPIN = 1
   NELM = 2000
   NELMIN = 8
   NCORE = 16
   LWAVE = .FALSE.
   LCHARG = .FALSE.

 POTCAR:    PAW_PBE Au 04Oct2007                  
 POTCAR:    PAW_PBE Au 04Oct2007                  
   SHA256 =  d0044ae04e2bdce24051b198fc5c053d722a5bc6fe3c3b100514a13fc5d2db88 Au/POTCAR             
   COPYR  = (c) Copyright 04Oct2007 Georg Kresse                                                    
   COPYR  = This file is part of the software VASP. Any use, copying, and all other rights are regul
   COPYR  = If you do not have a valid VASP license, you may not use, copy or distribute this file. 
   VRHFIN =Au: s1d10                                                                                
   LEXCH  = PE                                                                                      
   EATOM  =   926.0867 eV,   68.0654 Ry                                                             
                                                                                                    
   TITEL  = PAW_PBE Au 04Oct2007                                                                    
   LULTRA =        F    use ultrasoft PP ?                                                          
   IUNSCR =        1    unscreen: 0-lin 1-nonlin 2-no                                               
   RPACOR =    2.330    partial core radius                                                         
   POMASS =  196.966; ZVAL   =   11.000    mass and valenz                                          
   RCORE  =    2.500    outmost cutoff radius                                                       
   RWIGS  =    2.840; RWIGS  =    1.503    wigner-seitz radius (au A)                               
   ENMAX  =  229.943; ENMIN  =  172.457 eV                                                          
   ICORE  =        3    local potential                                                             
   LCOR   =        T    correct aug charges                                                         
   LPAW   =        T    paw PP                                                                      
   EAUG   =  356.670                                                                                
   DEXC   =    0.000                                                                                
   RMAX   =    2.562    core radius for proj-oper                                                   
   RAUG   =    1.300    factor for augmentation sphere                                              
   RDEP   =    2.598    radius for radial grids                                                     
   RDEPT  =    2.193    core radius for aug-charge                                                  
                                                                                                    
   Atomic configuration                                                                             
   16 entries                                                                                       
     n  l   j            E        occ.                                                              
     1  0  0.50    -80748.5001   2.0000                                                             
     2  0  0.50    -14244.7466   2.0000                                                             
     2  1  1.50    -12310.9591   6.0000                                                             
     3  0  0.50     -3362.1768   2.0000                                                             
     3  1  1.50     -2801.5463   6.0000                                                             
     3  2  2.50     -2203.8206  10.0000                                                             
     4  0  0.50      -729.8168   2.0000                                                             
     4  1  1.50      -546.0527   6.0000                                                             
     4  2  2.50      -325.7302  10.0000                                                             
     4  3  3.50       -81.1472  14.0000                                                             
     5  0  0.50      -108.3201   2.0000                                                             
     5  1  1.50       -59.7479   6.0000                                                             
     5  2  2.50        -6.8783  10.0000                                                             
     6  0  0.50        -5.7602   1.0000                                                             
     6  1  1.50        -6.8029   0.0000                                                             
     5  3  2.50        -1.3606   0.0000                                                             
   Description                                                                                      
     l       E           TYP  RCUT    TYP  RCUT                                                     
     2     -6.8782861     23  2.500                                                                 
     2     -8.2388687     23  2.500                                                                 
     0     -5.7601759     23  2.500                                                                 
     0     -0.8493231     23  2.500                                                                 
     1     -2.7211652     23  2.500                                                                 
     1     27.2116520     23  2.500                                                                 
     3     -1.3605826     23  2.500                                                                 
  local pseudopotential read in
  partial core-charges read in
  partial kinetic energy density read in
  atomic valenz-charges read in
  non local Contribution for L=           2  read in
    real space projection operators read in
  non local Contribution for L=           2  read in
    real space projection operators read in
  non local Contribution for L=           0  read in
    real space projection operators read in
  non local Contribution for L=           0  read in
    real space projection operators read in
  non local Contribution for L=           1  read in
    real space projection operators read in
  non local Contribution for L=           1  read in
    real space projection operators read in
    PAW grid and wavefunctions read in
 
   number of l-projection  operators is LMAX  =           6
   number of lm-projection operators is LMMAX =          18
 
 -----------------------------------------------------------------------------
|                                                                             |
|               ----> ADVICE to this user running VASP <----                  |
|                                                                             |
|     You have a (more or less) 'small supercell' and for smaller cells       |
|     it is recommended to use the reciprocal-space projection scheme!        |
|     The real-space optimization is not efficient for small cells and it     |
|     is also less accurate ...                                               |
|     Therefore, set LREAL=.FALSE. in the INCAR file.                         |
|                                                                             |
 -----------------------------------------------------------------------------

 Optimization of the real space projectors (new method)

 maximal supplied QI-value         = 15.12
 optimisation between [QCUT,QGAM] = [ 11.64, 23.28] = [ 37.95,151.78] Ry 
 Optimized for a Real-space Cutoff    1.49 Angstroem

   l    n(q)    QCUT    max X(q) W(low)/X(q) W(high)/X(q)  e(spline) 
   2      9    11.641    60.898    0.24E-03    0.10E-03    0.19E-06
   2      9    11.641    58.894    0.25E-03    0.10E-03    0.19E-06
   0     10    11.641   109.617    0.73E-04    0.33E-04    0.11E-06
   0     10    11.641    75.026    0.71E-04    0.32E-04    0.11E-06
   1     10    11.641    16.344    0.27E-04    0.97E-04    0.16E-06
   1     10    11.641    10.160    0.23E-04    0.77E-04    0.13E-06
  PAW_PBE Au 04Oct2007                  :
 energy of atom  1       EATOM= -926.0867
 kinetic energy error for atom=    0.0034 (will be added to EATOM!!)
 
 
 POSCAR: Au Mg  O
  positions in direct lattice
  No initial velocities read in

 METAGGA = M06L                                        LMAXTAU =  6    LMIXTAU =  F

 exchange correlation table for  LEXCH =        8
   RHO(1)=    0.500       N(1)  =     2000
   RHO(2)=  100.500       N(2)  =     4000
 


--------------------------------------------------------------------------------------------------------


 ion  position               nearest neighbor table
   1  0.400  0.425  0.603-   2 2.53
   2  0.400  0.510  0.684-   1 2.53   3 2.68   4 2.74
   3  0.400  0.633  0.713-   4 2.57   2 2.68
   4  0.400  0.605  0.600-   3 2.57   2 2.74
 

IMPORTANT INFORMATION: All symmetrisations will be switched off!
NOSYMM: (Re-)initialisation of all symmetry stuff for point group C_1.


----------------------------------------------------------------------------------------

                                     Primitive cell                                     

  volume of cell :    9881.6133

  direct lattice vectors                    reciprocal lattice vectors
    21.138852197  0.000000000  0.000000000     0.047306258  0.000000000  0.000000000
     0.000000000 21.138852197  0.000000000     0.000000000  0.047306258  0.000000000
     0.000000000  0.000000000 22.113885220     0.000000000  0.000000000  0.045220457

  length of vectors
    21.138852197 21.138852197 22.113885220     0.047306258  0.047306258  0.045220457

  position of ions in fractional coordinates (direct lattice)
     0.399951201  0.425242954  0.603301976
     0.399957296  0.509675129  0.684179581
     0.400053355  0.632584174  0.713145052
     0.399972466  0.604759939  0.599963044

  ion indices of the primitive-cell ions
   primitive index   ion index
                 1           1
                 2           2
                 3           3
                 4           4

----------------------------------------------------------------------------------------

 
 
 KPOINTS: KPOINTS created by Atomic Simulation Env

Automatic generation of k-mesh.
 Grid dimensions read from file:
 generate k-points for:    1    1    1

 Generating k-lattice:

  Cartesian coordinates                     Fractional coordinates (reciprocal lattice)
     0.047306258  0.000000000  0.000000000     1.000000000  0.000000000  0.000000000
     0.000000000  0.047306258  0.000000000     0.000000000  1.000000000  0.000000000
     0.000000000  0.000000000  0.045220457     0.000000000  0.000000000  1.000000000

  Length of vectors
     0.047306258  0.047306258  0.045220457

  Shift w.r.t. Gamma in fractional coordinates (k-lattice)
     0.000000000  0.000000000  0.000000000

 
 Subroutine IBZKPT returns following result:
 ===========================================
 
 Found      1 irreducible k-points:
 
 Following reciprocal coordinates:
            Coordinates               Weight
  0.000000  0.000000  0.000000      1.000000
 
 Following cartesian coordinates:
            Coordinates               Weight
  0.000000  0.000000  0.000000      1.000000
 


--------------------------------------------------------------------------------------------------------




 Dimension of arrays:
   k-points           NKPTS =      1   k-points in BZ     NKDIM =      1   number of bands    NBANDS=     32
   number of dos      NEDOS =    301   number of ions     NIONS =      4
   non local maximal  LDIM  =      6   non local SUM 2l+1 LMDIM =     18
   total plane-waves  NPLWV = ******
   max r-space proj   IRMAX =   6070   max aug-charges    IRDMAX=  26812
   dimension x,y,z NGX =   160 NGY =  160 NGZ =  168
   dimension x,y,z NGXF=   320 NGYF=  320 NGZF=  336
   support grid    NGXF=   320 NGYF=  320 NGZF=  336
   ions per type =               4
   NGX,Y,Z   is equivalent  to a cutoff of  12.58, 12.58, 12.63 a.u.
   NGXF,Y,Z  is equivalent  to a cutoff of  25.17, 25.17, 25.26 a.u.

 SYSTEM =  MgO-rocksalt                            
 POSCAR =  Au Mg  O                                

 Startparameter for this run:
   NWRITE =      2    write-flag & timer
   PREC   = accura    normal or accurate (medium, high low for compatibility)
   ISTART =      2    job   : 0-new  1-cont  2-samecut
   ICHARG =      0    charge: 1-file 2-atom 10-const
   ISPIN  =      1    spin polarized calculation?
   LNONCOLLINEAR =      F non collinear calculations
   LSORBIT =      F    spin-orbit coupling
   INIWAV =      1    electr: 0-lowe 1-rand  2-diag
   LASPH  =      T    aspherical Exc in radial PAW
 Electronic Relaxation 1
   ENCUT  =  520.0 eV  38.22 Ry    6.18 a.u.  39.30 39.30 41.12*2*pi/ulx,y,z
   ENINI  =  520.0     initial cutoff
   ENAUG  =  356.7 eV  augmentation charge cutoff
   NELM   =   2000;   NELMIN=  8; NELMDL=  0     # of ELM steps 
   EDIFF  = 0.1E-05   stopping-criterion for ELM
   LREAL  =      T    real-space projection
   NLSPLINE    = F    spline interpolate recip. space projectors
   LCOMPAT=      F    compatible to vasp.4.4
   GGA_COMPAT  = T    GGA compatible to vasp.4.4-vasp.4.6
   LMAXPAW     = -100 max onsite density
   LMAXMIX     =    2 max onsite mixed and CHGCAR
   VOSKOWN=      0    Vosko Wilk Nusair interpolation
   ROPT   =   -0.00025
 Ionic relaxation
   EDIFFG = 0.1E-04   stopping-criterion for IOM
   NSW    =      0    number of steps for IOM
   NBLOCK =      1;   KBLOCK =      1    inner block; outer block 
   IBRION =     -1    ionic relax: 0-MD 1-quasi-New 2-CG
   NFREE  =      0    steps in history (QN), initial steepest desc. (CG)
   ISIF   =      2    stress and relaxation
   IWAVPR =     10    prediction:  0-non 1-charg 2-wave 3-comb
   ISYM   =      0    0-nonsym 1-usesym 2-fastsym
   LCORR  =      T    Harris-Foulkes like correction to forces

   POTIM  = 0.5000    time-step for ionic-motion
   TEIN   =    0.0    initial temperature
   TEBEG  =    0.0;   TEEND  =   0.0 temperature during run
   SMASS  =  -3.00    Nose mass-parameter (am)
   estimated Nose-frequenzy (Omega)   =  0.10E-29 period in steps = 0.13E+47 mass=  -0.102E-25a.u.
   SCALEE = 1.0000    scale energy and forces
   NPACO  =    256;   APACO  = 10.0  distance and # of slots for P.C.
   PSTRESS=    0.0 pullay stress

  Mass of Ions in am
   POMASS = 196.97
  Ionic Valenz
   ZVAL   =  11.00
  Atomic Wigner-Seitz radii
   RWIGS  =  -1.00
  virtual crystal weights 
   VCA    =   1.00
   NELECT =      44.0000    total number of electrons
   NUPDOWN=      -1.0000    fix difference up-down

 DOS related values:
   EMIN   =  10.00;   EMAX   =-10.00  energy-range for DOS
   EFERMI =   0.00;   METHOD = LEGACY      
   ISMEAR =     0;   SIGMA  =   0.05  broadening in eV -4-tet -1-fermi 0-gaus

 Electronic relaxation 2 (details)
   IALGO  =     58    algorithm
   LDIAG  =      T    sub-space diagonalisation (order eigenvalues)
   LSUBROT=      F    optimize rotation matrix (better conditioning)
   TURBO    =      0    0=normal 1=particle mesh
   IRESTART =      0    0=no restart 2=restart with 2 vectors
   NREBOOT  =      0    no. of reboots
   NMIN     =      0    reboot dimension
   EREF     =   0.00    reference energy to select bands
   IMIX   =      4    mixing-type and parameters
     AMIX     =   0.40;   BMIX     =  1.00
     AMIX_MAG =   1.60;   BMIX_MAG =  1.00
     AMIN     =   0.10
     WC   =   100.;   INIMIX=   1;  MIXPRE=   1;  MAXMIX= -45

 Intra band minimization:
   WEIMIN = 0.0000     energy-eigenvalue tresh-hold
   EBREAK =  0.78E-08  absolut break condition
   DEPER  =   0.30     relativ break condition  

   TIME   =   0.40     timestep for ELM

  volume/ion in A,a.u.               =    2470.40     16671.10
  Fermi-wavevector in a.u.,A,eV,Ry     =   0.269329  0.508958  0.986941  0.072538
  Thomas-Fermi vector in A             =   1.106612
 
 Write flags
   LWAVE        =      F    write WAVECAR
   LDOWNSAMPLE  =      F    k-point downsampling of WAVECAR
   LCHARG       =      F    write CHGCAR
   LVTOT        =      F    write LOCPOT, total local potential
   LVHAR        =      F    write LOCPOT, Hartree potential only
   LELF         =      F    write electronic localiz. function (ELF)
   LORBIT       =      0    0 simple, 1 ext, 2 COOP (PROOUT), +10 PAW based schemes


 Dipole corrections
   LMONO  =      F    monopole corrections only (constant potential shift)
   LDIPOL =      F    correct potential (dipole corrections)
   IDIPOL =      0    1-x, 2-y, 3-z, 4-all directions 
   EPSILON=  1.0000000 bulk dielectric constant

 Exchange correlation treatment:
   GGA     =    --    GGA type
   LEXCH   =     8    internal setting for exchange type
   LIBXC   =     F    Libxc                    
   VOSKOWN =     0    Vosko Wilk Nusair interpolation
   LHFCALC =     F    Hartree Fock is set to
   LHFONE  =     F    Hartree Fock one center treatment
   AEXX    =    0.0000 exact exchange contribution

 Linear response parameters
   LEPSILON=     F    determine dielectric tensor
   LRPA    =     F    only Hartree local field effects (RPA)
   LNABLA  =     F    use nabla operator in PAW spheres
   LVEL    =     F    velocity operator in full k-point grid
   CSHIFT  =0.1000    complex shift for real part using Kramers Kronig
   OMEGAMAX=  -1.0    maximum frequency
   DEG_THRESHOLD= 0.2000000E-02 threshold for treating states as degnerate
   RTIME   =   -0.100 relaxation time in fs
  (WPLASMAI=    0.000 imaginary part of plasma frequency in eV, 0.658/RTIME)
   DFIELD  = 0.0000000 0.0000000 0.0000000 field for delta impulse in time
 
  Optional k-point grid parameters
   LKPOINTS_OPT  =     F    use optional k-point grid
   KPOINTS_OPT_MODE=     1    mode for optional k-point grid
 
 Orbital magnetization related:
   ORBITALMAG=     F  switch on orbital magnetization
   LCHIMAG   =     F  perturbation theory with respect to B field
   DQ        =  0.001000  dq finite difference perturbation B field
   LLRAUG    =     F  two centre corrections for induced B field
   LBONE     =     F  B-component reconstruction in AE one-centre
   LVGVCALC  =     T  calculate vGv susceptibility
   LVGVAPPL  =     F  apply vGv susceptibility instead of pGv for G=0

 Random number generation:
   RANDOM_GENERATOR = DEFAULT
   PCG_SEED         = not used


--------------------------------------------------------------------------------------------------------


 Static calculation
 charge density and potential will be updated during run
 non-spin polarized calculation
 Conjugate gradient for all bands (Freysoldt, et al. PRB 79, 241103 (2009))
 preconditioned conjugated gradient                                        
 perform sub-space diagonalisation
    before iterative eigenvector-optimisation
 modified Broyden-mixing scheme, WC =      100.0
 initial mixing is a Kerker type mixing with AMIX =  0.4000 and BMIX =      1.0000
 Hartree-type preconditioning will be used
 using additional bands           10
 real space projection scheme for non local part
 use partial core corrections
 no Harris-corrections to forces 
 use gradient corrections 
 use of overlap-Matrix (Vanderbilt PP)
 Gauss-broadening in eV      SIGMA  =   0.05


--------------------------------------------------------------------------------------------------------


  energy-cutoff  :      520.00
  volume of cell :     9881.61
      direct lattice vectors                 reciprocal lattice vectors
    21.138852197  0.000000000  0.000000000     0.047306258  0.000000000  0.000000000
     0.000000000 21.138852197  0.000000000     0.000000000  0.047306258  0.000000000
     0.000000000  0.000000000 22.113885220     0.000000000  0.000000000  0.045220457

  length of vectors
    21.138852197 21.138852197 22.113885220     0.047306258  0.047306258  0.045220457


 
 old parameters found on file WAVECAR:
  energy-cutoff  :      520.00
  volume of cell :     9881.61
      direct lattice vectors                 reciprocal lattice vectors
    21.138852197  0.000000000  0.000000000     0.047306258  0.000000000  0.000000000
     0.000000000 21.138852197  0.000000000     0.000000000  0.047306258  0.000000000
     0.000000000  0.000000000 22.113885220     0.000000000  0.000000000  0.045220457

  length of vectors

 
 k-points in units of 2pi/SCALE and weight: KPOINTS created by Atomic Simulation Env
   0.00000000  0.00000000  0.00000000       1.000
 
 k-points in reciprocal lattice and weights: KPOINTS created by Atomic Simulation Env
   0.00000000  0.00000000  0.00000000       1.000
 
 position of ions in fractional coordinates (direct lattice) 
   0.39995120  0.42524295  0.60330198
   0.39995730  0.50967513  0.68417958
   0.40005335  0.63258417  0.71314505
   0.39997247  0.60475994  0.59996304
 
 position of ions in cartesian coordinates  (Angst):
   8.45450932  8.98914795 13.34135064
   8.45463817 10.77394722 15.12986872
   8.45666874 13.37210335 15.77040783
   8.45495885 12.78393096 13.26751388
 


--------------------------------------------------------------------------------------------------------


 k-point   1 :   0.0000 0.0000 0.0000  plane waves:  265979

 maximum and minimum number of plane-waves per node :     16635    16606

 maximum number of plane-waves:    265979
 maximum index in each direction: 
   IXMAX=   39   IYMAX=   39   IZMAX=   41
   IXMIN=  -39   IYMIN=  -39   IZMIN=  -41


 real space projection operators:
  total allocation   :       3281.62 KBytes
  max/ min on nodes  :        221.62        182.25


 parallel 3D FFT for wavefunctions:
    minimum data exchange during FFTs selected (reduces bandwidth)
 parallel 3D FFT for charge:
    minimum data exchange during FFTs selected (reduces bandwidth)


 total amount of memory used by VASP MPI-rank0    68402. kBytes
=======================================================================

   base      :      30000. kBytes
   nonlr-proj:        682. kBytes
   fftplans  :      11482. kBytes
   grid      :      25425. kBytes
   one-center:         15. kBytes
   wavefun   :        798. kBytes
 
     INWAV:  cpu time      1.4165: real time      1.4977
 Broyden mixing: mesh for mixing (old mesh)
   NGX = 79   NGY = 79   NGZ = 83
  (NGX  =320   NGY  =320   NGZ  =336)
  gives a total of 518003 points

 charge density for first step will be calculated from the start-wavefunctions


--------------------------------------------------------------------------------------------------------


 Maximum index for non-local projection operator          396
 Maximum index for augmentation-charges            0 (set IRDMAX)


--------------------------------------------------------------------------------------------------------


 initial charge from wavefunction
 First call to EWALD:  gamma=   0.083
 Maximum number of real-space cells 3x 3x 3
 Maximum number of reciprocal cells 3x 3x 3

    FEWALD:  cpu time      0.0079: real time      0.0077


--------------------------------------- Ionic step        1  -------------------------------------------




--------------------------------------- Iteration      1(   1)  ---------------------------------------


    POTLOK:  cpu time      0.8226: real time      0.8227
    SETDIJ:  cpu time      4.2322: real time      4.2322
    TRIAL :  cpu time      0.4201: real time      0.4207
    CORREC:  cpu time      5.8862: real time      5.8861
    CHARGE:  cpu time      0.1132: real time      0.1133
    --------------------------------------------
      LOOP:  cpu time     11.4764: real time     11.4776

 eigenvalue-minimisations  :     0
 total energy-change (2. order) :-0.1597113E+03  (-0.3868358E+00)
 number of electron      44.0000004 magnetization 
 augmentation part       16.5053487 magnetization 

 Free energy of the ion-electron system (eV)
  ---------------------------------------------------
  alpha Z        PSCENC =         1.88600142
  Ewald energy   TEWEN  =      1644.73937317
  -Hartree energ DENC   =     -5181.40031877
  -exchange      EXHF   =         0.00000000
  -V(xc)+E(xc)   XCENC  =       105.28781371
  PAW double counting   =      3760.05323359    -3867.25406926
  entropy T*S    EENTRO =        -0.00000000
  eigenvalues    EBANDS =      -327.35661103
  atomic energy  EATOM  =      3704.33328956
  ---------------------------------------------------
  free energy    TOTEN  =      -159.71128761 eV

  energy without entropy =     -159.71128761  energy(sigma->0) =     -159.71128761


--------------------------------------------------------------------------------------------------------




--------------------------------------- Iteration      1(   2)  ---------------------------------------


    POTLOK:  cpu time      0.8985: real time      0.8981
    SETDIJ:  cpu time      4.7382: real time      4.7381
    TRIAL :  cpu time      0.3542: real time      0.3542
    CORREC:  cpu time      5.6941: real time      5.6944
    CHARGE:  cpu time      0.1151: real time      0.1151
    --------------------------------------------
      LOOP:  cpu time     11.8106: real time     11.8107

 eigenvalue-minimisations  :     0
 total energy-change (2. order) :-0.3850962E+00  (-0.1070586E+00)
 number of electron      44.0000004 magnetization 
 augmentation part       16.4910091 magnetization 

 Free energy of the ion-electron system (eV)
  ---------------------------------------------------
  alpha Z        PSCENC =         1.88600142
  Ewald energy   TEWEN  =      1644.73937317
  -Hartree energ DENC   =     -5207.68054699
  -exchange      EXHF   =         0.00000000
  -V(xc)+E(xc)   XCENC  =       106.20068369
  PAW double counting   =      3959.20868717    -4065.46630129
  entropy T*S    EENTRO =        -0.00000000
  eigenvalues    EBANDS =      -303.31757053
  atomic energy  EATOM  =      3704.33328956
  ---------------------------------------------------
  free energy    TOTEN  =      -160.09638380 eV

  energy without entropy =     -160.09638380  energy(sigma->0) =     -160.09638380


--------------------------------------------------------------------------------------------------------




--------------------------------------- Iteration      1(   3)  ---------------------------------------


    POTLOK:  cpu time      0.8657: real time      0.8655
    SETDIJ:  cpu time      4.5540: real time      4.5540
    TRIAL :  cpu time      0.3609: real time      0.3608
    CORREC:  cpu time      5.6758: real time      5.6751
    CHARGE:  cpu time      0.1186: real time      0.1186
    --------------------------------------------
      LOOP:  cpu time     11.5782: real time     11.5854

 eigenvalue-minimisations  :     0
 total energy-change (2. order) :-0.1086710E+00  (-0.1994185E-01)
 number of electron      44.0000004 magnetization 
 augmentation part       16.4989303 magnetization 

 Free energy of the ion-electron system (eV)
  ---------------------------------------------------
  alpha Z        PSCENC =         1.88600142
  Ewald energy   TEWEN  =      1644.73937317
  -Hartree energ DENC   =     -5194.30752422
  -exchange      EXHF   =         0.00000000
  -V(xc)+E(xc)   XCENC  =       105.63898333
  PAW double counting   =      4085.52461546    -4191.91001683
  entropy T*S    EENTRO =        -0.00000000
  eigenvalues    EBANDS =      -316.10977673
  atomic energy  EATOM  =      3704.33328956
  ---------------------------------------------------
  free energy    TOTEN  =      -160.20505483 eV

  energy without entropy =     -160.20505483  energy(sigma->0) =     -160.20505483


--------------------------------------------------------------------------------------------------------




--------------------------------------- Iteration      1(   4)  ---------------------------------------


    POTLOK:  cpu time      0.8485: real time      0.8486
    SETDIJ:  cpu time      4.5540: real time      4.5540
    TRIAL :  cpu time      0.3522: real time      0.3522
    CORREC:  cpu time      5.6613: real time      5.6611
    CHARGE:  cpu time      0.1182: real time      0.1182
    --------------------------------------------
      LOOP:  cpu time     11.5375: real time     11.5447

 eigenvalue-minimisations  :     0
 total energy-change (2. order) :-0.2012232E-01  (-0.8601299E-02)
 number of electron      44.0000004 magnetization 
 augmentation part       16.5089630 magnetization 

 Free energy of the ion-electron system (eV)
  ---------------------------------------------------
  alpha Z        PSCENC =         1.88600142
  Ewald energy   TEWEN  =      1644.73937317
  -Hartree energ DENC   =     -5195.16078205
  -exchange      EXHF   =         0.00000000
  -V(xc)+E(xc)   XCENC  =       105.64227907
  PAW double counting   =      4155.63181562    -4262.04796791
  entropy T*S    EENTRO =        -0.00000000
  eigenvalues    EBANDS =      -315.24918605
  atomic energy  EATOM  =      3704.33328956
  ---------------------------------------------------
  free energy    TOTEN  =      -160.22517716 eV

  energy without entropy =     -160.22517716  energy(sigma->0) =     -160.22517716


--------------------------------------------------------------------------------------------------------




--------------------------------------- Iteration      1(   5)  ---------------------------------------


    POTLOK:  cpu time      0.8320: real time      0.8319
    SETDIJ:  cpu time      4.5541: real time      4.5540
    TRIAL :  cpu time      0.3519: real time      0.3520
    CORREC:  cpu time      5.6612: real time      5.6609
    CHARGE:  cpu time      0.1174: real time      0.1174
    --------------------------------------------
      LOOP:  cpu time     11.5197: real time     11.5271

 eigenvalue-minimisations  :     0
 total energy-change (2. order) :-0.8176966E-02  (-0.4369018E-02)
 number of electron      44.0000004 magnetization 
 augmentation part       16.5128010 magnetization 

 Free energy of the ion-electron system (eV)
  ---------------------------------------------------
  alpha Z        PSCENC =         1.88600142
  Ewald energy   TEWEN  =      1644.73937317
  -Hartree energ DENC   =     -5197.53626615
  -exchange      EXHF   =         0.00000000
  -V(xc)+E(xc)   XCENC  =       105.73207451
  PAW double counting   =      4211.35008303    -4317.77404613
  entropy T*S    EENTRO =        -0.00000000
  eigenvalues    EBANDS =      -312.96386353
  atomic energy  EATOM  =      3704.33328956
  ---------------------------------------------------
  free energy    TOTEN  =      -160.23335412 eV

  energy without entropy =     -160.23335412  energy(sigma->0) =     -160.23335412


--------------------------------------------------------------------------------------------------------




--------------------------------------- Iteration      1(   6)  ---------------------------------------


    POTLOK:  cpu time      0.8277: real time      0.8277
    SETDIJ:  cpu time      4.5660: real time      4.5660
    TRIAL :  cpu time      0.3599: real time      0.3597
    CORREC:  cpu time      5.6418: real time      5.6416
    CHARGE:  cpu time      0.1122: real time      0.1123
    --------------------------------------------
      LOOP:  cpu time     11.5114: real time     11.5194

 eigenvalue-minimisations  :     0
 total energy-change (2. order) :-0.3082047E-02  (-0.2704448E-02)
 number of electron      44.0000004 magnetization 
 augmentation part       16.5125925 magnetization 

 Free energy of the ion-electron system (eV)
  ---------------------------------------------------
  alpha Z        PSCENC =         1.88600142
  Ewald energy   TEWEN  =      1644.73937317
  -Hartree energ DENC   =     -5198.67668811
  -exchange      EXHF   =         0.00000000
  -V(xc)+E(xc)   XCENC  =       105.78403661
  PAW double counting   =      4255.55354975    -4361.99532579
  entropy T*S    EENTRO =        -0.00000000
  eigenvalues    EBANDS =      -311.86067278
  atomic energy  EATOM  =      3704.33328956
  ---------------------------------------------------
  free energy    TOTEN  =      -160.23643617 eV

  energy without entropy =     -160.23643617  energy(sigma->0) =     -160.23643617


--------------------------------------------------------------------------------------------------------




--------------------------------------- Iteration      1(   7)  ---------------------------------------


    POTLOK:  cpu time      0.8252: real time      0.8250
    SETDIJ:  cpu time      4.5517: real time      4.5517
    TRIAL :  cpu time      0.3540: real time      0.3541
    CORREC:  cpu time      5.6465: real time      5.6462
    CHARGE:  cpu time      0.1159: real time      0.1159
    --------------------------------------------
      LOOP:  cpu time     11.5045: real time     11.5042

 eigenvalue-minimisations  :     0
 total energy-change (2. order) :-0.1304037E-02  (-0.1989748E-02)
 number of electron      44.0000004 magnetization 
 augmentation part       16.5102056 magnetization 

 Free energy of the ion-electron system (eV)
  ---------------------------------------------------
  alpha Z        PSCENC =         1.88600142
  Ewald energy   TEWEN  =      1644.73937317
  -Hartree energ DENC   =     -5198.92097481
  -exchange      EXHF   =         0.00000000
  -V(xc)+E(xc)   XCENC  =       105.80375960
  PAW double counting   =      4295.17639401    -4401.64478627
  entropy T*S    EENTRO =        -0.00000000
  eigenvalues    EBANDS =      -311.61079689
  atomic energy  EATOM  =      3704.33328956
  ---------------------------------------------------
  free energy    TOTEN  =      -160.23774021 eV

  energy without entropy =     -160.23774021  energy(sigma->0) =     -160.23774021


--------------------------------------------------------------------------------------------------------




--------------------------------------- Iteration      1(   8)  ---------------------------------------


    POTLOK:  cpu time      0.8139: real time      0.8138
    SETDIJ:  cpu time      4.5620: real time      4.5621
    TRIAL :  cpu time      0.3566: real time      0.3565
    CORREC:  cpu time      5.6427: real time      5.6425
    CHARGE:  cpu time      0.1106: real time      0.1106
    --------------------------------------------
      LOOP:  cpu time     11.4973: real time     11.4971

 eigenvalue-minimisations  :     0
 total energy-change (2. order) :-0.4129559E-03  (-0.1387422E-02)
 number of electron      44.0000004 magnetization 
 augmentation part       16.5073282 magnetization 

 Free energy of the ion-electron system (eV)
  ---------------------------------------------------
  alpha Z        PSCENC =         1.88600142
  Ewald energy   TEWEN  =      1644.73937317
  -Hartree energ DENC   =     -5198.61486822
  -exchange      EXHF   =         0.00000000
  -V(xc)+E(xc)   XCENC  =       105.80055055
  PAW double counting   =      4330.00002878    -4436.49780854
  entropy T*S    EENTRO =        -0.00000000
  eigenvalues    EBANDS =      -311.88471989
  atomic energy  EATOM  =      3704.33328956
  ---------------------------------------------------
  free energy    TOTEN  =      -160.23815316 eV

  energy without entropy =     -160.23815316  energy(sigma->0) =     -160.23815316


--------------------------------------------------------------------------------------------------------




--------------------------------------- Iteration      1(   9)  ---------------------------------------


    POTLOK:  cpu time      0.8154: real time      0.8154
    SETDIJ:  cpu time      4.5504: real time      4.5502
    TRIAL :  cpu time      0.3526: real time      0.3527
    CORREC:  cpu time      5.6398: real time      5.6396
    CHARGE:  cpu time      0.1156: real time      0.1156
    --------------------------------------------
      LOOP:  cpu time     11.4816: real time     11.4895

 eigenvalue-minimisations  :     0
 total energy-change (2. order) : 0.1560293E-04  (-0.1248754E-02)
 number of electron      44.0000004 magnetization 
 augmentation part       16.5050836 magnetization 

 Free energy of the ion-electron system (eV)
  ---------------------------------------------------
  alpha Z        PSCENC =         1.88600142
  Ewald energy   TEWEN  =      1644.73937317
  -Hartree energ DENC   =     -5198.08359221
  -exchange      EXHF   =         0.00000000
  -V(xc)+E(xc)   XCENC  =       105.78409458
  PAW double counting   =      4357.92190196    -4464.44515937
  entropy T*S    EENTRO =        -0.00000000
  eigenvalues    EBANDS =      -312.37404668
  atomic energy  EATOM  =      3704.33328956
  ---------------------------------------------------
  free energy    TOTEN  =      -160.23813756 eV

  energy without entropy =     -160.23813756  energy(sigma->0) =     -160.23813756


--------------------------------------------------------------------------------------------------------




--------------------------------------- Iteration      1(  10)  ---------------------------------------


    POTLOK:  cpu time      0.8126: real time      0.8127
    SETDIJ:  cpu time      4.5533: real time      4.5534
    TRIAL :  cpu time      0.3552: real time      0.3551
    CORREC:  cpu time      5.6338: real time      5.6338
    CHARGE:  cpu time      0.1100: real time      0.1100
    --------------------------------------------
      LOOP:  cpu time     11.4713: real time     11.4789

 eigenvalue-minimisations  :     0
 total energy-change (2. order) :-0.1500825E-03  (-0.2245151E-02)
 number of electron      44.0000004 magnetization 
 augmentation part       16.5064023 magnetization 

 Free energy of the ion-electron system (eV)
  ---------------------------------------------------
  alpha Z        PSCENC =         1.88600142
  Ewald energy   TEWEN  =      1644.73937317
  -Hartree energ DENC   =     -5197.57165903
  -exchange      EXHF   =         0.00000000
  -V(xc)+E(xc)   XCENC  =       105.76335118
  PAW double counting   =      4380.95944952    -4487.50193949
  entropy T*S    EENTRO =        -0.00000000
  eigenvalues    EBANDS =      -312.84615398
  atomic energy  EATOM  =      3704.33328956
  ---------------------------------------------------
  free energy    TOTEN  =      -160.23828764 eV

  energy without entropy =     -160.23828764  energy(sigma->0) =     -160.23828764


--------------------------------------------------------------------------------------------------------




--------------------------------------- Iteration      1(  11)  ---------------------------------------


    POTLOK:  cpu time      0.7968: real time      0.7967
    SETDIJ:  cpu time      4.5494: real time      4.5494
    TRIAL :  cpu time      0.3518: real time      0.3519
    CORREC:  cpu time      5.6293: real time      5.6291
    CHARGE:  cpu time      0.1171: real time      0.1171
    --------------------------------------------
      LOOP:  cpu time     11.4486: real time     11.4559

 eigenvalue-minimisations  :     0
 total energy-change (2. order) : 0.6603408E-04  (-0.2438765E-02)
 number of electron      44.0000004 magnetization 
 augmentation part       16.5100194 magnetization 

 Free energy of the ion-electron system (eV)
  ---------------------------------------------------
  alpha Z        PSCENC =         1.88600142
  Ewald energy   TEWEN  =      1644.73937317
  -Hartree energ DENC   =     -5197.70885091
  -exchange      EXHF   =         0.00000000
  -V(xc)+E(xc)   XCENC  =       105.76172867
  PAW double counting   =      4380.21561521    -4486.75174520
  entropy T*S    EENTRO =        -0.00000000
  eigenvalues    EBANDS =      -312.71363353
  atomic energy  EATOM  =      3704.33328956
  ---------------------------------------------------
  free energy    TOTEN  =      -160.23822161 eV

  energy without entropy =     -160.23822161  energy(sigma->0) =     -160.23822161


--------------------------------------------------------------------------------------------------------




--------------------------------------- Iteration      1(  12)  ---------------------------------------


    POTLOK:  cpu time      0.8142: real time      0.8142
    SETDIJ:  cpu time      4.5647: real time      4.5647
    TRIAL :  cpu time      0.3550: real time      0.3550
    CORREC:  cpu time      5.6346: real time      5.6345
    CHARGE:  cpu time      0.1196: real time      0.1196
    --------------------------------------------
      LOOP:  cpu time     11.4914: real time     11.4992

 eigenvalue-minimisations  :     0
 total energy-change (2. order) :-0.2522470E-02  (-0.1876621E-02)
 number of electron      44.0000004 magnetization 
 augmentation part       16.5102262 magnetization 

 Free energy of the ion-electron system (eV)
  ---------------------------------------------------
  alpha Z        PSCENC =         1.88600142
  Ewald energy   TEWEN  =      1644.73937317
  -Hartree energ DENC   =     -5198.04543749
  -exchange      EXHF   =         0.00000000
  -V(xc)+E(xc)   XCENC  =       105.75612685
  PAW double counting   =      4377.81825922    -4484.33645771
  entropy T*S    EENTRO =        -0.00000000
  eigenvalues    EBANDS =      -312.39189910
  atomic energy  EATOM  =      3704.33328956
  ---------------------------------------------------
  free energy    TOTEN  =      -160.24074408 eV

  energy without entropy =     -160.24074408  energy(sigma->0) =     -160.24074408


--------------------------------------------------------------------------------------------------------




--------------------------------------- Iteration      1(  13)  ---------------------------------------


    POTLOK:  cpu time      0.8024: real time      0.8023
    SETDIJ:  cpu time      4.6043: real time      4.6043
    TRIAL :  cpu time      0.3546: real time      0.3547
    CORREC:  cpu time      5.6713: real time      5.6708
    CHARGE:  cpu time      0.1100: real time      0.1099
    --------------------------------------------
      LOOP:  cpu time     11.5457: real time     11.5525

 eigenvalue-minimisations  :     0
 total energy-change (2. order) : 0.9598591E-03  (-0.1067978E-02)
 number of electron      44.0000004 magnetization 
 augmentation part       16.5105951 magnetization 

 Free energy of the ion-electron system (eV)
  ---------------------------------------------------
  alpha Z        PSCENC =         1.88600142
  Ewald energy   TEWEN  =      1644.73937317
  -Hartree energ DENC   =     -5198.02027685
  -exchange      EXHF   =         0.00000000
  -V(xc)+E(xc)   XCENC  =       105.75343713
  PAW double counting   =      4377.24730040    -4483.76380586
  entropy T*S    EENTRO =        -0.00000000
  eigenvalues    EBANDS =      -312.41510318
  atomic energy  EATOM  =      3704.33328956
  ---------------------------------------------------
  free energy    TOTEN  =      -160.23978422 eV

  energy without entropy =     -160.23978422  energy(sigma->0) =     -160.23978422


--------------------------------------------------------------------------------------------------------




--------------------------------------- Iteration      1(  14)  ---------------------------------------


    POTLOK:  cpu time      0.8125: real time      0.8124
    SETDIJ:  cpu time      4.6093: real time      4.6093
    TRIAL :  cpu time      0.3531: real time      0.3530
    CORREC:  cpu time      5.6748: real time      5.6746
    CHARGE:  cpu time      0.1162: real time      0.1162
    --------------------------------------------
      LOOP:  cpu time     11.5718: real time     11.5791

 eigenvalue-minimisations  :     0
 total energy-change (2. order) :-0.6771663E-03  (-0.7510855E-03)
 number of electron      44.0000004 magnetization 
 augmentation part       16.5107284 magnetization 

 Free energy of the ion-electron system (eV)
  ---------------------------------------------------
  alpha Z        PSCENC =         1.88600142
  Ewald energy   TEWEN  =      1644.73937317
  -Hartree energ DENC   =     -5197.97961632
  -exchange      EXHF   =         0.00000000
  -V(xc)+E(xc)   XCENC  =       105.74912103
  PAW double counting   =      4376.17562206    -4482.68918130
  entropy T*S    EENTRO =        -0.00000000
  eigenvalues    EBANDS =      -312.45507101
  atomic energy  EATOM  =      3704.33328956
  ---------------------------------------------------
  free energy    TOTEN  =      -160.24046138 eV

  energy without entropy =     -160.24046138  energy(sigma->0) =     -160.24046138


--------------------------------------------------------------------------------------------------------




--------------------------------------- Iteration      1(  15)  ---------------------------------------


    POTLOK:  cpu time      0.8040: real time      0.8041
    SETDIJ:  cpu time      4.6018: real time      4.6017
    TRIAL :  cpu time      0.3524: real time      0.3525
    CORREC:  cpu time      5.6653: real time      5.6652
    CHARGE:  cpu time      0.1185: real time      0.1185
    --------------------------------------------
      LOOP:  cpu time     11.5479: real time     11.5559

 eigenvalue-minimisations  :     0
 total energy-change (2. order) : 0.6627063E-03  (-0.5511059E-03)
 number of electron      44.0000004 magnetization 
 augmentation part       16.5111150 magnetization 

 Free energy of the ion-electron system (eV)
  ---------------------------------------------------
  alpha Z        PSCENC =         1.88600142
  Ewald energy   TEWEN  =      1644.73937317
  -Hartree energ DENC   =     -5197.97349700
  -exchange      EXHF   =         0.00000000
  -V(xc)+E(xc)   XCENC  =       105.74779351
  PAW double counting   =      4375.78974099    -4482.30231287
  entropy T*S    EENTRO =        -0.00000000
  eigenvalues    EBANDS =      -312.46018746
  atomic energy  EATOM  =      3704.33328956
  ---------------------------------------------------
  free energy    TOTEN  =      -160.23979868 eV

  energy without entropy =     -160.23979868  energy(sigma->0) =     -160.23979868


--------------------------------------------------------------------------------------------------------




--------------------------------------- Iteration      1(  16)  ---------------------------------------


    POTLOK:  cpu time      0.8148: real time      0.8148
    SETDIJ:  cpu time      4.5986: real time      4.5987
    TRIAL :  cpu time      0.3554: real time      0.3554
    CORREC:  cpu time      5.6692: real time      5.6694
    CHARGE:  cpu time      0.1116: real time      0.1116
    --------------------------------------------
      LOOP:  cpu time     11.5537: real time     11.5612

 eigenvalue-minimisations  :     0
 total energy-change (2. order) :-0.9196940E-03  (-0.6958833E-03)
 number of electron      44.0000004 magnetization 
 augmentation part       16.5111871 magnetization 

 Free energy of the ion-electron system (eV)
  ---------------------------------------------------
  alpha Z        PSCENC =         1.88600142
  Ewald energy   TEWEN  =      1644.73937317
  -Hartree energ DENC   =     -5197.95299335
  -exchange      EXHF   =         0.00000000
  -V(xc)+E(xc)   XCENC  =       105.74424379
  PAW double counting   =      4374.57810188    -4481.08781440
  entropy T*S    EENTRO =        -0.00000000
  eigenvalues    EBANDS =      -312.48092044
  atomic energy  EATOM  =      3704.33328956
  ---------------------------------------------------
  free energy    TOTEN  =      -160.24071837 eV

  energy without entropy =     -160.24071837  energy(sigma->0) =     -160.24071837


--------------------------------------------------------------------------------------------------------




--------------------------------------- Iteration      1(  17)  ---------------------------------------


    POTLOK:  cpu time      0.8002: real time      0.8003
    SETDIJ:  cpu time      4.6080: real time      4.6080
    TRIAL :  cpu time      0.3520: real time      0.3521
    CORREC:  cpu time      5.6786: real time      5.6784
    CHARGE:  cpu time      0.1115: real time      0.1117
    --------------------------------------------
      LOOP:  cpu time     11.5543: real time     11.5619

 eigenvalue-minimisations  :     0
 total energy-change (2. order) : 0.7582404E-03  (-0.3397912E-03)
 number of electron      44.0000004 magnetization 
 augmentation part       16.5114097 magnetization 

 Free energy of the ion-electron system (eV)
  ---------------------------------------------------
  alpha Z        PSCENC =         1.88600142
  Ewald energy   TEWEN  =      1644.73937317
  -Hartree energ DENC   =     -5197.95166274
  -exchange      EXHF   =         0.00000000
  -V(xc)+E(xc)   XCENC  =       105.74344568
  PAW double counting   =      4374.32167354    -4480.83084954
  entropy T*S    EENTRO =        -0.00000000
  eigenvalues    EBANDS =      -312.48123122
  atomic energy  EATOM  =      3704.33328956
  ---------------------------------------------------
  free energy    TOTEN  =      -160.23996013 eV

  energy without entropy =     -160.23996013  energy(sigma->0) =     -160.23996013


--------------------------------------------------------------------------------------------------------




--------------------------------------- Iteration      1(  18)  ---------------------------------------


    POTLOK:  cpu time      0.8114: real time      0.8112
    SETDIJ:  cpu time      4.6022: real time      4.6022
    TRIAL :  cpu time      0.3523: real time      0.3523
    CORREC:  cpu time      5.6867: real time      5.6865
    CHARGE:  cpu time      0.1101: real time      0.1107
    --------------------------------------------
      LOOP:  cpu time     11.5662: real time     11.5746

 eigenvalue-minimisations  :     0
 total energy-change (2. order) :-0.5860794E-03  (-0.3596711E-03)
 number of electron      44.0000004 magnetization 
 augmentation part       16.5114505 magnetization 

 Free energy of the ion-electron system (eV)
  ---------------------------------------------------
  alpha Z        PSCENC =         1.88600142
  Ewald energy   TEWEN  =      1644.73937317
  -Hartree energ DENC   =     -5197.94561851
  -exchange      EXHF   =         0.00000000
  -V(xc)+E(xc)   XCENC  =       105.74133469
  PAW double counting   =      4373.43871203    -4479.94624330
  entropy T*S    EENTRO =        -0.00000000
  eigenvalues    EBANDS =      -312.48739528
  atomic energy  EATOM  =      3704.33328956
  ---------------------------------------------------
  free energy    TOTEN  =      -160.24054621 eV

  energy without entropy =     -160.24054621  energy(sigma->0) =     -160.24054621


--------------------------------------------------------------------------------------------------------




--------------------------------------- Iteration      1(  19)  ---------------------------------------


    POTLOK:  cpu time      0.8061: real time      0.8062
    SETDIJ:  cpu time      4.6098: real time      4.6097
    TRIAL :  cpu time      0.3522: real time      0.3522
    CORREC:  cpu time      5.6676: real time      5.6678
    CHARGE:  cpu time      0.1107: real time      0.1107
    --------------------------------------------
      LOOP:  cpu time     11.5515: real time     11.5594

 eigenvalue-minimisations  :     0
 total energy-change (2. order) : 0.3914513E-03  (-0.1372112E-03)
 number of electron      44.0000004 magnetization 
 augmentation part       16.5115157 magnetization 

 Free energy of the ion-electron system (eV)
  ---------------------------------------------------
  alpha Z        PSCENC =         1.88600142
  Ewald energy   TEWEN  =      1644.73937317
  -Hartree energ DENC   =     -5197.94568663
  -exchange      EXHF   =         0.00000000
  -V(xc)+E(xc)   XCENC  =       105.74090605
  PAW double counting   =      4373.24456416    -4479.75177729
  entropy T*S    EENTRO =        -0.00000000
  eigenvalues    EBANDS =      -312.48682520
  atomic energy  EATOM  =      3704.33328956
  ---------------------------------------------------
  free energy    TOTEN  =      -160.24015476 eV

  energy without entropy =     -160.24015476  energy(sigma->0) =     -160.24015476


--------------------------------------------------------------------------------------------------------




--------------------------------------- Iteration      1(  20)  ---------------------------------------


    POTLOK:  cpu time      0.8139: real time      0.8138
    SETDIJ:  cpu time      4.6041: real time      4.6041
    TRIAL :  cpu time      0.3588: real time      0.3587
    CORREC:  cpu time      5.6788: real time      5.6786
    CHARGE:  cpu time      0.1162: real time      0.1162
    --------------------------------------------
      LOOP:  cpu time     11.5752: real time     11.5828

 eigenvalue-minimisations  :     0
 total energy-change (2. order) :-0.1368123E-05  (-0.1239077E-03)
 number of electron      44.0000004 magnetization 
 augmentation part       16.5115733 magnetization 

 Free energy of the ion-electron system (eV)
  ---------------------------------------------------
  alpha Z        PSCENC =         1.88600142
  Ewald energy   TEWEN  =      1644.73937317
  -Hartree energ DENC   =     -5197.94469125
  -exchange      EXHF   =         0.00000000
  -V(xc)+E(xc)   XCENC  =       105.74019703
  PAW double counting   =      4372.90294451    -4479.40964454
  entropy T*S    EENTRO =        -0.00000000
  eigenvalues    EBANDS =      -312.48762602
  atomic energy  EATOM  =      3704.33328956
  ---------------------------------------------------
  free energy    TOTEN  =      -160.24015613 eV

  energy without entropy =     -160.24015613  energy(sigma->0) =     -160.24015613


--------------------------------------------------------------------------------------------------------




--------------------------------------- Iteration      1(  21)  ---------------------------------------


    POTLOK:  cpu time      0.8044: real time      0.8043
    SETDIJ:  cpu time      4.6032: real time      4.6033
    TRIAL :  cpu time      0.3521: real time      0.3520
    CORREC:  cpu time      5.6646: real time      5.6647
    CHARGE:  cpu time      0.1094: real time      0.1094
    --------------------------------------------
      LOOP:  cpu time     11.5377: real time     11.5458

 eigenvalue-minimisations  :     0
 total energy-change (2. order) :-0.1149431E-03  (-0.5375828E-04)
 number of electron      44.0000004 magnetization 
 augmentation part       16.5115995 magnetization 

 Free energy of the ion-electron system (eV)
  ---------------------------------------------------
  alpha Z        PSCENC =         1.88600142
  Ewald energy   TEWEN  =      1644.73937317
  -Hartree energ DENC   =     -5197.94351670
  -exchange      EXHF   =         0.00000000
  -V(xc)+E(xc)   XCENC  =       105.73954879
  PAW double counting   =      4372.56114894    -4479.06738703
  entropy T*S    EENTRO =        -0.00000000
  eigenvalues    EBANDS =      -312.48872922
  atomic energy  EATOM  =      3704.33328956
  ---------------------------------------------------
  free energy    TOTEN  =      -160.24027107 eV

  energy without entropy =     -160.24027107  energy(sigma->0) =     -160.24027107


--------------------------------------------------------------------------------------------------------




--------------------------------------- Iteration      1(  22)  ---------------------------------------


    POTLOK:  cpu time      0.7988: real time      0.7987
    SETDIJ:  cpu time      4.5959: real time      4.5959
    TRIAL :  cpu time      0.3546: real time      0.3547
    CORREC:  cpu time      5.6014: real time      5.6014
    CHARGE:  cpu time      0.1141: real time      0.1141
    --------------------------------------------
      LOOP:  cpu time     11.4682: real time     11.4761

 eigenvalue-minimisations  :     0
 total energy-change (2. order) : 0.5673977E-04  ( 0.2023677E-04)
 number of electron      44.0000004 magnetization 
 augmentation part       16.5116603 magnetization 

 Free energy of the ion-electron system (eV)
  ---------------------------------------------------
  alpha Z        PSCENC =         1.88600142
  Ewald energy   TEWEN  =      1644.73937317
  -Hartree energ DENC   =     -5197.94315042
  -exchange      EXHF   =         0.00000000
  -V(xc)+E(xc)   XCENC  =       105.73918893
  PAW double counting   =      4372.38804205    -4478.89406158
  entropy T*S    EENTRO =        -0.00000000
  eigenvalues    EBANDS =      -312.48889746
  atomic energy  EATOM  =      3704.33328956
  ---------------------------------------------------
  free energy    TOTEN  =      -160.24021433 eV

  energy without entropy =     -160.24021433  energy(sigma->0) =     -160.24021433


--------------------------------------------------------------------------------------------------------




--------------------------------------- Iteration      1(  23)  ---------------------------------------


    POTLOK:  cpu time      0.8080: real time      0.8079
    SETDIJ:  cpu time      4.6046: real time      4.6048
    TRIAL :  cpu time      0.3514: real time      0.3513
    CORREC:  cpu time      5.5980: real time      5.5981
    CHARGE:  cpu time      0.1152: real time      0.1152
    --------------------------------------------
      LOOP:  cpu time     11.4815: real time     11.4890

 eigenvalue-minimisations  :     0
 total energy-change (2. order) :-0.1091971E-03  ( 0.3455927E-04)
 number of electron      44.0000004 magnetization 
 augmentation part       16.5117978 magnetization 

 Free energy of the ion-electron system (eV)
  ---------------------------------------------------
  alpha Z        PSCENC =         1.88600142
  Ewald energy   TEWEN  =      1644.73937317
  -Hartree energ DENC   =     -5197.94230137
  -exchange      EXHF   =         0.00000000
  -V(xc)+E(xc)   XCENC  =       105.73843250
  PAW double counting   =      4371.97440016    -4478.47991294
  entropy T*S    EENTRO =        -0.00000000
  eigenvalues    EBANDS =      -312.48960604
  atomic energy  EATOM  =      3704.33328956
  ---------------------------------------------------
  free energy    TOTEN  =      -160.24032353 eV

  energy without entropy =     -160.24032353  energy(sigma->0) =     -160.24032353


--------------------------------------------------------------------------------------------------------




--------------------------------------- Iteration      1(  24)  ---------------------------------------


    POTLOK:  cpu time      0.8031: real time      0.8030
    SETDIJ:  cpu time      4.6078: real time      4.6076
    TRIAL :  cpu time      0.3553: real time      0.3555
    CORREC:  cpu time      5.6877: real time      5.6875
    CHARGE:  cpu time      0.1106: real time      0.1106
    --------------------------------------------
      LOOP:  cpu time     11.5679: real time     11.5758

 eigenvalue-minimisations  :     0
 total energy-change (2. order) :-0.2080735E-03  (-0.4537224E-04)
 number of electron      44.0000004 magnetization 
 augmentation part       16.5119089 magnetization 

 Free energy of the ion-electron system (eV)
  ---------------------------------------------------
  alpha Z        PSCENC =         1.88600142
  Ewald energy   TEWEN  =      1644.73937317
  -Hartree energ DENC   =     -5197.94099871
  -exchange      EXHF   =         0.00000000
  -V(xc)+E(xc)   XCENC  =       105.73670672
  PAW double counting   =      4371.00235174    -4477.50670441
  entropy T*S    EENTRO =        -0.00000000
  eigenvalues    EBANDS =      -312.49055110
  atomic energy  EATOM  =      3704.33328956
  ---------------------------------------------------
  free energy    TOTEN  =      -160.24053160 eV

  energy without entropy =     -160.24053160  energy(sigma->0) =     -160.24053160


--------------------------------------------------------------------------------------------------------




--------------------------------------- Iteration      1(  25)  ---------------------------------------


    POTLOK:  cpu time      0.7975: real time      0.7976
    SETDIJ:  cpu time      4.6121: real time      4.6122
    TRIAL :  cpu time      0.3532: real time      0.3532
    CORREC:  cpu time      5.6723: real time      5.6721
    CHARGE:  cpu time      0.1156: real time      0.1156
    --------------------------------------------
      LOOP:  cpu time     11.5550: real time     11.5624

 eigenvalue-minimisations  :     0
 total energy-change (2. order) : 0.1391838E-04  (-0.1686523E-04)
 number of electron      44.0000004 magnetization 
 augmentation part       16.5119446 magnetization 

 Free energy of the ion-electron system (eV)
  ---------------------------------------------------
  alpha Z        PSCENC =         1.88600142
  Ewald energy   TEWEN  =      1644.73937317
  -Hartree energ DENC   =     -5197.94060477
  -exchange      EXHF   =         0.00000000
  -V(xc)+E(xc)   XCENC  =       105.73519264
  PAW double counting   =      4370.16988798    -4476.67327598
  entropy T*S    EENTRO =        -0.00000000
  eigenvalues    EBANDS =      -312.49038171
  atomic energy  EATOM  =      3704.33328956
  ---------------------------------------------------
  free energy    TOTEN  =      -160.24051768 eV

  energy without entropy =     -160.24051768  energy(sigma->0) =     -160.24051768


--------------------------------------------------------------------------------------------------------




--------------------------------------- Iteration      1(  26)  ---------------------------------------


    POTLOK:  cpu time      0.8022: real time      0.8022
    SETDIJ:  cpu time      4.6101: real time      4.6101
    TRIAL :  cpu time      0.3550: real time      0.3551
    CORREC:  cpu time      5.6698: real time      5.6697
    CHARGE:  cpu time      0.1115: real time      0.1115
    --------------------------------------------
      LOOP:  cpu time     11.5596: real time     11.5598

 eigenvalue-minimisations  :     0
 total energy-change (2. order) : 0.5384431E-04  (-0.4242054E-05)
 number of electron      44.0000004 magnetization 
 augmentation part       16.5119449 magnetization 

 Free energy of the ion-electron system (eV)
  ---------------------------------------------------
  alpha Z        PSCENC =         1.88600142
  Ewald energy   TEWEN  =      1644.73937317
  -Hartree energ DENC   =     -5197.94079980
  -exchange      EXHF   =         0.00000000
  -V(xc)+E(xc)   XCENC  =       105.73465693
  PAW double counting   =      4369.87081206    -4476.37387134
  entropy T*S    EENTRO =        -0.00000000
  eigenvalues    EBANDS =      -312.48992584
  atomic energy  EATOM  =      3704.33328956
  ---------------------------------------------------
  free energy    TOTEN  =      -160.24046384 eV

  energy without entropy =     -160.24046384  energy(sigma->0) =     -160.24046384


--------------------------------------------------------------------------------------------------------




--------------------------------------- Iteration      1(  27)  ---------------------------------------


    POTLOK:  cpu time      0.7947: real time      0.7946
    SETDIJ:  cpu time      4.6100: real time      4.6101
    TRIAL :  cpu time      0.3569: real time      0.3569
    CORREC:  cpu time      5.6750: real time      5.6752
    CHARGE:  cpu time      0.1107: real time      0.1107
    --------------------------------------------
      LOOP:  cpu time     11.5507: real time     11.5593

 eigenvalue-minimisations  :     0
 total energy-change (2. order) : 0.2336397E-04  (-0.2648397E-05)
 number of electron      44.0000004 magnetization 
 augmentation part       16.5119452 magnetization 

 Free energy of the ion-electron system (eV)
  ---------------------------------------------------
  alpha Z        PSCENC =         1.88600142
  Ewald energy   TEWEN  =      1644.73937317
  -Hartree energ DENC   =     -5197.94098943
  -exchange      EXHF   =         0.00000000
  -V(xc)+E(xc)   XCENC  =       105.73462226
  PAW double counting   =      4369.84635271    -4476.34939619
  entropy T*S    EENTRO =        -0.00000000
  eigenvalues    EBANDS =      -312.48969397
  atomic energy  EATOM  =      3704.33328956
  ---------------------------------------------------
  free energy    TOTEN  =      -160.24044048 eV

  energy without entropy =     -160.24044048  energy(sigma->0) =     -160.24044048


--------------------------------------------------------------------------------------------------------




--------------------------------------- Iteration      1(  28)  ---------------------------------------


    POTLOK:  cpu time      0.8103: real time      0.8102
    SETDIJ:  cpu time      4.6024: real time      4.6024
    TRIAL :  cpu time      0.3538: real time      0.3539
    CORREC:  cpu time      5.6841: real time      5.6843
    CHARGE:  cpu time      0.1109: real time      0.1108
    --------------------------------------------
      LOOP:  cpu time     11.5652: real time     11.5726

 eigenvalue-minimisations  :     0
 total energy-change (2. order) : 0.1824011E-04  (-0.2182674E-05)
 number of electron      44.0000004 magnetization 
 augmentation part       16.5119454 magnetization 

 Free energy of the ion-electron system (eV)
  ---------------------------------------------------
  alpha Z        PSCENC =         1.88600142
  Ewald energy   TEWEN  =      1644.73937317
  -Hartree energ DENC   =     -5197.94114959
  -exchange      EXHF   =         0.00000000
  -V(xc)+E(xc)   XCENC  =       105.73459213
  PAW double counting   =      4369.82482080    -4476.32785097
  entropy T*S    EENTRO =        -0.00000000
  eigenvalues    EBANDS =      -312.48949876
  atomic energy  EATOM  =      3704.33328956
  ---------------------------------------------------
  free energy    TOTEN  =      -160.24042223 eV

  energy without entropy =     -160.24042223  energy(sigma->0) =     -160.24042223


--------------------------------------------------------------------------------------------------------




--------------------------------------- Iteration      1(  29)  ---------------------------------------


    POTLOK:  cpu time      0.8071: real time      0.8070
    SETDIJ:  cpu time      4.6094: real time      4.6095
    TRIAL :  cpu time      0.3539: real time      0.3538
    CORREC:  cpu time      5.6758: real time      5.6755
    CHARGE:  cpu time      0.1116: real time      0.1117
    --------------------------------------------
      LOOP:  cpu time     11.5683: real time     11.5682

 eigenvalue-minimisations  :     0
 total energy-change (2. order) : 0.8423369E-05  (-0.1589485E-05)
 number of electron      44.0000004 magnetization 
 augmentation part       16.5119455 magnetization 

 Free energy of the ion-electron system (eV)
  ---------------------------------------------------
  alpha Z        PSCENC =         1.88600142
  Ewald energy   TEWEN  =      1644.73937317
  -Hartree energ DENC   =     -5197.94130633
  -exchange      EXHF   =         0.00000000
  -V(xc)+E(xc)   XCENC  =       105.73456562
  PAW double counting   =      4369.80284030    -4476.30585735
  entropy T*S    EENTRO =        -0.00000000
  eigenvalues    EBANDS =      -312.48932021
  atomic energy  EATOM  =      3704.33328956
  ---------------------------------------------------
  free energy    TOTEN  =      -160.24041381 eV

  energy without entropy =     -160.24041381  energy(sigma->0) =     -160.24041381


--------------------------------------------------------------------------------------------------------




--------------------------------------- Iteration      1(  30)  ---------------------------------------


    POTLOK:  cpu time      0.8099: real time      0.8099
    SETDIJ:  cpu time      4.6033: real time      4.6034
    TRIAL :  cpu time      0.3551: real time      0.3550
    CORREC:  cpu time      5.6705: real time      5.6705
    CHARGE:  cpu time      0.1145: real time      0.1145
    --------------------------------------------
      LOOP:  cpu time     11.5562: real time     11.5650

 eigenvalue-minimisations  :     0
 total energy-change (2. order) : 0.9511555E-05  (-0.1470227E-05)
 number of electron      44.0000004 magnetization 
 augmentation part       16.5119457 magnetization 

 Free energy of the ion-electron system (eV)
  ---------------------------------------------------
  alpha Z        PSCENC =         1.88600142
  Ewald energy   TEWEN  =      1644.73937317
  -Hartree energ DENC   =     -5197.94144625
  -exchange      EXHF   =         0.00000000
  -V(xc)+E(xc)   XCENC  =       105.73454116
  PAW double counting   =      4369.78331848    -4476.28632423
  entropy T*S    EENTRO =        -0.00000000
  eigenvalues    EBANDS =      -312.48915761
  atomic energy  EATOM  =      3704.33328956
  ---------------------------------------------------
  free energy    TOTEN  =      -160.24040430 eV

  energy without entropy =     -160.24040430  energy(sigma->0) =     -160.24040430


--------------------------------------------------------------------------------------------------------




--------------------------------------- Iteration      1(  31)  ---------------------------------------


    POTLOK:  cpu time      0.7985: real time      0.7986
    SETDIJ:  cpu time      4.6055: real time      4.6055
    TRIAL :  cpu time      0.3521: real time      0.3522
    CORREC:  cpu time      5.6897: real time      5.6896
    CHARGE:  cpu time      0.1104: real time      0.1103
    --------------------------------------------
      LOOP:  cpu time     11.5594: real time     11.5673

 eigenvalue-minimisations  :     0
 total energy-change (2. order) : 0.6257626E-05  (-0.1318602E-05)
 number of electron      44.0000004 magnetization 
 augmentation part       16.5119457 magnetization 

 Free energy of the ion-electron system (eV)
  ---------------------------------------------------
  alpha Z        PSCENC =         1.88600142
  Ewald energy   TEWEN  =      1644.73937317
  -Hartree energ DENC   =     -5197.94159558
  -exchange      EXHF   =         0.00000000
  -V(xc)+E(xc)   XCENC  =       105.73451559
  PAW double counting   =      4369.76220064    -4476.26519450
  entropy T*S    EENTRO =        -0.00000000
  eigenvalues    EBANDS =      -312.48898834
  atomic energy  EATOM  =      3704.33328956
  ---------------------------------------------------
  free energy    TOTEN  =      -160.24039804 eV

  energy without entropy =     -160.24039804  energy(sigma->0) =     -160.24039804


--------------------------------------------------------------------------------------------------------




--------------------------------------- Iteration      1(  32)  ---------------------------------------


    POTLOK:  cpu time      0.8030: real time      0.8031
    SETDIJ:  cpu time      4.6060: real time      4.6061
    TRIAL :  cpu time      0.3547: real time      0.3547
    CORREC:  cpu time      5.6702: real time      5.6704
    CHARGE:  cpu time      0.1151: real time      0.1151
    --------------------------------------------
      LOOP:  cpu time     11.5526: real time     11.5605

 eigenvalue-minimisations  :     0
 total energy-change (2. order) : 0.9049671E-05  (-0.1334940E-05)
 number of electron      44.0000004 magnetization 
 augmentation part       16.5119458 magnetization 

 Free energy of the ion-electron system (eV)
  ---------------------------------------------------
  alpha Z        PSCENC =         1.88600142
  Ewald energy   TEWEN  =      1644.73937317
  -Hartree energ DENC   =     -5197.94175022
  -exchange      EXHF   =         0.00000000
  -V(xc)+E(xc)   XCENC  =       105.73449126
  PAW double counting   =      4369.74066609    -4476.24364816
  entropy T*S    EENTRO =        -0.00000000
  eigenvalues    EBANDS =      -312.48881212
  atomic energy  EATOM  =      3704.33328956
  ---------------------------------------------------
  free energy    TOTEN  =      -160.24038899 eV

  energy without entropy =     -160.24038899  energy(sigma->0) =     -160.24038899


--------------------------------------------------------------------------------------------------------




--------------------------------------- Iteration      1(  33)  ---------------------------------------


    POTLOK:  cpu time      0.7969: real time      0.7968
    SETDIJ:  cpu time      4.6014: real time      4.6015
    TRIAL :  cpu time      0.3522: real time      0.3523
    CORREC:  cpu time      5.6832: real time      5.6832
    CHARGE:  cpu time      0.1101: real time      0.1101
    --------------------------------------------
      LOOP:  cpu time     11.5478: real time     11.5557

 eigenvalue-minimisations  :     0
 total energy-change (2. order) : 0.7001922E-05  (-0.1458902E-05)
 number of electron      44.0000004 magnetization 
 augmentation part       16.5119458 magnetization 

 Free energy of the ion-electron system (eV)
  ---------------------------------------------------
  alpha Z        PSCENC =         1.88600142
  Ewald energy   TEWEN  =      1644.73937317
  -Hartree energ DENC   =     -5197.94191957
  -exchange      EXHF   =         0.00000000
  -V(xc)+E(xc)   XCENC  =       105.73446569
  PAW double counting   =      4369.71652028    -4476.21948943
  entropy T*S    EENTRO =        -0.00000000
  eigenvalues    EBANDS =      -312.48862311
  atomic energy  EATOM  =      3704.33328956
  ---------------------------------------------------
  free energy    TOTEN  =      -160.24038199 eV

  energy without entropy =     -160.24038199  energy(sigma->0) =     -160.24038199


--------------------------------------------------------------------------------------------------------




--------------------------------------- Iteration      1(  34)  ---------------------------------------


    POTLOK:  cpu time      0.8077: real time      0.8076
    SETDIJ:  cpu time      4.6104: real time      4.6103
    TRIAL :  cpu time      0.3532: real time      0.3531
    CORREC:  cpu time      5.6848: real time      5.6847
    CHARGE:  cpu time      0.1164: real time      0.1164
    --------------------------------------------
      LOOP:  cpu time     11.5762: real time     11.5835

 eigenvalue-minimisations  :     0
 total energy-change (2. order) : 0.4342774E-05  (-0.1298204E-05)
 number of electron      44.0000004 magnetization 
 augmentation part       16.5119458 magnetization 

 Free energy of the ion-electron system (eV)
  ---------------------------------------------------
  alpha Z        PSCENC =         1.88600142
  Ewald energy   TEWEN  =      1644.73937317
  -Hartree energ DENC   =     -5197.94211992
  -exchange      EXHF   =         0.00000000
  -V(xc)+E(xc)   XCENC  =       105.73443635
  PAW double counting   =      4369.68759170    -4476.19054577
  entropy T*S    EENTRO =        -0.00000000
  eigenvalues    EBANDS =      -312.48840416
  atomic energy  EATOM  =      3704.33328956
  ---------------------------------------------------
  free energy    TOTEN  =      -160.24037765 eV

  energy without entropy =     -160.24037765  energy(sigma->0) =     -160.24037765


--------------------------------------------------------------------------------------------------------




--------------------------------------- Iteration      1(  35)  ---------------------------------------


    POTLOK:  cpu time      0.8050: real time      0.8047
    SETDIJ:  cpu time      4.6087: real time      4.6087
    TRIAL :  cpu time      0.3534: real time      0.3535
    CORREC:  cpu time      5.6683: real time      5.6683
    CHARGE:  cpu time      0.1102: real time      0.1104
    --------------------------------------------
      LOOP:  cpu time     11.5580: real time     11.5654

 eigenvalue-minimisations  :     0
 total energy-change (2. order) : 0.4708954E-05  (-0.1446610E-05)
 number of electron      44.0000004 magnetization 
 augmentation part       16.5119457 magnetization 

 Free energy of the ion-electron system (eV)
  ---------------------------------------------------
  alpha Z        PSCENC =         1.88600142
  Ewald energy   TEWEN  =      1644.73937317
  -Hartree energ DENC   =     -5197.94231814
  -exchange      EXHF   =         0.00000000
  -V(xc)+E(xc)   XCENC  =       105.73440991
  PAW double counting   =      4369.65927328    -4476.16221294
  entropy T*S    EENTRO =        -0.00000000
  eigenvalues    EBANDS =      -312.48818920
  atomic energy  EATOM  =      3704.33328956
  ---------------------------------------------------
  free energy    TOTEN  =      -160.24037294 eV

  energy without entropy =     -160.24037294  energy(sigma->0) =     -160.24037294


--------------------------------------------------------------------------------------------------------




--------------------------------------- Iteration      1(  36)  ---------------------------------------


    POTLOK:  cpu time      0.7985: real time      0.7983
    SETDIJ:  cpu time      4.5950: real time      4.5951
    TRIAL :  cpu time      0.3546: real time      0.3546
    CORREC:  cpu time      5.6763: real time      5.6763
    CHARGE:  cpu time      0.1161: real time      0.1161
    --------------------------------------------
      LOOP:  cpu time     11.5447: real time     11.5523

 eigenvalue-minimisations  :     0
 total energy-change (2. order) : 0.2270616E-05  (-0.1305499E-05)
 number of electron      44.0000004 magnetization 
 augmentation part       16.5119456 magnetization 

 Free energy of the ion-electron system (eV)
  ---------------------------------------------------
  alpha Z        PSCENC =         1.88600142
  Ewald energy   TEWEN  =      1644.73937317
  -Hartree energ DENC   =     -5197.94255520
  -exchange      EXHF   =         0.00000000
  -V(xc)+E(xc)   XCENC  =       105.73438037
  PAW double counting   =      4369.62509080    -4476.12801345
  entropy T*S    EENTRO =        -0.00000000
  eigenvalues    EBANDS =      -312.48793733
  atomic energy  EATOM  =      3704.33328956
  ---------------------------------------------------
  free energy    TOTEN  =      -160.24037067 eV

  energy without entropy =     -160.24037067  energy(sigma->0) =     -160.24037067


--------------------------------------------------------------------------------------------------------




--------------------------------------- Iteration      1(  37)  ---------------------------------------


    POTLOK:  cpu time      0.8024: real time      0.8025
    SETDIJ:  cpu time      4.6049: real time      4.6050
    TRIAL :  cpu time      0.3526: real time      0.3526
    CORREC:  cpu time      5.6647: real time      5.6649
    CHARGE:  cpu time      0.1168: real time      0.1168
    --------------------------------------------
      LOOP:  cpu time     11.5533: real time     11.5537

 eigenvalue-minimisations  :     0
 total energy-change (2. order) : 0.1864945E-05  (-0.1709964E-05)
 number of electron      44.0000004 magnetization 
 augmentation part       16.5119454 magnetization 

 Free energy of the ion-electron system (eV)
  ---------------------------------------------------
  alpha Z        PSCENC =         1.88600142
  Ewald energy   TEWEN  =      1644.73937317
  -Hartree energ DENC   =     -5197.94277863
  -exchange      EXHF   =         0.00000000
  -V(xc)+E(xc)   XCENC  =       105.73435137
  PAW double counting   =      4369.59236709    -4476.09527382
  entropy T*S    EENTRO =        -0.00000000
  eigenvalues    EBANDS =      -312.48769896
  atomic energy  EATOM  =      3704.33328956
  ---------------------------------------------------
  free energy    TOTEN  =      -160.24036880 eV

  energy without entropy =     -160.24036880  energy(sigma->0) =     -160.24036880


[...]


    POTLOK:  cpu time      0.8070: real time      0.8067
    SETDIJ:  cpu time      4.6004: real time      4.6005
    TRIAL :  cpu time      0.3556: real time      0.3556
    CORREC:  cpu time      5.6759: real time      5.6759
    CHARGE:  cpu time      0.1142: real time      0.1144
    --------------------------------------------
      LOOP:  cpu time     11.5568: real time     11.5642

 eigenvalue-minimisations  :     0
 total energy-change (2. order) : 0.2287979E-05  (-0.1888161E-05)
 number of electron      44.0000004 magnetization 
 augmentation part       16.5119184 magnetization 

 Free energy of the ion-electron system (eV)
  ---------------------------------------------------
  alpha Z        PSCENC =         1.88600142
  Ewald energy   TEWEN  =      1644.73937317
  -Hartree energ DENC   =     -5197.94890906
  -exchange      EXHF   =         0.00000000
  -V(xc)+E(xc)   XCENC  =       105.73338331
  PAW double counting   =      4368.37025025    -4474.87266155
  entropy T*S    EENTRO =        -0.00000000
  eigenvalues    EBANDS =      -312.48107407
  atomic energy  EATOM  =      3704.33328956
  ---------------------------------------------------
  free energy    TOTEN  =      -160.24034696 eV

  energy without entropy =     -160.24034696  energy(sigma->0) =     -160.24034696


--------------------------------------------------------------------------------------------------------




--------------------------------------- Iteration      1(  57)  ---------------------------------------


    POTLOK:  cpu time      0.8032: real time      0.8031
    SETDIJ:  cpu time      4.6040: real time      4.6040
    TRIAL :  cpu time      0.3531: real time      0.3530
    CORREC:  cpu time      5.6899: real time      5.6899
    CHARGE:  cpu time      0.1125: real time      0.1125
    --------------------------------------------
      LOOP:  cpu time     11.5657: real time     11.5740

 eigenvalue-minimisations  :     0
 total energy-change (2. order) :-0.1910095E-05  (-0.2968630E-05)
 number of electron      44.0000004 magnetization 
 augmentation part       16.5119150 magnetization 

 Free energy of the ion-electron system (eV)
  ---------------------------------------------------
  alpha Z        PSCENC =         1.88600142
  Ewald energy   TEWEN  =      1644.73937317
  -Hartree energ DENC   =     -5197.94913758
  -exchange      EXHF   =         0.00000000
  -V(xc)+E(xc)   XCENC  =       105.73333216
  PAW double counting   =      4368.30247494    -4474.80486180
  entropy T*S    EENTRO =        -0.00000000
  eigenvalues    EBANDS =      -312.48082075
  atomic energy  EATOM  =      3704.33328956
  ---------------------------------------------------
  free energy    TOTEN  =      -160.24034887 eV

  energy without entropy =     -160.24034887  energy(sigma->0) =     -160.24034887


--------------------------------------------------------------------------------------------------------




--------------------------------------- Iteration      1(  58)  ---------------------------------------


    POTLOK:  cpu time      0.8031: real time      0.8031
    SETDIJ:  cpu time      4.6013: real time      4.6014
    TRIAL :  cpu time      0.3540: real time      0.3539
    CORREC:  cpu time      5.6825: real time      5.6825
    CHARGE:  cpu time      0.1153: real time      0.1152
    --------------------------------------------
      LOOP:  cpu time     11.5602: real time     11.5672

 eigenvalue-minimisations  :     0
 total energy-change (2. order) :-0.2476914E-05  (-0.1237578E-05)
 number of electron      44.0000004 magnetization 
 augmentation part       16.5119137 magnetization 

 Free energy of the ion-electron system (eV)
  ---------------------------------------------------
  alpha Z        PSCENC =         1.88600142
  Ewald energy   TEWEN  =      1644.73937317
  -Hartree energ DENC   =     -5197.94943903
  -exchange      EXHF   =         0.00000000
  -V(xc)+E(xc)   XCENC  =       105.73325922
  PAW double counting   =      4368.21020419    -4474.71255824
  entropy T*S    EENTRO =        -0.00000000
  eigenvalues    EBANDS =      -312.48048165
  atomic energy  EATOM  =      3704.33328956
  ---------------------------------------------------
  free energy    TOTEN  =      -160.24035135 eV

  energy without entropy =     -160.24035135  energy(sigma->0) =     -160.24035135


--------------------------------------------------------------------------------------------------------




--------------------------------------- Iteration      1(  59)  ---------------------------------------


    POTLOK:  cpu time      0.8100: real time      0.8100
    SETDIJ:  cpu time      4.6056: real time      4.6055
    TRIAL :  cpu time      0.3517: real time      0.3516
    CORREC:  cpu time      5.6784: real time      5.6782
    CHARGE:  cpu time      0.1181: real time      0.1181
    --------------------------------------------
      LOOP:  cpu time     11.5676: real time     11.5744

 eigenvalue-minimisations  :     0
 total energy-change (2. order) : 0.2957460E-05  (-0.6990141E-06)
 number of electron      44.0000004 magnetization 
 augmentation part       16.5119128 magnetization 

 Free energy of the ion-electron system (eV)
  ---------------------------------------------------
  alpha Z        PSCENC =         1.88600142
  Ewald energy   TEWEN  =      1644.73937317
  -Hartree energ DENC   =     -5197.94953621
  -exchange      EXHF   =         0.00000000
  -V(xc)+E(xc)   XCENC  =       105.73323563
  PAW double counting   =      4368.17966293    -4474.68200632
  entropy T*S    EENTRO =        -0.00000000
  eigenvalues    EBANDS =      -312.48036859
  atomic energy  EATOM  =      3704.33328956
  ---------------------------------------------------
  free energy    TOTEN  =      -160.24034839 eV

  energy without entropy =     -160.24034839  energy(sigma->0) =     -160.24034839


--------------------------------------------------------------------------------------------------------




--------------------------------------- Iteration      1(  60)  ---------------------------------------


    POTLOK:  cpu time      0.7991: real time      0.7991
    SETDIJ:  cpu time      4.5959: real time      4.5959
    TRIAL :  cpu time      0.3545: real time      0.3544
    CORREC:  cpu time      5.6941: real time      5.6940
    CHARGE:  cpu time      0.1213: real time      0.1213
    --------------------------------------------
      LOOP:  cpu time     11.5684: real time     11.5764

 eigenvalue-minimisations  :     0
 total energy-change (2. order) : 0.3551713E-06  (-0.1373647E-05)
 number of electron      44.0000004 magnetization 
 augmentation part       16.5119110 magnetization 

 Free energy of the ion-electron system (eV)
  ---------------------------------------------------
  alpha Z        PSCENC =         1.88600142
  Ewald energy   TEWEN  =      1644.73937317
  -Hartree energ DENC   =     -5197.94960153
  -exchange      EXHF   =         0.00000000
  -V(xc)+E(xc)   XCENC  =       105.73321840
  PAW double counting   =      4368.15737605    -4474.65971169
  entropy T*S    EENTRO =        -0.00000000
  eigenvalues    EBANDS =      -312.48029341
  atomic energy  EATOM  =      3704.33328956
  ---------------------------------------------------
  free energy    TOTEN  =      -160.24034804 eV

  energy without entropy =     -160.24034804  energy(sigma->0) =     -160.24034804


--------------------------------------------------------------------------------------------------------




--------------------------------------- Iteration      1(  61)  ---------------------------------------


    POTLOK:  cpu time      0.7993: real time      0.7993
    SETDIJ:  cpu time      4.6141: real time      4.6141
    TRIAL :  cpu time      0.3503: real time      0.3504
    CORREC:  cpu time      5.6718: real time      5.6713
    EDDIAG:  cpu time      0.1452: real time      0.1452
    CHARGE:  cpu time      0.1172: real time      0.1173
    --------------------------------------------
      LOOP:  cpu time     11.7013: real time     11.7085

 eigenvalue-minimisations  :     0
 total energy-change (2. order) : 0.3936657E-06  (-0.5492272E-06)
 number of electron      44.0000004 magnetization 
 augmentation part       16.5119102 magnetization 

 Free energy of the ion-electron system (eV)
  ---------------------------------------------------
  alpha Z        PSCENC =         1.88600142
  Ewald energy   TEWEN  =      1644.73937317
  -Hartree energ DENC   =     -5197.94974028
  -exchange      EXHF   =         0.00000000
  -V(xc)+E(xc)   XCENC  =       105.73318438
  PAW double counting   =      4368.11117900    -4474.61349868
  entropy T*S    EENTRO =        -0.00000000
  eigenvalues    EBANDS =      -312.48013621
  atomic energy  EATOM  =      3704.33328956
  ---------------------------------------------------
  free energy    TOTEN  =      -160.24034764 eV

  energy without entropy =     -160.24034764  energy(sigma->0) =     -160.24034764


--------------------------------------------------------------------------------------------------------


  average scaling for gradient   0.4285


 average (electrostatic) potential at core
  the test charge radii are     1.2098
  (the norm of the test charge is              1.0000)
       1 -80.6034       2 -81.6104       3 -81.7361       4 -81.8296
 
 
 
 E-fermi :  -5.0376     XC(G=0):  -0.3132     alpha+bet : -0.0961

 Fermi energy:        -5.0375958991

 k-point     1 :       0.0000    0.0000    0.0000
  band No.  band energies     occupation 
      1      -9.6774      2.00000
      2      -8.9805      2.00000
      3      -8.6699      2.00000
      4      -8.4119      2.00000
      5      -8.2620      2.00000
      6      -7.8103      2.00000
      7      -7.6657      2.00000
      8      -7.4456      2.00000
      9      -7.1290      2.00000
     10      -6.9782      2.00000
     11      -6.9677      2.00000
     12      -6.8681      2.00000
     13      -6.7882      2.00000
     14      -6.7400      2.00000
     15      -6.6777      2.00000
     16      -6.5680      2.00000
     17      -6.0036      2.00000
     18      -6.0029      2.00000
     19      -5.8626      2.00000
     20      -5.8183      2.00000
     21      -5.6370      2.00000
     22      -5.2751      2.00000
     23      -4.1710      0.00000
     24      -2.9004      0.00000
     25      -1.2903      0.00000
     26      -0.7312      0.00000
     27      -0.5294      0.00000
     28      -0.1676      0.00000
     29      -0.1060      0.00000
     30       0.0826      0.00000
     31       0.1626      0.00000
     32       0.4792      0.00000


--------------------------------------------------------------------------------------------------------


 soft charge-density along one line, spin component           1
         0         1         2         3         4         5         6         7         8         9
 total charge-density along one line
 
 pseudopotential strength for first ion, spin component:           1
 -8.914  -0.000  -0.000  -0.048   0.000  -9.048  -0.000  -0.000
 -0.000  -8.965  -0.020   0.000   0.046  -0.000  -9.099  -0.020
 -0.000  -0.020  -8.959  -0.000  -0.032  -0.000  -0.020  -9.092
 -0.048   0.000  -0.000  -8.924   0.000  -0.047   0.000  -0.000
  0.000   0.046  -0.032   0.000  -8.912   0.000   0.045  -0.031
 -9.048  -0.000  -0.000  -0.047   0.000  -9.167  -0.000  -0.000
 -0.000  -9.099  -0.020   0.000   0.045  -0.000  -9.217  -0.020
 -0.000  -0.020  -9.092  -0.000  -0.031  -0.000  -0.020  -9.210
 -0.047   0.000  -0.000  -9.058   0.000  -0.046   0.000  -0.000
  0.000   0.045  -0.031   0.000  -9.046   0.000   0.045  -0.030
 -0.000   0.031   0.013   0.000  -0.017  -0.000   0.030   0.012
 -0.000   0.046   0.019   0.000  -0.025  -0.000   0.044   0.018
  0.000  -0.023   0.007   0.000   0.018   0.000  -0.024   0.007
  0.000  -0.022  -0.027   0.000   0.001   0.000  -0.022  -0.028
 -0.017   0.000  -0.000  -0.021   0.000  -0.017   0.000  -0.000
  0.000  -0.018   0.004   0.000   0.011   0.000  -0.019   0.004
  0.000  -0.016  -0.021   0.000   0.001   0.000  -0.017  -0.022
 -0.011   0.000  -0.000  -0.016   0.000  -0.011   0.000  -0.000
 total augmentation occupancy for first ion, spin component:           1
  3.105   0.000  -0.000   0.185  -0.000  -0.749  -0.000   0.000  -0.234   0.000   0.000  -0.000  -0.000  -0.000  -0.016   0.000
  0.000   3.342   0.014   0.000  -0.322  -0.000  -1.280  -0.156  -0.000   0.448  -2.044   0.762  -0.106  -0.078  -0.000  -0.016
 -0.000   0.014   3.199  -0.000   0.123   0.000  -0.155  -0.917  -0.000  -0.121  -0.832   0.290   0.007  -0.021   0.000   0.019
  0.185   0.000  -0.000   3.117  -0.000  -0.234  -0.000  -0.000  -0.753   0.000   0.000  -0.000  -0.000  -0.000  -0.016   0.000
 -0.000  -0.322   0.123  -0.000   3.214   0.000   0.449  -0.119   0.000  -0.899   1.030  -0.399   0.078   0.046   0.000   0.019
 -0.749  -0.000   0.000  -0.234   0.000   0.386   0.000  -0.000   0.275  -0.000  -0.000  -0.000   0.000   0.000   0.050  -0.000
 -0.000  -1.280  -0.155  -0.000   0.449   0.000   1.151   0.265   0.000  -0.554   1.720  -0.650   0.173   0.163   0.000  -0.015
  0.000  -0.156  -0.917  -0.000  -0.119  -0.000   0.265   0.611   0.000   0.116   0.675  -0.234  -0.006   0.085  -0.000  -0.006
 -0.234  -0.000  -0.000  -0.753   0.000   0.275   0.000   0.000   0.384  -0.000  -0.000  -0.000   0.000   0.000   0.049  -0.000
  0.000   0.448  -0.121   0.000  -0.899  -0.000  -0.554   0.116  -0.000   0.566  -0.863   0.337  -0.125  -0.062  -0.000   0.008
  0.000  -2.044  -0.832   0.000   1.030  -0.000   1.720   0.675  -0.000  -0.863   5.678  -1.993   0.298   0.309  -0.000  -0.032
 -0.000   0.762   0.290  -0.000  -0.399  -0.000  -0.650  -0.234  -0.000   0.337  -1.993   0.705  -0.114  -0.113   0.000   0.012
 -0.000  -0.106   0.007  -0.000   0.078   0.000   0.173  -0.006   0.000  -0.125   0.298  -0.114   0.040   0.025   0.000  -0.005
 -0.000  -0.078  -0.021  -0.000   0.046   0.000   0.163   0.085   0.000  -0.062   0.309  -0.113   0.025   0.036   0.000  -0.004
 -0.016  -0.000   0.000  -0.016   0.000   0.050   0.000  -0.000   0.049  -0.000  -0.000   0.000   0.000   0.000   0.011   0.000
  0.000  -0.016   0.019   0.000   0.019  -0.000  -0.015  -0.006  -0.000   0.008  -0.032   0.012  -0.005  -0.004   0.000   0.001
  0.000  -0.014  -0.033   0.000  -0.008  -0.000  -0.016  -0.004  -0.000   0.008  -0.032   0.012  -0.004  -0.006  -0.000   0.001
 -0.028   0.000  -0.000  -0.032   0.000   0.001  -0.000   0.000   0.002  -0.000   0.000  -0.000   0.000   0.000  -0.002  -0.000


------------------------ aborting loop because EDIFF is reached ----------------------------------------


    FORLOC:  cpu time      0.0069: real time      0.0069
    FORNL :  cpu time      0.0612: real time      0.0612
    STRESS:  cpu time      1.6753: real time      1.6751
    FORCOR:  cpu time      0.7220: real time      0.7216
    OFIELD:  cpu time      0.0002: real time      0.0002

  FORCE on cell =-STRESS in cart. coord.  units (eV):
  Direction    XX          YY          ZZ          XY          YZ          ZX
  --------------------------------------------------------------------------------------
  Alpha Z     1.88600     1.88600     1.88600
  Ewald    -598.15556  1504.65621   738.23826     0.82680   454.42282     0.59258
  Hartree   885.02089  2516.26358  1796.66533     0.61894   336.95230     0.41972
  E(xc)    -212.85997  -211.65721  -211.76585     0.00052     0.44473     0.00046
  Local    -980.57454 -4683.77243 -3185.38682    -1.43197  -780.97698    -0.99603
  n-local     1.11673   -11.51254   -19.97829    -0.00418    -3.97120    -0.00629
  augment   274.18736   269.50294   268.97946    -0.00251    -1.36643    -0.00235
  Kinetic   629.40911   615.77364   612.42658    -0.00653    -3.83308    -0.00661
  Fock        0.00000     0.00000     0.00000     0.00000     0.00000     0.00000
  -------------------------------------------------------------------------------------
  Total       0.03001     1.14019     1.06466     0.00108     1.67217     0.00148
  in kB       0.00487     0.18487     0.17262     0.00017     0.27112     0.00024
  external pressure =        0.12 kB  Pullay stress =        0.00 kB


 VOLUME and BASIS-vectors are now :
 -----------------------------------------------------------------------------
  energy-cutoff  :      520.00
  volume of cell :     9881.61
      direct lattice vectors                 reciprocal lattice vectors
    21.138852197  0.000000000  0.000000000     0.047306258  0.000000000  0.000000000
     0.000000000 21.138852197  0.000000000     0.000000000  0.047306258  0.000000000
     0.000000000  0.000000000 22.113885220     0.000000000  0.000000000  0.045220457

  length of vectors
    21.138852197 21.138852197 22.113885220     0.047306258  0.047306258  0.045220457


 FORCES acting on ions:
    Electron-Ion                     Ewald-Force                    Non-Local-Force
 -----------------------------------------------------------------------------------------------
   0.557E-01 0.370E+03 0.226E+03   -.564E-01 -.366E+03 -.222E+03   0.261E-02 -.439E+01 -.480E+01
   0.196E+00 0.210E+03 -.295E+03   -.196E+00 -.211E+03 0.291E+03   0.232E-02 0.117E+01 0.388E+01
   -.391E+00 -.354E+03 -.349E+03   0.386E+00 0.351E+03 0.345E+03   0.303E-02 0.355E+01 0.483E+01
   0.136E+00 -.227E+03 0.421E+03   -.133E+00 0.226E+03 -.414E+03   -.256E-02 -.118E+00 -.726E+01
 -----------------------------------------------------------------------------------------------
   -.243E-02 -.221E+00 0.339E+01   -.278E-16 0.568E-13 -.568E-13   0.540E-02 0.217E+00 -.335E+01
 
 
 POSITION                                       TOTAL-FORCE (eV/Angst)
 -----------------------------------------------------------------------------------
      8.45451      8.98915     13.34135         0.001114     -0.411654     -0.260627
      8.45464     10.77395     15.12987         0.002355      0.334660     -0.164418
      8.45667     13.37210     15.77041        -0.003565      0.421305      0.555515
      8.45496     12.78393     13.26751         0.000096     -0.344310     -0.130469
 -----------------------------------------------------------------------------------
    total drift:                                0.002976     -0.003957      0.040204


--------------------------------------------------------------------------------------------------------



  FREE ENERGIE OF THE ION-ELECTRON SYSTEM (eV)
  ---------------------------------------------------
  free  energy   TOTEN  =      -160.24034764 eV

  energy  without entropy=     -160.24034764  energy(sigma->0) =     -160.24034764
 


--------------------------------------------------------------------------------------------------------


    POTLOK:  cpu time      5.2256: real time      5.2255


--------------------------------------------------------------------------------------------------------


     LOOP+:  cpu time    716.7557: real time    717.2486
    4ORBIT:  cpu time      0.0000: real time      0.0000

 total amount of memory used by VASP MPI-rank0    68402. kBytes
=======================================================================

   base      :      30000. kBytes
   nonlr-proj:        682. kBytes
   fftplans  :      11482. kBytes
   grid      :      25425. kBytes
   one-center:         15. kBytes
   wavefun   :        798. kBytes
 
  
  
 General timing and accounting informations for this job:
 ========================================================
  
                  Total CPU time used (sec):      730.380
                            User time (sec):      728.972
                          System time (sec):        1.408
                         Elapsed time (sec):      731.479
  
                   Maximum memory used (kb):      733652.
                   Average memory used (kb):          N/A
  
                          Minor page faults:        35613
                          Major page faults:            0
                 Voluntary context switches:         5333
