 vasp.6.3.2 27Jun22 (build Jan 05 2024 11:34:19) complex                        
  
 executed on           IFC15_impi date 2024.01.08  18:59:42
 running   64 mpi-ranks, with    1 threads/rank
 distrk:  each k-point on   64 cores,    1 groups
 distr:  one band on NCORE=   2 cores,   32 groups


--------------------------------------------------------------------------------------------------------


 INCAR:
   SYSTEM = MgO-rocksalt
   ISMEAR = 0
   SIGMA = 0.05
   EDIFF = 1E-6
   ALGO = ALL
   ISTART = 0
   IBRION = -1
   NSW = 0
   ISYM = 2
   METAGGA = M06L
   ENCUT = 520
   PREC = Accurate
   LASPH = .TRUE.
   LREAL = Auto
   ISPIN = 1
   NELM = 2000
   NELMIN = 8
   NCORE = 2
   LWAVE = .FALSE.
   LCHARG = .FALSE.

 POTCAR:    PAW_PBE Ag 02Apr2005                  
 POTCAR:    PAW_PBE Ag 02Apr2005                  
   SHA256 =  6550cfa3543261e132c169e1b98a529204624d72be14e2da2e0242bcb74a174d Ag/POTCAR             
   COPYR  = (c) Copyright 02Apr2005 Georg Kresse                                                    
   COPYR  = This file is part of the software VASP. Any use, copying, and all other rights are regul
   COPYR  = If you do not have a valid VASP license, you may not use, copy or distribute this file. 
   VRHFIN =Ag : s1 d10                                                                              
   LEXCH  = PE                                                                                      
   EATOM  =  1037.2675 eV,   76.2370 Ry                                                             
                                                                                                    
   TITEL  = PAW_PBE Ag 02Apr2005                                                                    
   LULTRA =        F    use ultrasoft PP ?                                                          
   IUNSCR =        1    unscreen: 0-lin 1-nonlin 2-no                                               
   RPACOR =    2.000    partial core radius                                                         
   POMASS =  107.868; ZVAL   =   11.000    mass and valenz                                          
   RCORE  =    2.500    outmost cutoff radius                                                       
   RWIGS  =    2.840; RWIGS  =    1.503    wigner-seitz radius (au A)                               
   ENMAX  =  249.844; ENMIN  =  187.383 eV                                                          
   ICORE  =        3    local potential                                                             
   LCOR   =        T    correct aug charges                                                         
   LPAW   =        T    paw PP                                                                      
   EAUG   =  412.496                                                                                
   DEXC   =    0.000                                                                                
   RMAX   =    2.560    core radius for proj-oper                                                   
   RAUG   =    1.300    factor for augmentation sphere                                              
   RDEP   =    2.576    radius for radial grids                                                     
   RDEPT  =    2.072    core radius for aug-charge                                                  
                                                                                                    
   Atomic configuration                                                                             
   12 entries                                                                                       
     n  l   j            E        occ.                                                              
     1  0  0.50    -25324.9161   2.0000                                                             
     2  0  0.50     -3728.5341   2.0000                                                             
     2  1  1.50     -3344.0404   6.0000                                                             
     3  0  0.50      -683.5581   2.0000                                                             
     3  1  1.50      -557.3225   6.0000                                                             
     3  2  2.50      -358.3853  10.0000                                                             
     4  0  0.50       -95.0341   2.0000                                                             
     4  1  1.50       -58.5511   6.0000                                                             
     4  2  2.50        -7.4440  10.0000                                                             
     5  0  0.50        -4.4045   1.0000                                                             
     5  1  0.50        -1.3606   0.0000                                                             
     4  3  2.50        -1.3606   0.0000                                                             
   Description                                                                                      
     l       E           TYP  RCUT    TYP  RCUT                                                     
     2     -7.4439781     23  2.400                                                                 
     2     -8.8045607     23  2.400                                                                 
     0     -4.4044681     23  2.400                                                                 
     0      1.9520038     23  2.400                                                                 
     1     -1.3605826     23  2.500                                                                 
     1     27.2116520     23  2.500                                                                 
     3     -4.0817478     23  2.400                                                                 
  local pseudopotential read in
  partial core-charges read in
  partial kinetic energy density read in
  atomic valenz-charges read in
  non local Contribution for L=           2  read in
    real space projection operators read in
  non local Contribution for L=           2  read in
    real space projection operators read in
  non local Contribution for L=           0  read in
    real space projection operators read in
  non local Contribution for L=           0  read in
    real space projection operators read in
  non local Contribution for L=           1  read in
    real space projection operators read in
  non local Contribution for L=           1  read in
    real space projection operators read in
    PAW grid and wavefunctions read in
 
   number of l-projection  operators is LMAX  =           6
   number of lm-projection operators is LMMAX =          18
 
 -----------------------------------------------------------------------------
|                                                                             |
|               ----> ADVICE to this user running VASP <----                  |
|                                                                             |
|     You have a (more or less) 'small supercell' and for smaller cells       |
|     it is recommended to use the reciprocal-space projection scheme!        |
|     The real-space optimization is not efficient for small cells and it     |
|     is also less accurate ...                                               |
|     Therefore, set LREAL=.FALSE. in the INCAR file.                         |
|                                                                             |
 -----------------------------------------------------------------------------

 Optimization of the real space projectors (new method)

 maximal supplied QI-value         = 15.12
 optimisation between [QCUT,QGAM] = [ 11.64, 23.28] = [ 37.95,151.78] Ry 
 Optimized for a Real-space Cutoff    1.45 Angstroem

   l    n(q)    QCUT    max X(q) W(low)/X(q) W(high)/X(q)  e(spline) 
   2      9    11.641    53.897    0.22E-03    0.42E-04    0.28E-06
   2      9    11.641    52.416    0.23E-03    0.44E-04    0.29E-06
   0     10    11.641   122.045    0.51E-04    0.25E-04    0.16E-06
   0     10    11.641    73.629    0.49E-04    0.24E-04    0.16E-06
   1     10    11.641    15.255    0.99E-04    0.55E-04    0.11E-06
   1     10    11.641     9.562    0.81E-04    0.47E-04    0.95E-07
  PAW_PBE Ag 02Apr2005                  :
 energy of atom  1       EATOM=-1037.2675
 kinetic energy error for atom=    0.0047 (will be added to EATOM!!)
 
 
 POSCAR: ag4
  positions in direct lattice
  velocities in cartesian coordinates

 METAGGA = M06L     LMAXTAU =  6    LMIXTAU =  F

 exchange correlation table for  LEXCH =        8
   RHO(1)=    0.500       N(1)  =     2000
   RHO(2)=  100.500       N(2)  =     4000

 VTST: version 4.1, (05/19/21)

 CHAIN: initializing optimizer
 
 OPT: Using VASP Dynamics algorithm
 CHAIN: Read ICHAIN            0
 
 POSCAR: ag4
  positions in direct lattice
  velocities in cartesian coordinates
 


--------------------------------------------------------------------------------------------------------


 ion  position               nearest neighbor table
   1  0.999  0.000  0.000-   2 2.58
   2  0.128  0.000  0.000-   1 2.58   3 2.68
   3  0.262  0.000  0.000-   4 2.58   2 2.68
   4  0.391  0.000  0.000-   3 2.58
 
  LATTYP: Found a simple cubic cell.
 ALAT       =    20.0000000000
  
  Lattice vectors:
  
 A1 = (  20.0000000000,   0.0000000000,   0.0000000000)
 A2 = (   0.0000000000,  20.0000000000,   0.0000000000)
 A3 = (   0.0000000000,   0.0000000000,  20.0000000000)


Analysis of symmetry for initial positions (statically):
=====================================================================
 Subroutine PRICEL returns:
 Original cell was already a primitive cell.
 

 Routine SETGRP: Setting up the symmetry group for a 
 simple cubic supercell.


 Subroutine GETGRP returns: Found 16 space group operations
 (whereof  8 operations were pure point group operations)
 out of a pool of 48 trial point group operations.


The static configuration has the point symmetry C_4v.
 The point group associated with its full space group is D_4h.


Analysis of symmetry for dynamics (positions and initial velocities):
=====================================================================
 Subroutine PRICEL returns:
 Original cell was already a primitive cell.
 

 Routine SETGRP: Setting up the symmetry group for a 
 simple cubic supercell.


 Subroutine GETGRP returns: Found 16 space group operations
 (whereof  8 operations were pure point group operations)
 out of a pool of 48 trial point group operations.


The dynamic configuration has the point symmetry C_4v.
 The point group associated with its full space group is D_4h.


 Subroutine INISYM returns: Found 16 space group operations
 (whereof  8 operations are pure point group operations),
 and found     1 'primitive' translations


----------------------------------------------------------------------------------------

                                     Primitive cell                                     

  volume of cell :    8000.0000

  direct lattice vectors                    reciprocal lattice vectors
    20.000000000  0.000000000  0.000000000     0.050000000  0.000000000  0.000000000
     0.000000000 20.000000000  0.000000000     0.000000000  0.050000000  0.000000000
     0.000000000  0.000000000 20.000000000     0.000000000  0.000000000  0.050000000

  length of vectors
    20.000000000 20.000000000 20.000000000     0.050000000  0.050000000  0.050000000

  position of ions in fractional coordinates (direct lattice)
     0.999240438  0.000000000  0.000000000
     0.128048018  0.000000000  0.000000000
     0.261951982  0.000000000  0.000000000
     0.390759562  0.000000000  0.000000000

  ion indices of the primitive-cell ions
   primitive index   ion index
                 1           1
                 2           2
                 3           3
                 4           4

----------------------------------------------------------------------------------------

 
 
 KPOINTS: KPOINTS created by Atomic Simulation Env

Automatic generation of k-mesh.
 Grid dimensions read from file:
 generate k-points for:    1    1    1

 Generating k-lattice:

  Cartesian coordinates                     Fractional coordinates (reciprocal lattice)
     0.050000000  0.000000000  0.000000000     1.000000000  0.000000000  0.000000000
     0.000000000  0.050000000  0.000000000     0.000000000  1.000000000  0.000000000
     0.000000000  0.000000000  0.050000000     0.000000000  0.000000000  1.000000000

  Length of vectors
     0.050000000  0.050000000  0.050000000

  Shift w.r.t. Gamma in fractional coordinates (k-lattice)
     0.000000000  0.000000000  0.000000000

 
 Subroutine IBZKPT returns following result:
 ===========================================
 
 Found      1 irreducible k-points:
 
 Following reciprocal coordinates:
            Coordinates               Weight
  0.000000  0.000000  0.000000      1.000000
 
 Following cartesian coordinates:
            Coordinates               Weight
  0.000000  0.000000  0.000000      1.000000
 


--------------------------------------------------------------------------------------------------------




 Dimension of arrays:
   k-points           NKPTS =      1   k-points in BZ     NKDIM =      1   number of bands    NBANDS=     32
   number of dos      NEDOS =    301   number of ions     NIONS =      4
   non local maximal  LDIM  =      6   non local SUM 2l+1 LMDIM =     18
   total plane-waves  NPLWV = ******
   max r-space proj   IRMAX =   5390   max aug-charges    IRDMAX=  20940
   dimension x,y,z NGX =   150 NGY =  150 NGZ =  150
   dimension x,y,z NGXF=   300 NGYF=  300 NGZF=  300
   support grid    NGXF=   300 NGYF=  300 NGZF=  300
   ions per type =               4
   NGX,Y,Z   is equivalent  to a cutoff of  12.47, 12.47, 12.47 a.u.
   NGXF,Y,Z  is equivalent  to a cutoff of  24.94, 24.94, 24.94 a.u.

 SYSTEM =  MgO-rocksalt                            
 POSCAR =  ag4                                     

 Startparameter for this run:
   NWRITE =      2    write-flag & timer
   PREC   = accura    normal or accurate (medium, high low for compatibility)
   ISTART =      0    job   : 0-new  1-cont  2-samecut
   ICHARG =      2    charge: 1-file 2-atom 10-const
   ISPIN  =      1    spin polarized calculation?
   LNONCOLLINEAR =      F non collinear calculations
   LSORBIT =      F    spin-orbit coupling
   INIWAV =      1    electr: 0-lowe 1-rand  2-diag
   LASPH  =      T    aspherical Exc in radial PAW
 Electronic Relaxation 1
   ENCUT  =  520.0 eV  38.22 Ry    6.18 a.u.  37.19 37.19 37.19*2*pi/ulx,y,z
   ENINI  =  520.0     initial cutoff
   ENAUG  =  412.5 eV  augmentation charge cutoff
   NELM   =   2000;   NELMIN=  8; NELMDL= -5     # of ELM steps 
   EDIFF  = 0.1E-05   stopping-criterion for ELM
   LREAL  =      T    real-space projection
   NLSPLINE    = F    spline interpolate recip. space projectors
   LCOMPAT=      F    compatible to vasp.4.4
   GGA_COMPAT  = T    GGA compatible to vasp.4.4-vasp.4.6
   LMAXPAW     = -100 max onsite density
   LMAXMIX     =    2 max onsite mixed and CHGCAR
   VOSKOWN=      0    Vosko Wilk Nusair interpolation
   ROPT   =   -0.00025
 Ionic relaxation
   EDIFFG = 0.1E-04   stopping-criterion for IOM
   NSW    =      0    number of steps for IOM
   NBLOCK =      1;   KBLOCK =      1    inner block; outer block 
   IBRION =     -1    ionic relax: 0-MD 1-quasi-New 2-CG
   NFREE  =      0    steps in history (QN), initial steepest desc. (CG)
   ISIF   =      2    stress and relaxation
   IWAVPR =     10    prediction:  0-non 1-charg 2-wave 3-comb
   ISYM   =      2    0-nonsym 1-usesym 2-fastsym
   LCORR  =      T    Harris-Foulkes like correction to forces

   POTIM  = 0.5000    time-step for ionic-motion
   TEIN   =    0.0    initial temperature
   TEBEG  =    0.0;   TEEND  =   0.0 temperature during run
   SMASS  =  -3.00    Nose mass-parameter (am)
   estimated Nose-frequenzy (Omega)   =  0.10E-29 period in steps = 0.13E+47 mass=  -0.914E-26a.u.
   SCALEE = 1.0000    scale energy and forces
   NPACO  =    256;   APACO  = 10.0  distance and # of slots for P.C.
   PSTRESS=    0.0 pullay stress

  Mass of Ions in am
   POMASS = 107.87
  Ionic Valenz
   ZVAL   =  11.00
  Atomic Wigner-Seitz radii
   RWIGS  =  -1.00
  virtual crystal weights 
   VCA    =   1.00
   NELECT =      44.0000    total number of electrons
   NUPDOWN=      -1.0000    fix difference up-down

 DOS related values:
   EMIN   =  10.00;   EMAX   =-10.00  energy-range for DOS
   EFERMI =   0.00
   ISMEAR =     0;   SIGMA  =   0.05  broadening in eV -4-tet -1-fermi 0-gaus

 Electronic relaxation 2 (details)
   IALGO  =     58    algorithm
   LDIAG  =      T    sub-space diagonalisation (order eigenvalues)
   LSUBROT=      F    optimize rotation matrix (better conditioning)
   TURBO    =      0    0=normal 1=particle mesh
   IRESTART =      0    0=no restart 2=restart with 2 vectors
   NREBOOT  =      0    no. of reboots
   NMIN     =      0    reboot dimension
   EREF     =   0.00    reference energy to select bands
   IMIX   =      4    mixing-type and parameters
     AMIX     =   0.40;   BMIX     =  1.00
     AMIX_MAG =   1.60;   BMIX_MAG =  1.00
     AMIN     =   0.10
     WC   =   100.;   INIMIX=   1;  MIXPRE=   1;  MAXMIX= -45

 Intra band minimization:
   WEIMIN = 0.0000     energy-eigenvalue tresh-hold
   EBREAK =  0.78E-08  absolut break condition
   DEPER  =   0.30     relativ break condition  

   TIME   =   0.40     timestep for ELM

  volume/ion in A,a.u.               =    2000.00     13496.67
  Fermi-wavevector in a.u.,A,eV,Ry     =   0.288976  0.546086  1.136187  0.083507
  Thomas-Fermi vector in A             =   1.146265
 
 Write flags
   LWAVE        =      F    write WAVECAR
   LDOWNSAMPLE  =      F    k-point downsampling of WAVECAR
   LCHARG       =      F    write CHGCAR
   LVTOT        =      F    write LOCPOT, total local potential
   LVHAR        =      F    write LOCPOT, Hartree potential only
   LELF         =      F    write electronic localiz. function (ELF)
   LORBIT       =      0    0 simple, 1 ext, 2 COOP (PROOUT), +10 PAW based schemes


 Dipole corrections
   LMONO  =      F    monopole corrections only (constant potential shift)
   LDIPOL =      F    correct potential (dipole corrections)
   IDIPOL =      0    1-x, 2-y, 3-z, 4-all directions 
   EPSILON=  1.0000000 bulk dielectric constant

 Exchange correlation treatment:
   GGA     =    --    GGA type
   LEXCH   =     8    internal setting for exchange type
   LIBXC   =     F    Libxc                    
   VOSKOWN =     0    Vosko Wilk Nusair interpolation
   LHFCALC =     F    Hartree Fock is set to
   LHFONE  =     F    Hartree Fock one center treatment
   AEXX    =    0.0000 exact exchange contribution

 Linear response parameters
   LEPSILON=     F    determine dielectric tensor
   LRPA    =     F    only Hartree local field effects (RPA)
   LNABLA  =     F    use nabla operator in PAW spheres
   LVEL    =     F    velocity operator in full k-point grid
   CSHIFT  =0.1000    complex shift for real part using Kramers Kronig
   OMEGAMAX=  -1.0    maximum frequency
   DEG_THRESHOLD= 0.2000000E-02 threshold for treating states as degnerate
   RTIME   =   -0.100 relaxation time in fs
  (WPLASMAI=    0.000 imaginary part of plasma frequency in eV, 0.658/RTIME)
   DFIELD  = 0.0000000 0.0000000 0.0000000 field for delta impulse in time
 
  Optional k-point grid parameters
   LKPOINTS_OPT  =     F    use optional k-point grid
   KPOINTS_OPT_MODE=     1    mode for optional k-point grid
 
 Orbital magnetization related:
   ORBITALMAG=     F  switch on orbital magnetization
   LCHIMAG   =     F  perturbation theory with respect to B field
   DQ        =  0.001000  dq finite difference perturbation B field
   LLRAUG    =     F  two centre corrections for induced B field



--------------------------------------------------------------------------------------------------------


 Static calculation
 charge density and potential will be updated during run
 non-spin polarized calculation
 Conjugate gradient for all bands (Freysoldt, et al. PRB 79, 241103 (2009))
 preconditioned conjugated gradient                                        
 perform sub-space diagonalisation
    before iterative eigenvector-optimisation
 modified Broyden-mixing scheme, WC =      100.0
 initial mixing is a Kerker type mixing with AMIX =  0.4000 and BMIX =      1.0000
 Hartree-type preconditioning will be used
 using additional bands           10
 real space projection scheme for non local part
 use partial core corrections
 no Harris-corrections to forces 
 use gradient corrections 
 use of overlap-Matrix (Vanderbilt PP)
 Gauss-broadening in eV      SIGMA  =   0.05


--------------------------------------------------------------------------------------------------------


  energy-cutoff  :      520.00
  volume of cell :     8000.00
      direct lattice vectors                 reciprocal lattice vectors
    20.000000000  0.000000000  0.000000000     0.050000000  0.000000000  0.000000000
     0.000000000 20.000000000  0.000000000     0.000000000  0.050000000  0.000000000
     0.000000000  0.000000000 20.000000000     0.000000000  0.000000000  0.050000000

  length of vectors
    20.000000000 20.000000000 20.000000000     0.050000000  0.050000000  0.050000000


 
 k-points in units of 2pi/SCALE and weight: KPOINTS created by Atomic Simulation Env
   0.00000000  0.00000000  0.00000000       1.000
 
 k-points in reciprocal lattice and weights: KPOINTS created by Atomic Simulation Env
   0.00000000  0.00000000  0.00000000       1.000
 
 position of ions in fractional coordinates (direct lattice) 
   0.99924044  0.00000000  0.00000000
   0.12804802  0.00000000  0.00000000
   0.26195198  0.00000000  0.00000000
   0.39075956  0.00000000  0.00000000
 
 position of ions in cartesian coordinates  (Angst):
  19.98480877  0.00000000  0.00000000
   2.56096035  0.00000000  0.00000000
   5.23903965  0.00000000  0.00000000
   7.81519123  0.00000000  0.00000000
 


--------------------------------------------------------------------------------------------------------


 k-point   1 :   0.0000 0.0000 0.0000  plane waves:  215503

 maximum and minimum number of plane-waves per node :    107789   107714

 maximum number of plane-waves:    215503
 maximum index in each direction: 
   IXMAX=   37   IYMAX=   37   IZMAX=   37
   IXMIN=  -37   IYMIN=  -37   IZMIN=  -37


 real space projection operators:
  total allocation   :       2911.22 KBytes
  max/ min on nodes  :       1455.61       1455.61


 parallel 3D FFT for wavefunctions:
    minimum data exchange during FFTs selected (reduces bandwidth)
 parallel 3D FFT for charge:
    minimum data exchange during FFTs selected (reduces bandwidth)


 total amount of memory used by VASP MPI-rank0   249349. kBytes
=======================================================================

   base      :      30000. kBytes
   nonlr-proj:       2152. kBytes
   fftplans  :      64991. kBytes
   grid      :     147000. kBytes
   one-center:         31. kBytes
   wavefun   :       5175. kBytes
 
     INWAV:  cpu time      0.0006: real time      0.0007
 Broyden mixing: mesh for mixing (old mesh)
   NGX = 75   NGY = 75   NGZ = 75
  (NGX  =300   NGY  =300   NGZ  =300)
  gives a total of 421875 points

 initial charge density was supplied:
 charge density of overlapping atoms calculated
 number of electron      44.0000000 magnetization 
 keeping initial charge density in first step


--------------------------------------------------------------------------------------------------------


 Maximum index for non-local projection operator         2591
 Maximum index for augmentation-charges          885 (set IRDMAX)


--------------------------------------------------------------------------------------------------------


 First call to EWALD:  gamma=   0.089
 Maximum number of real-space cells 3x 3x 3
 Maximum number of reciprocal cells 3x 3x 3

    FEWALD:  cpu time      0.0074: real time      0.0074


--------------------------------------- Iteration      1(   1)  ---------------------------------------


    POTLOK:  cpu time      1.3368: real time      1.3469
    SETDIJ:  cpu time      4.7162: real time      4.7192
    TRIAL :  cpu time      3.1158: real time      3.1680
    CORREC:  cpu time      0.0016: real time      0.0015
    --------------------------------------------
      LOOP:  cpu time      9.1779: real time      9.2451

 eigenvalue-minimisations  :    64
 total energy-change (2. order) : 0.2849323E+03  (-0.6653195E+03)
 number of electron      44.0000000 magnetization 
 augmentation part       44.0000000 magnetization 

 Free energy of the ion-electron system (eV)
  ---------------------------------------------------
  alpha Z        PSCENC =         1.70115614
  Ewald energy   TEWEN  =       983.64345616
  -Hartree energ DENC   =     -4948.85466115
  -exchange      EXHF   =         0.00000000
  -V(xc)+E(xc)   XCENC  =      -160.49113991
  PAW double counting   =      4071.35278396    -3860.51907443
  entropy T*S    EENTRO =        -0.04208212
  eigenvalues    EBANDS =        49.09074780
  atomic energy  EATOM  =      4149.05112583
  ---------------------------------------------------
  free energy    TOTEN  =       284.93231229 eV

  energy without entropy =      284.97439441  energy(sigma->0) =      284.95335335


--------------------------------------------------------------------------------------------------------




--------------------------------------- Iteration      1(   2)  ---------------------------------------


    TRIAL :  cpu time      4.6725: real time      4.6804
    CORREC:  cpu time      0.0014: real time      0.0014
    --------------------------------------------
      LOOP:  cpu time      4.6765: real time      4.6924

 eigenvalue-minimisations  :   128
 total energy-change (2. order) :-0.1521945E+03  (-0.1521862E+03)
 number of electron      44.0000000 magnetization 
 augmentation part       44.0000000 magnetization 

 Free energy of the ion-electron system (eV)
  ---------------------------------------------------
  alpha Z        PSCENC =         1.70115614
  Ewald energy   TEWEN  =       983.64345616
  -Hartree energ DENC   =     -4948.85466115
  -exchange      EXHF   =         0.00000000
  -V(xc)+E(xc)   XCENC  =      -160.49113991
  PAW double counting   =      4071.35278396    -3860.51907443
  entropy T*S    EENTRO =        -0.06063170
  eigenvalues    EBANDS =      -103.08519599
  atomic energy  EATOM  =      4149.05112583
  ---------------------------------------------------
  free energy    TOTEN  =       132.73781892 eV

  energy without entropy =      132.79845062  energy(sigma->0) =      132.76813477


--------------------------------------------------------------------------------------------------------




--------------------------------------- Iteration      1(   3)  ---------------------------------------


    TRIAL :  cpu time      4.6252: real time      4.6292
    CORREC:  cpu time      0.0005: real time      0.0005
    --------------------------------------------
      LOOP:  cpu time      4.6278: real time      4.6390

 eigenvalue-minimisations  :   128
 total energy-change (2. order) :-0.1243380E+03  (-0.1235445E+03)
 number of electron      44.0000000 magnetization 
 augmentation part       44.0000000 magnetization 

 Free energy of the ion-electron system (eV)
  ---------------------------------------------------
  alpha Z        PSCENC =         1.70115614
  Ewald energy   TEWEN  =       983.64345616
  -Hartree energ DENC   =     -4948.85466115
  -exchange      EXHF   =         0.00000000
  -V(xc)+E(xc)   XCENC  =      -160.49113991
  PAW double counting   =      4071.35278396    -3860.51907443
  entropy T*S    EENTRO =        -0.00000000
  eigenvalues    EBANDS =      -227.48381824
  atomic energy  EATOM  =      4149.05112583
  ---------------------------------------------------
  free energy    TOTEN  =         8.39982838 eV

  energy without entropy =        8.39982838  energy(sigma->0) =        8.39982838


--------------------------------------------------------------------------------------------------------




--------------------------------------- Iteration      1(   4)  ---------------------------------------


    TRIAL :  cpu time      2.9496: real time      2.9523
    CORREC:  cpu time      0.0008: real time      0.0008
    --------------------------------------------
      LOOP:  cpu time      2.9522: real time      2.9623

 eigenvalue-minimisations  :    64
 total energy-change (2. order) :-0.2992594E+01  (-0.2992594E+01)
 number of electron      44.0000000 magnetization 
 augmentation part       44.0000000 magnetization 

 Free energy of the ion-electron system (eV)
  ---------------------------------------------------
  alpha Z        PSCENC =         1.70115614
  Ewald energy   TEWEN  =       983.64345616
  -Hartree energ DENC   =     -4948.85466115
  -exchange      EXHF   =         0.00000000
  -V(xc)+E(xc)   XCENC  =      -160.49113991
  PAW double counting   =      4071.35278396    -3860.51907443
  entropy T*S    EENTRO =        -0.00000000
  eigenvalues    EBANDS =      -230.47641229
  atomic energy  EATOM  =      4149.05112583
  ---------------------------------------------------
  free energy    TOTEN  =         5.40723432 eV

  energy without entropy =        5.40723432  energy(sigma->0) =        5.40723432


--------------------------------------------------------------------------------------------------------




--------------------------------------- Iteration      1(   5)  ---------------------------------------


    TRIAL :  cpu time      2.9656: real time      2.9678
    CORREC:  cpu time      0.0005: real time      0.0005
    CHARGE:  cpu time     12.3832: real time     12.3911
    --------------------------------------------
      LOOP:  cpu time     15.3520: real time     15.3686

 eigenvalue-minimisations  :    64
 total energy-change (2. order) :-0.3785384E-01  (-0.3785384E-01)
 number of electron      43.9999981 magnetization 
 augmentation part       23.7710353 magnetization 

 Free energy of the ion-electron system (eV)
  ---------------------------------------------------
  alpha Z        PSCENC =         1.70115614
  Ewald energy   TEWEN  =       983.64345616
  -Hartree energ DENC   =     -4948.85466115
  -exchange      EXHF   =         0.00000000
  -V(xc)+E(xc)   XCENC  =      -160.49113991
  PAW double counting   =      4071.35278396    -3860.51907443
  entropy T*S    EENTRO =        -0.00000000
  eigenvalues    EBANDS =      -230.51426613
  atomic energy  EATOM  =      4149.05112583
  ---------------------------------------------------
  free energy    TOTEN  =         5.36938048 eV

  energy without entropy =        5.36938048  energy(sigma->0) =        5.36938048


--------------------------------------------------------------------------------------------------------




--------------------------------------- Iteration      1(   6)  ---------------------------------------


    POTLOK:  cpu time      3.9822: real time      3.9854
    SETDIJ:  cpu time      3.9684: real time      3.9708
    TRIAL :  cpu time      2.7541: real time      2.7567
    CORREC:  cpu time     21.4966: real time     21.5072
    CHARGE:  cpu time     12.3721: real time     12.3836
    --------------------------------------------
      LOOP:  cpu time     44.5830: real time     44.6135

 eigenvalue-minimisations  :     0
 total energy-change (2. order) :-0.4900122E+02  (-0.1314572E+02)
 number of electron      43.9999983 magnetization 
 augmentation part       21.6863514 magnetization 

 Free energy of the ion-electron system (eV)
  ---------------------------------------------------
  alpha Z        PSCENC =         1.70115614
  Ewald energy   TEWEN  =       983.64345616
  -Hartree energ DENC   =     -5108.70869447
  -exchange      EXHF   =         0.00000000
  -V(xc)+E(xc)   XCENC  =      -115.35186065
  PAW double counting   =      5701.97062085    -5479.02482128
  entropy T*S    EENTRO =        -0.00000000
  eigenvalues    EBANDS =      -176.91282082
  atomic energy  EATOM  =      4149.05112583
  ---------------------------------------------------
  free energy    TOTEN  =       -43.63183824 eV

  energy without entropy =      -43.63183824  energy(sigma->0) =      -43.63183824


--------------------------------------------------------------------------------------------------------




--------------------------------------- Iteration      1(   7)  ---------------------------------------


    POTLOK:  cpu time      3.7478: real time      3.7504
    SETDIJ:  cpu time      4.6713: real time      4.6752
    TRIAL :  cpu time      2.6452: real time      2.6462
    CORREC:  cpu time     21.3532: real time     21.3698
    CHARGE:  cpu time     12.3616: real time     12.3716
    --------------------------------------------
      LOOP:  cpu time     44.7820: real time     44.8232

 eigenvalue-minimisations  :     0
 total energy-change (2. order) :-0.1334255E+02  (-0.3111434E+01)
 number of electron      43.9999983 magnetization 
 augmentation part       21.5366461 magnetization 

 Free energy of the ion-electron system (eV)
  ---------------------------------------------------
  alpha Z        PSCENC =         1.70115614
  Ewald energy   TEWEN  =       983.64345616
  -Hartree energ DENC   =     -4876.21377111
  -exchange      EXHF   =         0.00000000
  -V(xc)+E(xc)   XCENC  =      -109.45896920
  PAW double counting   =      4792.28699066    -4581.88307309
  entropy T*S    EENTRO =        -0.00000000
  eigenvalues    EBANDS =      -416.10130044
  atomic energy  EATOM  =      4149.05112583
  ---------------------------------------------------
  free energy    TOTEN  =       -56.97438504 eV

  energy without entropy =      -56.97438504  energy(sigma->0) =      -56.97438504


--------------------------------------------------------------------------------------------------------




--------------------------------------- Iteration      1(   8)  ---------------------------------------


    POTLOK:  cpu time      3.7117: real time      3.7141
    SETDIJ:  cpu time      4.6732: real time      4.6787
    TRIAL :  cpu time      2.6511: real time      2.6521
    CORREC:  cpu time     21.2806: real time     21.2968
    CHARGE:  cpu time     12.3801: real time     12.3911
    --------------------------------------------
      LOOP:  cpu time     44.6992: real time     44.7423

 eigenvalue-minimisations  :     0
 total energy-change (2. order) :-0.3130647E+01  (-0.3709478E+00)
 number of electron      43.9999983 magnetization 
 augmentation part       21.5399744 magnetization 

 Free energy of the ion-electron system (eV)
  ---------------------------------------------------
  alpha Z        PSCENC =         1.70115614
  Ewald energy   TEWEN  =       983.64345616
  -Hartree energ DENC   =     -4965.25481807
  -exchange      EXHF   =         0.00000000
  -V(xc)+E(xc)   XCENC  =      -106.13418697
  PAW double counting   =      4625.48240631    -4416.77961981
  entropy T*S    EENTRO =        -0.00000000
  eigenvalues    EBANDS =      -331.81455184
  atomic energy  EATOM  =      4149.05112583
  ---------------------------------------------------
  free energy    TOTEN  =       -60.10503225 eV

  energy without entropy =      -60.10503225  energy(sigma->0) =      -60.10503225


--------------------------------------------------------------------------------------------------------




--------------------------------------- Iteration      1(   9)  ---------------------------------------


    POTLOK:  cpu time      3.5029: real time      3.5056
    SETDIJ:  cpu time      4.6615: real time      4.6648
    TRIAL :  cpu time      2.6778: real time      2.6798
    CORREC:  cpu time     21.0755: real time     21.0918
    CHARGE:  cpu time     12.3622: real time     12.3728
    --------------------------------------------
      LOOP:  cpu time     44.2824: real time     44.3245

 eigenvalue-minimisations  :     0
 total energy-change (2. order) :-0.3509666E+00  (-0.7467622E-01)
 number of electron      43.9999983 magnetization 
 augmentation part       21.4987790 magnetization 

 Free energy of the ion-electron system (eV)
  ---------------------------------------------------
  alpha Z        PSCENC =         1.70115614
  Ewald energy   TEWEN  =       983.64345616
  -Hartree energ DENC   =     -4976.33015162
  -exchange      EXHF   =         0.00000000
  -V(xc)+E(xc)   XCENC  =      -105.96344270
  PAW double counting   =      4755.35969912    -4546.99898966
  entropy T*S    EENTRO =        -0.00000000
  eigenvalues    EBANDS =      -320.91885208
  atomic energy  EATOM  =      4149.05112583
  ---------------------------------------------------
  free energy    TOTEN  =       -60.45599880 eV

  energy without entropy =      -60.45599880  energy(sigma->0) =      -60.45599880


--------------------------------------------------------------------------------------------------------




--------------------------------------- Iteration      1(  10)  ---------------------------------------


    POTLOK:  cpu time      3.1479: real time      3.1499
    SETDIJ:  cpu time      4.6665: real time      4.6698
    TRIAL :  cpu time      2.6700: real time      2.6721
    CORREC:  cpu time     20.5820: real time     20.5977
    CHARGE:  cpu time     12.3875: real time     12.3978
    --------------------------------------------
      LOOP:  cpu time     43.4570: real time     43.4972

 eigenvalue-minimisations  :     0
 total energy-change (2. order) :-0.7404724E-01  (-0.2358204E-01)
 number of electron      43.9999983 magnetization 
 augmentation part       21.5496565 magnetization 

 Free energy of the ion-electron system (eV)
  ---------------------------------------------------
  alpha Z        PSCENC =         1.70115614
  Ewald energy   TEWEN  =       983.64345616
  -Hartree energ DENC   =     -4968.01245762
  -exchange      EXHF   =         0.00000000
  -V(xc)+E(xc)   XCENC  =      -106.01550144
  PAW double counting   =      4905.47164535    -4697.42485173
  entropy T*S    EENTRO =        -0.00000000
  eigenvalues    EBANDS =      -328.94461874
  atomic energy  EATOM  =      4149.05112583
  ---------------------------------------------------
  free energy    TOTEN  =       -60.53004604 eV

  energy without entropy =      -60.53004604  energy(sigma->0) =      -60.53004604


--------------------------------------------------------------------------------------------------------




--------------------------------------- Iteration      1(  11)  ---------------------------------------


    POTLOK:  cpu time      2.8280: real time      2.8298
    SETDIJ:  cpu time      4.6650: real time      4.6682
    TRIAL :  cpu time      2.6553: real time      2.6573
    CORREC:  cpu time     20.5179: real time     20.5338
    CHARGE:  cpu time     12.3738: real time     12.3840
    --------------------------------------------
      LOOP:  cpu time     43.0433: real time     43.0840

 eigenvalue-minimisations  :     0
 total energy-change (2. order) :-0.2351154E-01  (-0.8193884E-02)
 number of electron      43.9999983 magnetization 
 augmentation part       21.5464764 magnetization 

 Free energy of the ion-electron system (eV)
  ---------------------------------------------------
  alpha Z        PSCENC =         1.70115614
  Ewald energy   TEWEN  =       983.64345616
  -Hartree energ DENC   =     -4974.90528371
  -exchange      EXHF   =         0.00000000
  -V(xc)+E(xc)   XCENC  =      -106.18325753
  PAW double counting   =      4997.42995780    -4789.06962035
  entropy T*S    EENTRO =        -0.00000000
  eigenvalues    EBANDS =      -322.22109193
  atomic energy  EATOM  =      4149.05112583
  ---------------------------------------------------
  free energy    TOTEN  =       -60.55355758 eV

  energy without entropy =      -60.55355758  energy(sigma->0) =      -60.55355758


--------------------------------------------------------------------------------------------------------




--------------------------------------- Iteration      1(  12)  ---------------------------------------


    POTLOK:  cpu time      2.7875: real time      2.7895
    SETDIJ:  cpu time      4.6673: real time      4.6712
    TRIAL :  cpu time      2.6596: real time      2.6607
    CORREC:  cpu time     20.4380: real time     20.4556
    CHARGE:  cpu time     12.3637: real time     12.3735
    --------------------------------------------
      LOOP:  cpu time     42.9190: real time     42.9607

 eigenvalue-minimisations  :     0
 total energy-change (2. order) :-0.8236957E-02  (-0.2133244E-02)
 number of electron      43.9999983 magnetization 
 augmentation part       21.5358927 magnetization 

 Free energy of the ion-electron system (eV)
  ---------------------------------------------------
  alpha Z        PSCENC =         1.70115614
  Ewald energy   TEWEN  =       983.64345616
  -Hartree energ DENC   =     -4974.55765786
  -exchange      EXHF   =         0.00000000
  -V(xc)+E(xc)   XCENC  =      -106.20290084
  PAW double counting   =      5032.75478910    -4824.45224893
  entropy T*S    EENTRO =        -0.00000000
  eigenvalues    EBANDS =      -322.49951414
  atomic energy  EATOM  =      4149.05112583
  ---------------------------------------------------
  free energy    TOTEN  =       -60.56179454 eV

  energy without entropy =      -60.56179454  energy(sigma->0) =      -60.56179454


--------------------------------------------------------------------------------------------------------




--------------------------------------- Iteration      1(  13)  ---------------------------------------


    POTLOK:  cpu time      2.5508: real time      2.5528
    SETDIJ:  cpu time      4.6685: real time      4.6717
    TRIAL :  cpu time      2.7071: real time      2.7091
    CORREC:  cpu time     20.1877: real time     20.2064
    CHARGE:  cpu time     12.3487: real time     12.3583
    --------------------------------------------
      LOOP:  cpu time     42.4681: real time     42.5105

 eigenvalue-minimisations  :     0
 total energy-change (2. order) :-0.2151375E-02  (-0.7429450E-03)
 number of electron      43.9999983 magnetization 
 augmentation part       21.5414012 magnetization 

 Free energy of the ion-electron system (eV)
  ---------------------------------------------------
  alpha Z        PSCENC =         1.70115614
  Ewald energy   TEWEN  =       983.64345616
  -Hartree energ DENC   =     -4973.53393555
  -exchange      EXHF   =         0.00000000
  -V(xc)+E(xc)   XCENC  =      -106.18487799
  PAW double counting   =      5027.57328793    -4819.38177042
  entropy T*S    EENTRO =        -0.00000000
  eigenvalues    EBANDS =      -323.43238802
  atomic energy  EATOM  =      4149.05112583
  ---------------------------------------------------
  free energy    TOTEN  =       -60.56394592 eV

  energy without entropy =      -60.56394592  energy(sigma->0) =      -60.56394592


--------------------------------------------------------------------------------------------------------




--------------------------------------- Iteration      1(  14)  ---------------------------------------


    POTLOK:  cpu time      2.4156: real time      2.4168
    SETDIJ:  cpu time      4.6578: real time      4.6609
    TRIAL :  cpu time      2.6777: real time      2.6798
    CORREC:  cpu time     20.1328: real time     20.1486
    CHARGE:  cpu time     12.3731: real time     12.3856
    --------------------------------------------
      LOOP:  cpu time     42.2593: real time     42.3016

 eigenvalue-minimisations  :     0
 total energy-change (2. order) :-0.7328319E-03  (-0.3018026E-03)
 number of electron      43.9999983 magnetization 
 augmentation part       21.5382648 magnetization 

 Free energy of the ion-electron system (eV)
  ---------------------------------------------------
  alpha Z        PSCENC =         1.70115614
  Ewald energy   TEWEN  =       983.64345616
  -Hartree energ DENC   =     -4974.97938762
  -exchange      EXHF   =         0.00000000
  -V(xc)+E(xc)   XCENC  =      -106.19330954
  PAW double counting   =      5021.58168282    -4813.37772183
  entropy T*S    EENTRO =        -0.00000000
  eigenvalues    EBANDS =      -321.99168071
  atomic energy  EATOM  =      4149.05112583
  ---------------------------------------------------
  free energy    TOTEN  =       -60.56467875 eV

  energy without entropy =      -60.56467875  energy(sigma->0) =      -60.56467875


--------------------------------------------------------------------------------------------------------




--------------------------------------- Iteration      1(  15)  ---------------------------------------


    POTLOK:  cpu time      2.3787: real time      2.3799
    SETDIJ:  cpu time      4.6584: real time      4.6623
    TRIAL :  cpu time      2.6721: real time      2.6742
    CORREC:  cpu time     20.1058: real time     20.1208
    CHARGE:  cpu time     12.3731: real time     12.3831
    --------------------------------------------
      LOOP:  cpu time     42.1907: real time     42.2301

 eigenvalue-minimisations  :     0
 total energy-change (2. order) :-0.3065870E-03  (-0.8331011E-04)
 number of electron      43.9999983 magnetization 
 augmentation part       21.5375990 magnetization 

 Free energy of the ion-electron system (eV)
  ---------------------------------------------------
  alpha Z        PSCENC =         1.70115614
  Ewald energy   TEWEN  =       983.64345616
  -Hartree energ DENC   =     -4974.79152042
  -exchange      EXHF   =         0.00000000
  -V(xc)+E(xc)   XCENC  =      -106.18856368
  PAW double counting   =      5019.95136399    -4811.77289752
  entropy T*S    EENTRO =        -0.00000000
  eigenvalues    EBANDS =      -322.15910584
  atomic energy  EATOM  =      4149.05112583
  ---------------------------------------------------
  free energy    TOTEN  =       -60.56498534 eV

  energy without entropy =      -60.56498534  energy(sigma->0) =      -60.56498534


--------------------------------------------------------------------------------------------------------




--------------------------------------- Iteration      1(  16)  ---------------------------------------


    POTLOK:  cpu time      2.3685: real time      2.3706
    SETDIJ:  cpu time      4.6623: real time      4.6674
    TRIAL :  cpu time      2.6816: real time      2.6836
    CORREC:  cpu time     20.0887: real time     20.1033
    CHARGE:  cpu time     12.3291: real time     12.3392
    --------------------------------------------
      LOOP:  cpu time     42.1483: real time     42.1823

 eigenvalue-minimisations  :     0
 total energy-change (2. order) :-0.8489919E-04  (-0.3174226E-04)
 number of electron      43.9999983 magnetization 
 augmentation part       21.5393872 magnetization 

 Free energy of the ion-electron system (eV)
  ---------------------------------------------------
  alpha Z        PSCENC =         1.70115614
  Ewald energy   TEWEN  =       983.64345616
  -Hartree energ DENC   =     -4974.75887703
  -exchange      EXHF   =         0.00000000
  -V(xc)+E(xc)   XCENC  =      -106.18774902
  PAW double counting   =      5022.75921642    -4814.58527208
  entropy T*S    EENTRO =        -0.00000000
  eigenvalues    EBANDS =      -322.18812664
  atomic energy  EATOM  =      4149.05112583
  ---------------------------------------------------
  free energy    TOTEN  =       -60.56507023 eV

  energy without entropy =      -60.56507023  energy(sigma->0) =      -60.56507023


--------------------------------------------------------------------------------------------------------




--------------------------------------- Iteration      1(  17)  ---------------------------------------


    POTLOK:  cpu time      2.3629: real time      2.3648
    SETDIJ:  cpu time      4.6645: real time      4.6677
    TRIAL :  cpu time      2.6528: real time      2.6547
    CORREC:  cpu time     20.0490: real time     20.0643
    CHARGE:  cpu time     12.3285: real time     12.3377
    --------------------------------------------
      LOOP:  cpu time     42.0599: real time     42.0988

 eigenvalue-minimisations  :     0
 total energy-change (2. order) :-0.2363575E-04  (-0.8651894E-05)
 number of electron      43.9999983 magnetization 
 augmentation part       21.5383594 magnetization 

 Free energy of the ion-electron system (eV)
  ---------------------------------------------------
  alpha Z        PSCENC =         1.70115614
  Ewald energy   TEWEN  =       983.64345616
  -Hartree energ DENC   =     -4975.07335988
  -exchange      EXHF   =         0.00000000
  -V(xc)+E(xc)   XCENC  =      -106.19076787
  PAW double counting   =      5025.72613871    -4817.54195526
  entropy T*S    EENTRO =        -0.00000000
  eigenvalues    EBANDS =      -321.88088771
  atomic energy  EATOM  =      4149.05112583
  ---------------------------------------------------
  free energy    TOTEN  =       -60.56509387 eV

  energy without entropy =      -60.56509387  energy(sigma->0) =      -60.56509387


--------------------------------------------------------------------------------------------------------




--------------------------------------- Iteration      1(  18)  ---------------------------------------


    POTLOK:  cpu time      2.3709: real time      2.3730
    SETDIJ:  cpu time      4.6658: real time      4.6689
    TRIAL :  cpu time      2.6624: real time      2.6644
    CORREC:  cpu time     20.0427: real time     20.0570
    CHARGE:  cpu time     12.3253: real time     12.3367
    --------------------------------------------
      LOOP:  cpu time     42.0765: real time     42.1097

 eigenvalue-minimisations  :     0
 total energy-change (2. order) :-0.7287565E-05  (-0.2208987E-05)
 number of electron      43.9999983 magnetization 
 augmentation part       21.5380895 magnetization 

 Free energy of the ion-electron system (eV)
  ---------------------------------------------------
  alpha Z        PSCENC =         1.70115614
  Ewald energy   TEWEN  =       983.64345616
  -Hartree energ DENC   =     -4974.90414784
  -exchange      EXHF   =         0.00000000
  -V(xc)+E(xc)   XCENC  =      -106.18897551
  PAW double counting   =      5025.50783657    -4817.33010772
  entropy T*S    EENTRO =        -0.00000000
  eigenvalues    EBANDS =      -322.04544479
  atomic energy  EATOM  =      4149.05112583
  ---------------------------------------------------
  free energy    TOTEN  =       -60.56510116 eV

  energy without entropy =      -60.56510116  energy(sigma->0) =      -60.56510116


--------------------------------------------------------------------------------------------------------




--------------------------------------- Iteration      1(  19)  ---------------------------------------


    POTLOK:  cpu time      2.3580: real time      2.3601
    SETDIJ:  cpu time      4.6637: real time      4.6669
    TRIAL :  cpu time      2.6647: real time      2.6665
    CORREC:  cpu time     20.0757: real time     20.0960
    CHARGE:  cpu time     12.3095: real time     12.3195
    --------------------------------------------
      LOOP:  cpu time     42.0742: real time     42.1191

 eigenvalue-minimisations  :     0
 total energy-change (2. order) :-0.2000594E-05  (-0.3524866E-05)
 number of electron      43.9999983 magnetization 
 augmentation part       21.5384845 magnetization 

 Free energy of the ion-electron system (eV)
  ---------------------------------------------------
  alpha Z        PSCENC =         1.70115614
  Ewald energy   TEWEN  =       983.64345616
  -Hartree energ DENC   =     -4974.85982919
  -exchange      EXHF   =         0.00000000
  -V(xc)+E(xc)   XCENC  =      -106.18847003
  PAW double counting   =      5025.31244168    -4817.13647952
  entropy T*S    EENTRO =        -0.00000000
  eigenvalues    EBANDS =      -322.08850423
  atomic energy  EATOM  =      4149.05112583
  ---------------------------------------------------
  free energy    TOTEN  =       -60.56510316 eV

  energy without entropy =      -60.56510316  energy(sigma->0) =      -60.56510316


--------------------------------------------------------------------------------------------------------




--------------------------------------- Iteration      1(  20)  ---------------------------------------


    POTLOK:  cpu time      2.3612: real time      2.3635
    SETDIJ:  cpu time      4.6543: real time      4.6576
    TRIAL :  cpu time      2.6695: real time      2.6714
    CORREC:  cpu time     20.0661: real time     20.0810
    CHARGE:  cpu time     12.3561: real time     12.3665
    --------------------------------------------
      LOOP:  cpu time     42.1118: real time     42.1523

 eigenvalue-minimisations  :     0
 total energy-change (2. order) :-0.1015176E-05  (-0.1781683E-05)
 number of electron      43.9999983 magnetization 
 augmentation part       21.5382459 magnetization 

 Free energy of the ion-electron system (eV)
  ---------------------------------------------------
  alpha Z        PSCENC =         1.70115614
  Ewald energy   TEWEN  =       983.64345616
  -Hartree energ DENC   =     -4974.92006799
  -exchange      EXHF   =         0.00000000
  -V(xc)+E(xc)   XCENC  =      -106.18902400
  PAW double counting   =      5024.75323853    -4816.57510763
  entropy T*S    EENTRO =        -0.00000000
  eigenvalues    EBANDS =      -322.02988122
  atomic energy  EATOM  =      4149.05112583
  ---------------------------------------------------
  free energy    TOTEN  =       -60.56510417 eV

  energy without entropy =      -60.56510417  energy(sigma->0) =      -60.56510417


--------------------------------------------------------------------------------------------------------




--------------------------------------- Iteration      1(  21)  ---------------------------------------


    POTLOK:  cpu time      2.3652: real time      2.3673
    SETDIJ:  cpu time      4.6664: real time      4.6696
    TRIAL :  cpu time      2.6843: real time      2.6863
    CORREC:  cpu time     20.0716: real time     20.0884
    CHARGE:  cpu time     12.3361: real time     12.3464
    --------------------------------------------
      LOOP:  cpu time     42.1266: real time     42.1680

 eigenvalue-minimisations  :     0
 total energy-change (2. order) :-0.1510268E-05  (-0.5494672E-06)
 number of electron      43.9999983 magnetization 
 augmentation part       21.5382038 magnetization 

 Free energy of the ion-electron system (eV)
  ---------------------------------------------------
  alpha Z        PSCENC =         1.70115614
  Ewald energy   TEWEN  =       983.64345616
  -Hartree energ DENC   =     -4974.87854252
  -exchange      EXHF   =         0.00000000
  -V(xc)+E(xc)   XCENC  =      -106.18866255
  PAW double counting   =      5024.75027692    -4816.57351054
  entropy T*S    EENTRO =        -0.00000000
  eigenvalues    EBANDS =      -322.07040513
  atomic energy  EATOM  =      4149.05112583
  ---------------------------------------------------
  free energy    TOTEN  =       -60.56510568 eV

  energy without entropy =      -60.56510568  energy(sigma->0) =      -60.56510568


--------------------------------------------------------------------------------------------------------




--------------------------------------- Iteration      1(  22)  ---------------------------------------


    POTLOK:  cpu time      2.3606: real time      2.3627
    SETDIJ:  cpu time      4.6795: real time      4.6825
    TRIAL :  cpu time      2.6875: real time      2.6896
    CORREC:  cpu time     20.0814: real time     20.0971
    EDDIAG:  cpu time      0.7092: real time      0.7146
    CHARGE:  cpu time     12.3285: real time     12.3385
    --------------------------------------------
      LOOP:  cpu time     42.8558: real time     42.8944

 eigenvalue-minimisations  :     0
 total energy-change (2. order) :-0.3956120E-06  ( 0.4374956E-06)
 number of electron      43.9999983 magnetization 
 augmentation part       21.5382919 magnetization 

 Free energy of the ion-electron system (eV)
  ---------------------------------------------------
  alpha Z        PSCENC =         1.70115614
  Ewald energy   TEWEN  =       983.64345616
  -Hartree energ DENC   =     -4974.87019524
  -exchange      EXHF   =         0.00000000
  -V(xc)+E(xc)   XCENC  =      -106.18860950
  PAW double counting   =      5024.75038662    -4816.57377436
  entropy T*S    EENTRO =        -0.00000000
  eigenvalues    EBANDS =      -322.07865172
  atomic energy  EATOM  =      4149.05112583
  ---------------------------------------------------
  free energy    TOTEN  =       -60.56510608 eV

  energy without entropy =      -60.56510608  energy(sigma->0) =      -60.56510608


--------------------------------------------------------------------------------------------------------


  average scaling for gradient   1.1947


 average (electrostatic) potential at core
  the test charge radii are     1.1249
  (the norm of the test charge is              1.0000)
       1 -66.9456       2 -66.7654       3 -66.7654       4 -66.9456
 
 
 
 E-fermi :  -4.5198     XC(G=0):  -0.3441     alpha+bet : -0.1148

 Fermi energy:        -4.5197508836

 k-point     1 :       0.0000    0.0000    0.0000
  band No.  band energies     occupation 
      1      -8.9159      2.00000
      2      -8.2477      2.00000
      3      -8.2342      2.00000
      4      -8.2342      2.00000
      5      -7.9398      2.00000
      6      -7.9398      2.00000
      7      -7.5762      2.00000
      8      -7.5762      2.00000
      9      -7.5575      2.00000
     10      -7.5575      2.00000
     11      -7.3325      2.00000
     12      -7.3325      2.00000
     13      -7.3101      2.00000
     14      -7.3101      2.00000
     15      -7.2335      2.00000
     16      -7.1941      2.00000
     17      -7.1941      2.00000
     18      -6.7937      2.00000
     19      -6.7937      2.00000
     20      -6.5938      2.00000
     21      -5.3848      2.00000
     22      -4.7810      2.00000
     23      -3.4961      0.00000
     24      -1.4596      0.00000
     25      -0.9765      0.00000
     26      -0.9765      0.00000
     27      -0.2716      0.00000
     28       0.0843      0.00000
     29       0.2948      0.00000
     30       0.2948      0.00000
     31       0.3586      0.00000
     32       0.4187      0.00000


--------------------------------------------------------------------------------------------------------


 soft charge-density along one line, spin component           1
         0         1         2         3         4         5         6         7         8         9
 total charge-density along one line
 
 pseudopotential strength for first ion, spin component:           1
-11.314  -0.000  -0.000   0.000  -0.000 -11.256  -0.000  -0.000
 -0.000 -11.292   0.000   0.000   0.000  -0.000 -11.236   0.000
 -0.000   0.000 -11.301  -0.000   0.015  -0.000   0.000 -11.244
  0.000   0.000  -0.000 -11.314  -0.000   0.000   0.000  -0.000
 -0.000   0.000   0.015  -0.000 -11.318  -0.000   0.000   0.014
-11.256  -0.000  -0.000   0.000  -0.000 -11.174  -0.000  -0.000
 -0.000 -11.236   0.000   0.000   0.000  -0.000 -11.155   0.000
 -0.000   0.000 -11.244  -0.000   0.014  -0.000   0.000 -11.163
  0.000   0.000  -0.000 -11.256  -0.000   0.000   0.000  -0.000
 -0.000   0.000   0.014  -0.000 -11.260  -0.000   0.000   0.013
  0.000   0.000  -0.007   0.000   0.012   0.000  -0.000  -0.007
  0.000   0.000  -0.011   0.000   0.019   0.000   0.000  -0.011
 -0.020   0.000   0.000  -0.000   0.000  -0.018   0.000   0.000
 -0.000  -0.000   0.000  -0.020   0.000  -0.000  -0.000   0.000
  0.000  -0.000   0.008   0.000  -0.014   0.000  -0.000   0.007
 -0.024   0.000   0.000  -0.000   0.000  -0.020   0.000   0.000
 -0.000  -0.000   0.000  -0.024   0.000  -0.000  -0.000   0.000
  0.000  -0.000   0.010   0.000  -0.017   0.000  -0.000   0.007
 total augmentation occupancy for first ion, spin component:           1
  2.416  -0.000  -0.000   0.000   0.000  -0.336  -0.000   0.000   0.000   0.000   0.000   0.000  -0.031  -0.000   0.000  -0.013
 -0.000   2.322   0.000   0.000  -0.000   0.000  -0.169   0.000   0.000   0.000   0.000   0.000   0.000  -0.000   0.000   0.000
 -0.000   0.000   2.407  -0.000  -0.148   0.000   0.000  -0.298   0.000   0.223   0.668  -0.229  -0.000  -0.000   0.069   0.000
  0.000   0.000  -0.000   2.416  -0.000   0.000  -0.000  -0.000  -0.336   0.000   0.000   0.000  -0.000  -0.031   0.000  -0.000
  0.000   0.000  -0.148  -0.000   2.578   0.000  -0.000   0.223   0.000  -0.555  -1.156   0.397   0.000  -0.000  -0.120   0.000
 -0.336   0.000   0.000   0.000   0.000   0.257   0.000  -0.000   0.000   0.000   0.000  -0.000   0.042  -0.000  -0.000  -0.005
 -0.000  -0.169   0.000  -0.000   0.000   0.000   0.022   0.000   0.000   0.000   0.000   0.000  -0.000   0.000   0.000   0.000
  0.000   0.000  -0.298  -0.000   0.223   0.000   0.000   0.190   0.000  -0.292  -0.583   0.198   0.000  -0.000  -0.088   0.000
  0.000   0.000  -0.000  -0.336   0.000   0.000   0.000   0.000   0.257  -0.000   0.000  -0.000   0.000   0.042   0.000   0.000
  0.000   0.000   0.223   0.000  -0.555   0.000   0.000  -0.292  -0.000   0.528   1.011  -0.343   0.000   0.000   0.152   0.000
  0.000   0.000   0.668   0.000  -1.156   0.000   0.000  -0.583   0.000   1.011   5.047  -1.645   0.000  -0.000   0.406   0.000
  0.000   0.000  -0.229   0.000   0.397  -0.000   0.000   0.198  -0.000  -0.343  -1.645   0.537  -0.000   0.000  -0.135   0.000
 -0.031   0.000  -0.000  -0.000   0.000   0.042  -0.000   0.000   0.000   0.000   0.000  -0.000   0.007   0.000  -0.000  -0.001
 -0.000  -0.000  -0.000  -0.031  -0.000  -0.000   0.000  -0.000   0.042   0.000  -0.000   0.000   0.000   0.007  -0.000   0.000
  0.000   0.000   0.069   0.000  -0.120  -0.000   0.000  -0.088   0.000   0.152   0.406  -0.135  -0.000  -0.000   0.050   0.000
 -0.013   0.000   0.000  -0.000   0.000  -0.005   0.000   0.000   0.000   0.000   0.000   0.000  -0.001   0.000   0.000   0.000
 -0.000   0.000   0.000  -0.013  -0.000   0.000   0.000   0.000  -0.005   0.000   0.000   0.000   0.000  -0.001   0.000   0.000
 -0.000   0.000  -0.001   0.000   0.002   0.000   0.000   0.012   0.000  -0.020  -0.053   0.017  -0.000  -0.000  -0.007   0.000


------------------------ aborting loop because EDIFF is reached ----------------------------------------


    FORLOC:  cpu time      0.0409: real time      0.0409
    FORNL :  cpu time      0.3215: real time      0.3215
    STRESS:  cpu time     20.1113: real time     20.1279
    FORCOR:  cpu time      2.1670: real time      2.1684
    OFIELD:  cpu time      0.0033: real time      0.0033

  FORCE on cell =-STRESS in cart. coord.  units (eV):
  Direction    XX          YY          ZZ          XY          YZ          ZX
  --------------------------------------------------------------------------------------
  Alpha Z     1.70116     1.70116     1.70116
  Ewald    2348.22058  -682.28889  -682.28889    -0.00000     0.00000     0.00000
  Hartree  3301.45967   836.71206   836.71206     0.00000    -0.00000    -0.00000
  E(xc)    -103.16049  -104.05163  -104.05163    -0.00000    -0.00000     0.00000
  Local   -6265.18799  -793.35850  -793.35850     0.00000    -0.00000     0.00000
  n-local   -93.81435   -91.05013   -91.05013     0.00000    -0.00000    -0.00000
  augment   269.47910   275.08493   275.08493     0.00000    -0.00000     0.00000
  Kinetic   542.35643   557.19065   557.19065    -0.00000     0.00000     0.00000
  Fock        0.00000     0.00000     0.00000     0.00000     0.00000     0.00000
  -------------------------------------------------------------------------------------
  Total       1.05410    -0.06037    -0.06037     0.00000     0.00000     0.00000
  in kB       0.21111    -0.01209    -0.01209     0.00000     0.00000     0.00000
  external pressure =        0.06 kB  Pullay stress =        0.00 kB


 VOLUME and BASIS-vectors are now :
 -----------------------------------------------------------------------------
  energy-cutoff  :      520.00
  volume of cell :     8000.00
      direct lattice vectors                 reciprocal lattice vectors
    20.000000000  0.000000000  0.000000000     0.050000000  0.000000000  0.000000000
     0.000000000 20.000000000  0.000000000     0.000000000  0.050000000  0.000000000
     0.000000000  0.000000000 20.000000000     0.000000000  0.000000000  0.050000000

  length of vectors
    20.000000000 20.000000000 20.000000000     0.050000000  0.050000000  0.050000000


 FORCES acting on ions:
    Electron-Ion                     Ewald-Force                    Non-Local-Force
 -----------------------------------------------------------------------------------------------
   0.342E+03 0.492E-13 -.174E-09   -.335E+03 -.258E-16 0.661E-16   -.699E+01 -.496E-23 0.116E-22
   0.341E+02 0.401E-13 -.667E-11   -.376E+02 0.225E-16 -.213E-16   0.359E+01 0.232E-22 0.000E+00
   -.341E+02 0.461E-13 -.249E-10   0.376E+02 -.157E-16 0.346E-16   -.359E+01 0.199E-22 -.662E-23
   -.342E+03 0.441E-13 -.760E-11   0.335E+03 -.300E-16 0.147E-16   0.699E+01 0.662E-23 -.120E-22
 -----------------------------------------------------------------------------------------------
   -.609E-11 -.617E-12 -.836E-10   -.568E-13 -.490E-16 0.940E-16   -.355E-14 0.447E-22 -.703E-23
 
 
 POSITION                                       TOTAL-FORCE (eV/Angst)
 -----------------------------------------------------------------------------------
     19.98481      0.00000      0.00000        -0.152593     -0.000000      0.000000
      2.56096      0.00000      0.00000         0.041571      0.000000      0.000000
      5.23904      0.00000      0.00000        -0.041571      0.000000     -0.000000
      7.81519      0.00000      0.00000         0.152593      0.000000     -0.000000
 -----------------------------------------------------------------------------------
    total drift:                               -0.000000     -0.000000     -0.000000


--------------------------------------------------------------------------------------------------------



  FREE ENERGIE OF THE ION-ELECTRON SYSTEM (eV)
  ---------------------------------------------------
  free  energy   TOTEN  =       -60.56510608 eV

  energy  without entropy=      -60.56510608  energy(sigma->0) =      -60.56510608
 


--------------------------------------------------------------------------------------------------------


    POTLOK:  cpu time      6.9274: real time      6.9328


--------------------------------------------------------------------------------------------------------


 stress matrix after NEB project (eV)
      1.05410     -0.00000      0.00000
      0.00000     -0.06037      0.00000
     -0.00000      0.00000     -0.06037
  FORCES: max atom, RMS     0.152593    0.111832
  FORCE total and by dimension    0.223664    0.152593
  Stress total and by dimension    1.057551    1.054099
     LOOP+:  cpu time    801.1842: real time    802.0724
    4ORBIT:  cpu time      0.0000: real time      0.0000

 total amount of memory used by VASP MPI-rank0   249349. kBytes
=======================================================================

   base      :      30000. kBytes
   nonlr-proj:       2152. kBytes
   fftplans  :      64991. kBytes
   grid      :     147000. kBytes
   one-center:         31. kBytes
   wavefun   :       5175. kBytes
 
  
  
 General timing and accounting informations for this job:
 ========================================================
  
                  Total CPU time used (sec):      814.897
                            User time (sec):      797.249
                          System time (sec):       17.649
                         Elapsed time (sec):      824.478
  
                   Maximum memory used (kb):     2248652.
                   Average memory used (kb):          N/A
  
                          Minor page faults:       591225
                          Major page faults:            0
                 Voluntary context switches:         8260
 
 PROFILE, used timers:     541
 =============================
 
 index                 routine                    time                            calls level
----------------------------------------------------------------------------------------------
    1    total_time                          824.479174                                1   1
    2      crpa_reader                           0.000271                              1   2
    3      inisym                                0.044438                              1   2
    4        posmap                                0.000035                            2   3
    5      brgrid                                0.003305                              1   2
    6      stufak                                0.024228                              1   2
    7      m_sumb_d                              0.008173                              5   2
    8      fft3d_mpi                             0.078632                              2   2
    9        fftbrc_mpi                            0.074999                            2   3
   10          fftbas_plan_mpi                       0.074994                          2   4
   11            dfftw_execute                         0.031232                        6   5
   12            map_forward                           0.041430                        4   5
   13              map_gather                            0.008081                      2   6
   14              m_alltoallv_z                         0.021581                      2   6
   15              map_scatter                           0.011685                      2   6
   16      rspher_all                            0.013929                              2   2
   17      m_bcast_z                             0.245292                             33   2
   18      densta                                0.002414                              2   2
   19        m_sumb_d                              0.001584                           20   3
   20      setdij_                               0.011300                              2   2
   21        m_sumb_d                              0.000780                            2   3
   22      vectorpot                             0.000024                              1   2
   23      proall                                0.121115                              1   2
   24        phaser                                0.002466                            1   3
   25        rpro_isp                              0.118600                            1   3
   26          fftwav_mpi                            0.108242                          1   4
   27            fft3d_mpi                             0.086183                        1   5
   28              fftbas_mpi                            0.086179                      1   6
   29                fftbas_plan_mpi                       0.086175                    1   7
   30                  dfftw_execute                         0.054361                  3   8
   31                  map_forward                           0.030914                  2   8
   32                    map_gather                            0.007420                1   9
   33                    m_alltoallv_z                         0.006298                1   9
   34                    map_scatter                           0.007073                1   9
   35          rpromu                                0.008308                          1   4
   36            crrexp_mul_wave                       0.000149                        4   5
   37            rpromu_gemm                           0.007800                        4   5
   38            m_sumb_d                              0.000052                        1   5
   39      orthch                                0.052883                              1   2
   40        overl                                 0.000041                            1   3
   41        redis_proj                            0.008814                            3   3
   42          m_alltoall_d                          0.008616                          3   4
   43        redis_pw                              0.012777                            2   3
   44          m_alltoall_d                          0.009121                          2   4
   45        orth1                                 0.011890                            1   3
   46        m_sumb_d                              0.002308                            1   3
   47        choleski                              0.013364                            1   3
   48        lincom                                0.003436                            1   3
   49      redis_pw_over_bands                   0.000001                              1   2
   50      fewald                                0.007216                              1   2
   51        rsp                                   0.000709                            1   3
   52        rcp                                   0.000111                            1   3
   53        m_sumb_d                              0.000995                            5   3
   54      elmin_all                           767.726629                              1   2
   55        potlok                                6.692575                           35   3
   56          fft3d_mpi                             5.197896                        175   4
   57            fftbrc_mpi                            4.828548                      175   5
   58              fftbas_plan_mpi                       4.828023                    175   6
   59                dfftw_execute                         2.095555                  525   7
   60                map_forward                           1.590949                  210   7
   61                  map_gather                            0.176760                140   8
   62                  m_alltoallv_z                         0.706796                140   8
   63                  map_scatter                           0.704670                140   8
   64                map_backward                          1.012554                  140   7
   65                  map_gather                            0.325150                 70   8
   66                  m_alltoallv_z                         0.530964                 70   8
   67                  map_scatter                           0.154954                 70   8
   68          pothar                                0.265047                         35   4
   69            m_sumb_d                              0.097568                       35   5
   70          m_bcast_d                             0.461106                         35   4
   71        potlok_metagga                       88.434054                           35   3
   72          fft3d_mpi                            18.517690                        595   4
   73            fftbrc_mpi                           17.379385                      595   5
   74              fftbas_plan_mpi                      17.377609                    595   6
   75                dfftw_execute                         6.992018                 1785   7
   76                map_forward                           5.808855                  770   7
   77                  map_gather                            0.689809                455   8
   78                  m_alltoallv_z                         2.713367                455   8
   79                  map_scatter                           2.396537                455   8
   80                map_backward                          4.142497                  420   7
   81                  map_gather                            0.961605                210   8
   82                  m_alltoallv_z                         2.690016                210   8
   83                  map_scatter                           0.486732                210   8
   84          m_sumb_d                              0.044883                        105   4
   85          m_bcast_d                             0.880364                         70   4
   86        setdij_                               0.070294                           35   3
   87          m_sumb_d                              0.010709                         35   4
   88        set_dd_paw                          162.694232                           35   3
   89          set_rsgf_all                          0.000071                         35   4
   90          m_sumb_d                            162.686937                        245   4
   91        eddav                                18.387867                            5   3
   92          m_sumb_d                              0.069926                        100   4
   93          phaser                                0.010948                          5   4
   94          redis_proj                            0.135050                         71   4
   95            m_alltoall_d                          0.133763                       71   5
   96          redis_pw                              0.200593                         57   4
   97            m_alltoall_d                          0.154462                       57   5
   98          newband                               3.551421                         24   4
   99            w1_copy                               0.006233                       10   5
  100            redis_pw                              0.023654                        5   5
  101              m_alltoall_d                          0.019424                      5   6
  102            redis_proj                            0.001678                        5   5
  103              m_alltoall_d                          0.001581                      5   6
  104            fftwav_mpi                            0.470687                        5   5
  105              fft3d_mpi                             0.388089                      5   6
  106                fftbas_mpi                            0.388065                    5   7
  107                  fftbas_plan_mpi                       0.388049                  5   8
  108                    dfftw_execute                         0.265159               15   9
  109                    map_forward                           0.119414               10   9
  110                      map_gather                            0.020000              5  10
  111                      m_alltoallv_z                         0.016541              5  10
  112                      map_scatter                           0.030995              5  10
  113            eccp_tau                              3.042728                        5   5
  114              kinhamil_tau                          2.937970                      5   6
  115                fftext_mpi                            1.340119                   20   7
  116                  fft3d_mpi                             1.313999                 20   8
  117                    fftbas_mpi                            1.313934               20   9
  118                      fftbas_plan_mpi                       1.313876             20  10
  119                        dfftw_execute                         1.074279           60  11
  120                        map_backward                          0.227528           40  11
  121                          map_gather                            0.122726         20  12
  122                          m_alltoallv_z                         0.049735         20  12
  123                          map_scatter                           0.054658         20  12
  124                fftwav_mpi                            1.350720                   15   7
[...]
  462                      map_scatter                           0.336628             57  10
  463            m_sumb_d                              1.348308                       20   5
  464            fft3d_mpi                             1.095624                       38   5
  465              fftbrc_mpi                            0.970951                     38   6
  466                fftbas_plan_mpi                       0.970794                   38   7
  467                  dfftw_execute                         0.459996                114   8
  468                  map_backward                          0.185957                 38   8
  469                    map_gather                            0.106143               38   9
  470                    m_alltoallv_z                         0.068810               38   9
  471                    map_scatter                           0.010393               38   9
  472                  map_forward                           0.297906                 38   8
  473                    map_gather                            0.048732               19   9
  474                    m_alltoallv_z                         0.128659               19   9
  475                    map_scatter                           0.120146               19   9
  476          fft3d_mpi                             0.555276                         19   4
  477            fftbrc_mpi                            0.518412                       19   5
  478              fftbas_plan_mpi                       0.518355                     19   6
  479                dfftw_execute                         0.205952                   57   7
  480                map_forward                           0.298251                   38   7
  481                  map_gather                            0.042820                 19   8
  482                  m_alltoallv_z                         0.136391                 19   8
  483                  map_scatter                           0.118657                 19   8
  484          m_sumb_d                              0.034112                         18   4
  485        potxc_metagga                         2.059927                            1   3
  486          fft3d_mpi                             0.448878                         14   4
  487            fftbrc_mpi                            0.427253                       14   5
  488              fftbas_plan_mpi                       0.427214                     14   6
  489                dfftw_execute                         0.158315                   42   7
  490                map_forward                           0.125696                   16   7
  491                  map_gather                            0.016757                  8   8
  492                  m_alltoallv_z                         0.061142                  8   8
  493                  map_scatter                           0.047641                  8   8
  494                map_backward                          0.133086                   12   7
  495                  map_gather                            0.027482                  6   8
  496                  m_alltoallv_z                         0.091512                  6   8
  497                  map_scatter                           0.013974                  6   8
  498          m_sumb_d                              0.002198                          3   4
  499        fortau                                0.044873                            1   3
  500          m_sumb_d                              0.004521                          1   4
  501        forhar                                0.037901                            1   3
  502          m_sumb_d                              0.000105                          1   4
  503        strehar                               0.024209                            1   3
  504          m_sumb_d                              0.006223                          1   4
  505        m_bcast_d                             0.000201                            2   3
  506      potlok                                0.184753                              1   2
  507        fft3d_mpi                             0.145176                            5   3
  508          fftbrc_mpi                            0.134376                          5   4
  509            fftbas_plan_mpi                       0.134362                        5   5
  510              dfftw_execute                         0.058792                     15   6
  511              map_forward                           0.044190                      6   6
  512                map_gather                            0.005001                    4   7
  513                m_alltoallv_z                         0.018707                    4   7
  514                map_scatter                           0.020401                    4   7
  515              map_backward                          0.027763                      4   6
  516                map_gather                            0.009860                    2   7
  517                m_alltoallv_z                         0.013086                    2   7
  518                map_scatter                           0.004769                    2   7
  519        pothar                                0.004700                            1   3
  520          m_sumb_d                              0.000105                          1   4
  521        m_bcast_d                             0.013720                            1   3
  522      potlok_metagga                        2.166495                              1   2
  523        fft3d_mpi                             0.543152                           17   3
  524          fftbrc_mpi                            0.512302                         17   4
  525            fftbas_plan_mpi                       0.512247                       17   5
  526              dfftw_execute                         0.192454                     51   6
  527              map_forward                           0.181285                     22   6
  528                map_gather                            0.017641                   13   7
  529                m_alltoallv_z                         0.095659                   13   7
  530                map_scatter                           0.067736                   13   7
  531              map_backward                          0.126769                     12   6
  532                map_gather                            0.028125                    6   7
  533                m_alltoallv_z                         0.085318                    6   7
  534                map_scatter                           0.013202                    6   7
  535        m_sumb_d                              0.001009                            3   3
  536        m_bcast_d                             0.026564                            2   3
  537      set_dd_magatom                        0.000001                              1   2
  538      set_dd_paw                            4.576158                              1   2
  539        set_rsgf_all                          0.000001                            1   3
  540        m_sumb_d                              4.575993                            7   3
  541      m_bcast_d                             0.000163                              2   2
 
 Flat profile
 ============
 
             routine name                   CPU           calls
 ---------------------------------------------------------------
 set_kineden                           354.744102          54
 m_sumb_d                              201.711625        1909
 dfftw_execute                          71.311908        6261
 potlok_metagga                         70.586887          36
 set_charge                             43.803762          35
 total_time                             21.876657           1
 m_alltoallv_z                          10.892286        2284
 map_scatter                             9.218430        2284
 map_gather                              8.293710        2284
 fftwav_mpi                              6.137675         625
 map_forward                             5.441417        2424
 kinhamil_tau                            4.051880         110
 fft3d_mpi                               2.170326        2087
 m_alltoall_d                            1.628217         720
 potxc_metagga                           1.608851           1
 fftbas_plan_mpi                         1.432710        2087
 m_bcast_d                               1.384864         150
 eccp_tau                                1.182616          73
 edwav                                   1.017636          34
 potlok                                  0.789682          36
 fftext_mpi                              0.616317         457
 vhamil                                  0.578669          37
 soft_charge                             0.476460          35
 pw_charge                               0.323945          35
 stretau                                 0.310297           1
 augmentation_charge                     0.281757          35
 lapack                                  0.263187          19
 m_bcast_z                               0.256012          52
 elmin_all                               0.248930           1
 orth1                                   0.240571         104
 lincom                                  0.215910         101
 redis_pw                                0.177321         220
 pothar                                  0.172075          36
 rspher_all                              0.118161          14
 setdij_                                 0.102700          63
 phaser                                  0.078871          35
 w1_dscal                                0.075367          17
 fft_gq                                  0.071341          35
 ggemm                                   0.060590          19
 eddav                                   0.056923           5
 inisym                                  0.044403           1
 fortau                                  0.040352           1
 forloc                                  0.039564           1
 forhar                                  0.037796           1
 w1_copy                                 0.037766          57
 racc0                                   0.024287          17
 stufak                                  0.024228           1
 map_backward                            0.019046        1750
 strelo                                  0.018809           1
 choleski                                0.018290          34
 strehar                                 0.017986           1
 rpro1                                   0.015138          31
 apply_precond                           0.011706          14
 rpromu_gemm                             0.010999          52
 eddiag                                  0.010510          18
 force_and_stress                        0.010152           1
 crrexp_mul_wave                         0.009033         176
 crrexp_mul_work_add                     0.008523         144
 gemm                                    0.008292          76
 redis_proj                              0.008224         500
 set_dd_paw                              0.007578          37
 fewald                                  0.005400           1
 setup_precond                           0.005379           5
 densta                                  0.004645          46
 fftbas_mpi                              0.003451        1082
 overl                                   0.003337         119
 brgrid                                  0.003305           1
 orthch                                  0.003207          34
 fftbrc_mpi                              0.003102        1005
 rpro_isp                                0.002752          13
 depsum                                  0.001838          35
 strkin                                  0.001653           1
 racc0mu                                 0.001065          19
 rpromu                                  0.000985          13
 rsp                                     0.000709           1
 hamiltmu_tau                            0.000669          19
 strnlr                                  0.000651           1
 newband                                 0.000579          24
 redis_pw_all                            0.000474          34
 fordep                                  0.000473           1
 overl1                                  0.000414          19
 hamilt_local_tau                        0.000405          18
 crpa_reader                             0.000271           1
 raccmu_                                 0.000238          19
 redis_pw_over_bands                     0.000157          35
 fornlr                                  0.000152           1
 w1_projall                              0.000129          14
 rcp                                     0.000111           1
 set_rsgf_all                            0.000074          37
 set_dd_magatom                          0.000057           2
 proall                                  0.000049           1
 posmap                                  0.000035           2
 truncate_high_frequency_w1              0.000026          24
 vectorpot                               0.000024           1
 rotate_active_occupied_orbital          0.000023           1
 shift_bands_between_low_high            0.000007           1
 ---------------------------------------------------------------
  summed up times    824.479173898697     
 
 Accumulative profile
 ====================
 
             routine name                   CPU           calls
 ---------------------------------------------------------------
 total_time                            824.479174           1
 elmin_all                             767.726629           1
 set_kineden                           396.721334          54
 m_sumb_d                              201.711625        1909
 set_dd_paw                            171.937285          37
 fft3d_mpi                             108.786384        2087
 fftbas_plan_mpi                       106.609505        2087
 potlok_metagga                         90.600549          36
 fftbas_mpi                             78.104169        1082
 dfftw_execute                          71.311908        6261
 kinhamil_tau                           61.726543         110
 set_charge                             54.437847          35
 fftwav_mpi                             54.288642         625
 edwav                                  45.860094          34
 eccp_tau                               41.709818          73
 fftext_mpi                             30.574234         457
 fftbrc_mpi                             28.511889        1005
 force_and_stress                       27.335075           1
 map_forward                            22.135218        2424
 stretau                                19.212086           1
 eddav                                  18.387867           5
 eddiag                                 12.447161          18
 map_backward                           11.729670        1750
 hamiltmu_tau                           11.299324          19
 m_alltoallv_z                          10.892286        2284
 hamilt_local_tau                       10.504966          18
 map_scatter                             9.218430        2284
 map_gather                              8.293710        2284
 potlok                                  6.877328          36
 soft_charge                             6.319207          35
 newband                                 3.551421          24
 potxc_metagga                           2.059927           1
 m_alltoall_d                            1.628217         720
 m_bcast_d                               1.384864         150
 augmentation_charge                     1.288721          35
 rpro_isp                                1.140209          13
 fft_gq                                  1.098890          35
 redis_pw                                1.018090         220
 strnlr                                  0.855250           1
 redis_proj                              0.795672         500
 vhamil                                  0.578669          37
 pw_charge                               0.323945          35
 fornlr                                  0.309433           1
 pothar                                  0.269747          36
 lapack                                  0.263187          19
 m_bcast_z                               0.256012          52
 orth1                                   0.240571         104
 lincom                                  0.215910         101
 orthch                                  0.185565          34
 setdij_                                 0.128024          63
 proall                                  0.121115           1
 rspher_all                              0.118161          14
 redis_pw_over_bands                     0.117920          35
 redis_pw_all                            0.117763          34
 phaser                                  0.078871          35
 w1_dscal                                0.075367          17
 depsum                                  0.071228          35
 ggemm                                   0.060590          19
 fortau                                  0.044873           1
 inisym                                  0.044438           1
 forloc                                  0.040875           1
 densta                                  0.039225          46
 racc0                                   0.038198          17
 forhar                                  0.037901           1
 w1_copy                                 0.037766          57
 rpro1                                   0.026260          31
 stufak                                  0.024228           1
 strehar                                 0.024209           1
 strelo                                  0.024013           1
 raccmu_                                 0.022609          19
 racc0mu                                 0.021957          19
 choleski                                0.018290          34
 rpromu                                  0.014573          13
 fordep                                  0.011909           1
 apply_precond                           0.011706          14
 rpromu_gemm                             0.010999          52
 w1_projall                              0.010108          14
 crrexp_mul_wave                         0.009033         176
 crrexp_mul_work_add                     0.008523         144
 gemm                                    0.008292          76
 fewald                                  0.007216           1
 setup_precond                           0.005857           5
 overl                                   0.003337         119
 brgrid                                  0.003305           1
 strkin                                  0.002185           1
 rsp                                     0.000709           1
 overl1                                  0.000414          19
 crpa_reader                             0.000271           1
 rcp                                     0.000111           1
 set_rsgf_all                            0.000074          37
 set_dd_magatom                          0.000057           2
 posmap                                  0.000035           2
 truncate_high_frequency_w1              0.000026          24
 vectorpot                               0.000024           1
 rotate_active_occupied_orbital          0.000023           1
 shift_bands_between_low_high            0.000007           1
 ---------------------------------------------------------------
 
Profiling took   0.047660  0.019219  0.008834  0.007527 seconds
Profiling took   0.057837 seconds
