 **********************************************************************
                          MRCC program system
 **********************************************************************
 
                              Written by
     Mihaly Kallay, Peter R. Nagy, David Mester, Laszlo Gyevi-Nagy,
        Jozsef Csoka, P. Bernat Szabo, Zoltan Rolik, Gyula Samu,
     Jozsef Csontos, Bence Hegely, Adam Ganyecz, Istvan Ladjanszki,
       Lorant Szegedy, Bence Ladoczki, Klara Petrov, Mate Farkas,
                    Pal D. Mezei, and Reka A. Horvath
 
        Department of Physical Chemistry and Materials Science
            Budapest University of Technology and Economics
                  Budapest P.O.Box 91, H-1521 Hungary
 
                              www.mrcc.hu
 
                      Release date: March 18, 2022

 ************************ 2022-08-18 05:30:46 *************************
 Executing minp...

 Reading input from MINP...
 
 Input file:
 
calc=LNO-CCSD(T)
scftype=rhf
verbosity=3
mem=190GB
symm=off
unit=angs
scfiguess=small
scfmaxit=1000
scfalg=locfit1


lcorthr=tight
ccmaxit=400
usedisk=0
ccsdalg=dfdirect
ccsdthreads=4
ccsdmkl=thr
ptthreads=4

charge=0
core=8

basis=special
aug-cc-pVDZ-PP
aug-cc-pVDZ-PP
aug-cc-pVDZ
cc-pVDZ
cc-pVDZ
cc-pVDZ
cc-pVDZ
cc-pVDZ
aug-cc-pVDZ
aug-cc-pVDZ
aug-cc-pVDZ
aug-cc-pVDZ
aug-cc-pVDZ
aug-cc-pVDZ
aug-cc-pVDZ
aug-cc-pVDZ
cc-pVDZ
cc-pVDZ
cc-pVDZ
aug-cc-pVDZ
aug-cc-pVDZ
aug-cc-pVDZ
aug-cc-pVDZ
cc-pVDZ
cc-pVDZ
cc-pVDZ
cc-pVDZ
cc-pVDZ
cc-pVDZ
cc-pVDZ
cc-pVDZ
aug-cc-pVDZ
aug-cc-pVDZ
aug-cc-pVDZ
aug-cc-pVDZ
aug-cc-pVDZ
aug-cc-pVDZ
aug-cc-pVDZ
aug-cc-pVDZ
aug-cc-pVDZ
cc-pVDZ
cc-pVDZ
aug-cc-pVDZ
aug-cc-pVDZ
aug-cc-pVDZ
aug-cc-pVDZ
aug-cc-pVDZ
aug-cc-pVDZ
aug-cc-pVDZ
aug-cc-pVDZ
aug-cc-pVDZ
aug-cc-pVDZ

basis_sm=special
def2-SVP
def2-SVP
def2-SVP
def2-SVP
def2-SVP
def2-SVP
def2-SVP
def2-SVP
def2-SVP
def2-SVP
def2-SVP
def2-SVP
def2-SVP
def2-SVP
def2-SVP
def2-SVP
def2-SVP
def2-SVP
def2-SVP
def2-SVP
def2-SVP
def2-SVP
def2-SVP
def2-SVP
def2-SVP
def2-SVP
def2-SVP
def2-SVP
def2-SVP
def2-SVP
def2-SVP
def2-SVP
def2-SVP
def2-SVP
def2-SVP
def2-SVP
def2-SVP
def2-SVP
def2-SVP
def2-SVP
def2-SVP
def2-SVP
def2-SVP
def2-SVP
def2-SVP
def2-SVP
def2-SVP
def2-SVP
def2-SVP
def2-SVP
def2-SVP
def2-SVP

dfbasis_scf=special
def2-QZVPP-RI-JK
def2-QZVPP-RI-JK
def2-QZVPP-RI-JK
def2-QZVPP-RI-JK
def2-QZVPP-RI-JK
def2-QZVPP-RI-JK
def2-QZVPP-RI-JK
def2-QZVPP-RI-JK
def2-QZVPP-RI-JK
def2-QZVPP-RI-JK
def2-QZVPP-RI-JK
def2-QZVPP-RI-JK
def2-QZVPP-RI-JK
def2-QZVPP-RI-JK
def2-QZVPP-RI-JK
def2-QZVPP-RI-JK
def2-QZVPP-RI-JK
def2-QZVPP-RI-JK
def2-QZVPP-RI-JK
def2-QZVPP-RI-JK
def2-QZVPP-RI-JK
def2-QZVPP-RI-JK
def2-QZVPP-RI-JK
def2-QZVPP-RI-JK
def2-QZVPP-RI-JK
def2-QZVPP-RI-JK
def2-QZVPP-RI-JK
def2-QZVPP-RI-JK
def2-QZVPP-RI-JK
def2-QZVPP-RI-JK
def2-QZVPP-RI-JK
def2-QZVPP-RI-JK
def2-QZVPP-RI-JK
def2-QZVPP-RI-JK
def2-QZVPP-RI-JK
def2-QZVPP-RI-JK
def2-QZVPP-RI-JK
def2-QZVPP-RI-JK
def2-QZVPP-RI-JK
def2-QZVPP-RI-JK
def2-QZVPP-RI-JK
def2-QZVPP-RI-JK
def2-QZVPP-RI-JK
def2-QZVPP-RI-JK
def2-QZVPP-RI-JK
def2-QZVPP-RI-JK
def2-QZVPP-RI-JK
def2-QZVPP-RI-JK
def2-QZVPP-RI-JK
def2-QZVPP-RI-JK
def2-QZVPP-RI-JK
def2-QZVPP-RI-JK

dfbasis_cor=special
aug-cc-pVDZ-PP-RI
aug-cc-pVDZ-PP-RI
aug-cc-pVDZ-RI
cc-pVDZ-RI
cc-pVDZ-RI
cc-pVDZ-RI
cc-pVDZ-RI
cc-pVDZ-RI
aug-cc-pVDZ-RI
aug-cc-pVDZ-RI
aug-cc-pVDZ-RI
aug-cc-pVDZ-RI
aug-cc-pVDZ-RI
aug-cc-pVDZ-RI
aug-cc-pVDZ-RI
aug-cc-pVDZ-RI
cc-pVDZ-RI
cc-pVDZ-RI
cc-pVDZ-RI
aug-cc-pVDZ-RI
aug-cc-pVDZ-RI
aug-cc-pVDZ-RI
aug-cc-pVDZ-RI
cc-pVDZ-RI
cc-pVDZ-RI
cc-pVDZ-RI
cc-pVDZ-RI
cc-pVDZ-RI
cc-pVDZ-RI
cc-pVDZ-RI
cc-pVDZ-RI
aug-cc-pVDZ-RI
aug-cc-pVDZ-RI
aug-cc-pVDZ-RI
aug-cc-pVDZ-RI
aug-cc-pVDZ-RI
aug-cc-pVDZ-RI
aug-cc-pVDZ-RI
aug-cc-pVDZ-RI
aug-cc-pVDZ-RI
cc-pVDZ-RI
cc-pVDZ-RI
aug-cc-pVDZ-RI
aug-cc-pVDZ-RI
aug-cc-pVDZ-RI
aug-cc-pVDZ-RI
aug-cc-pVDZ-RI
aug-cc-pVDZ-RI
aug-cc-pVDZ-RI
aug-cc-pVDZ-RI
aug-cc-pVDZ-RI
aug-cc-pVDZ-RI

ecp=special
MCDHF-ECP-60
MCDHF-ECP-60
none
none
none
none
none
none
none
none
none
none
none
none
none
none
none
none
none
none
none
none
none
none
none
none
none
none
none
none
none
none
none
none
none
none
none
none
none
none
none
none
none
none
none
none
none
none
none
none
none
none

unit=angs
geom=xyz
52
Au2 Mg18 O32 ECP50
Au    1.95071426060    0.16317108844    2.81039763256
Au    0.16317045375    1.95071489529    2.81039763256
O     0.00000000000    0.00000000000    0.00000000000
Mg   -2.11388582115    0.00000000000    0.00000000000
Mg    0.00000000000    2.11388582115    0.00000000000
Mg    2.11388582115    0.00000000000    0.00000000000
Mg    0.00000000000   -2.11388582115    0.00000000000
Mg    0.00000000000    0.00000000000   -2.11388582115
O    -2.11388582115    2.11388582115    0.00000000000
O     2.11388582115    2.11388582115    0.00000000000
O     2.11388582115   -2.11388582115    0.00000000000
O    -2.11388582115   -2.11388582115    0.00000000000
O    -2.11388582115    0.00000000000   -2.11388582115
O     0.00000000000    2.11388582115   -2.11388582115
O     2.11388582115    0.00000000000   -2.11388582115
O     0.00000000000   -2.11388582115   -2.11388582115
Mg   -2.11388582115    2.11388582115   -2.11388582115
Mg    2.11388582115    2.11388582115   -2.11388582115
Mg    2.11388582115   -2.11388582115   -2.11388582115
O    -4.22777164231    0.00000000000    0.00000000000
O     0.00000000000    4.22777164231    0.00000000000
O     4.22777164231    0.00000000000    0.00000000000
O     0.00000000000   -4.22777164231    0.00000000000
Mg   -4.22777164231    2.11388582115    0.00000000000
Mg   -2.11388582115    4.22777164231    0.00000000000
Mg    2.11388582115    4.22777164231    0.00000000000
Mg    4.22777164231    2.11388582115    0.00000000000
Mg    4.22777164231   -2.11388582115    0.00000000000
Mg    2.11388582115   -4.22777164231    0.00000000000
Mg    0.00000000000    4.22777164231   -2.11388582115
Mg    4.22777164231    0.00000000000   -2.11388582115
O    -4.22777164231    2.11388582115   -2.11388582115
O    -2.11388582115    4.22777164231   -2.11388582115
O     2.11388582115    4.22777164231   -2.11388582115
O     4.22777164231    2.11388582115   -2.11388582115
O     4.22777164231   -2.11388582115   -2.11388582115
O     2.11388582115   -4.22777164231   -2.11388582115
O    -4.22777164231    4.22777164231    0.00000000000
O     4.22777164231    4.22777164231    0.00000000000
O     4.22777164231   -4.22777164231    0.00000000000
Mg    0.00000000000    6.34165746346    0.00000000000
Mg    6.34165746346    0.00000000000    0.00000000000
O    -6.34165746346    2.11388582115    0.00000000000
O    -2.11388582115    6.34165746346    0.00000000000
O     2.11388582115    6.34165746346    0.00000000000
O     6.34165746346    2.11388582115    0.00000000000
O     6.34165746346   -2.11388582115    0.00000000000
O     2.11388582115   -6.34165746346    0.00000000000
O     0.00000000000    6.34165746346   -2.11388582115
O     6.34165746346    0.00000000000   -2.11388582115
O     0.00000000000    8.45554328461    0.00000000000
O     8.45554328461    0.00000000000    0.00000000000

ghost=serialno
3-52

 
 
 Checking keyword combinations...
 
 Keywords:
 
 active=none
 agrid=ld0006-ld0590
 agrid_pssp=ld0006-ld0194
 agrid_pssp_sm=ld0006-ld0074
 basis=special
 basis_sm=special
 basopt=off
 bfbasis=none
 bfgsmem=10
 bfgstol=1.0d-3
 bpcompo=0.985
 bpcompv=0.98
 bpdfo=0.985
 bpocc=0.99995d0
 bppdo=0.999d0
 bppdv=0.98
 bpedo=0.99995d0
 bpedv=0.995d0
 calc=ccsd(t)
 ccmaxit=400
 ccprog=ccsd
 ccsdalg=dfdirect
 ccsdmkl=thr
 ccsdrest=off
 ccsdthreads=4
 cctol=5
 charge=0
 cialg=direct
 ciguess=off
 cmpgrp=auto
 comprest=off
 core=8
 corembed=off
 csapprox=off
 cvs=off
 dboc=off
 delocsomofact=
 dendec=cholesky
 dens=0
 dfalg=lineq
 dfbasis_cab=none
 dfbasis_cor=special
 dfbasis_scf=special
 dfbasis_scf_sm=special
 dfintran=drpa
 dft=off
 dhexc=adc(2)
 diag=david
 docc=
 domrad=10.d0
 drpaalg=auto
 dual=off
 dual_df=off
 ecp=special
 edisp=off
 edisp_embed=off
 embed=off
 etemp=300
 epert=none
 eps=
 espcharge=off
 excrad=1.0
 excrad_fin=0.100000000D-02
 fitting=coulomb
 fmm=off
 fmmord=8
 freq=off
 gamma=1.d0
 gauss=spher
 geom=xyz
 gopt=off
 ghost=serialno
 gtol=7
 grdens=off
 gridbatch_cos=2000
 grtol=10
 guido_ct=off
 hamilton=dc
 iface=none
 intalg=auto
 itol=10
 laptol=1.d-3
 lccoporder=lccfirst
 lcorthr=tight
 lccrest=off
 lmp2dens=on
 lnoepso=3e-6
 lnoepsv=3e-7
 boysalg=jacobi
 localcc=2021
 localcorrsymm=off
 locintrf=direct
 mact=
 maxact=off
 maxdim=100
 maxex=0
 maxmicroit=100
 mcscfiguess=hf
 mem=190gb
 mmprog=
 molden=on
 mpitasks=1
 mulmet=3
 mult=
 nacto=0
 nactv=0
 naf_amp=1.d-2
 naf_cor=1e-2
 naf_scf=off
 nafalg=albe
 naftyp=jpq
 nchol=auto
 ndeps=1e-3
 nstate=1
 nsing=0
 nto=off
 ntrip=0
 occ=
 occri=off
 oniom=off
 oniom_eechg=off
 oniom_pcm=off
 oniom_qcorr=off
 optalg=
 optmaxit=50
 optetol=1e-6
 optex=0
 optgtol=1e-4
 optstol=1e-3
 orblocc=off
 orbloce=off
 orbloco=boys
 orblocv=pao
 orblocguess=cholesky
 osveps=-1.d0
 ovirt=off
 ovltol=1e-7
 ovosnorb=80.0
 pcm=off
 popul=off
 pressure=100000
 pssp=off
 ptfreq=0.0
 ptthreads=4
 qro=off
 qscf=off
 qmmm=off
 redcost_exc=off
 redcost_tddft=0.985d0
 refdet=none
 rest=0
 rgrid=log3
 rism=off
 rohfcore=standard
 rohftype=semicanonical
 scfalg=locfit1
 scf_conv=difficult
 scfdamp=0.0d0
 scfdamp_mode=off
 scfdamp_end=1000
 scfdamp_dampstep=0.d0
 scfdamp_dtol=0.0d0
 scfdamp_maxfact=0.0d0
 scfdamp_minfact=0.0d0
 scfdiis=on
 scfdiis_dtol=0.0d0
 scfdiis_end=1000
 scfdiis_start=2
 scfdiis_step=1
 scfdiis_watch=off
 scfdiis_wrange=10
 scfdiis_wlimit=5
 scfdiis_delmax=2
 scfdtol=7
 scfext=10
 scfguessdens=
 scfiguess=small
 scfloc=pm
 scflshift=0.20
 scflshift_end=8
 scflshift_dtol=0.0
 scflshift_gaptol=0.20
 scfmaxit=1000
 scftype=rhf
 scftol=6
 scspe=1.d0
 scsph=1.d0
 scsps=1.2d0
 scsps_t=1.2d0
 scspt=0.33333333333333
 scspt_t=0.33333333333333
 scspv=1.d0
 spairtol=-1.d0
 sqmprog=
 subminp=top
 symm=0
 talg=lapl
 temp=298.15
 test=off
 theodore=off
 tlmo=0.999
 tpao=0.94
 tprint=off
 uncontract=off
 unit=angs
 usedisk=0
 verbosity=3
 wpairtol=3.d-6
 
 Calculating integrals for small-basis SCF...

 ************************ 2022-08-18 05:30:50 *************************
 Executing integ...

 Allocation of 190.0 Gbytes of memory...
 
 
 Number of atoms:                 52
 Charge:                           0
 Number of electrons:             38
 Number of core electrons:        16
 Spin multiplicity:                1
 
                 Cartesian coordinates [bohr]      Atomic mass [AMU]  Z
   1  Au    3.68631570    0.30834867    5.31088183   196.966543      79
   2  Au    0.30834747    3.68631690    5.31088183   196.966543      79
   3  O     0.00000000    0.00000000    0.00000000     0.000000       0
   4  Mg   -3.99466526    0.00000000    0.00000000     0.000000       0
   5  Mg    0.00000000    3.99466526    0.00000000     0.000000       0
   6  Mg    3.99466526    0.00000000    0.00000000     0.000000       0
   7  Mg    0.00000000   -3.99466526    0.00000000     0.000000       0
   8  Mg    0.00000000    0.00000000   -3.99466526     0.000000       0
   9  O    -3.99466526    3.99466526    0.00000000     0.000000       0
  10  O     3.99466526    3.99466526    0.00000000     0.000000       0
  11  O     3.99466526   -3.99466526    0.00000000     0.000000       0
  12  O    -3.99466526   -3.99466526    0.00000000     0.000000       0
  13  O    -3.99466526    0.00000000   -3.99466526     0.000000       0
  14  O     0.00000000    3.99466526   -3.99466526     0.000000       0
  15  O     3.99466526    0.00000000   -3.99466526     0.000000       0
  16  O     0.00000000   -3.99466526   -3.99466526     0.000000       0
  17  Mg   -3.99466526    3.99466526   -3.99466526     0.000000       0
  18  Mg    3.99466526    3.99466526   -3.99466526     0.000000       0
  19  Mg    3.99466526   -3.99466526   -3.99466526     0.000000       0
  20  O    -7.98933052    0.00000000    0.00000000     0.000000       0
  21  O     0.00000000    7.98933052    0.00000000     0.000000       0
  22  O     7.98933052    0.00000000    0.00000000     0.000000       0
  23  O     0.00000000   -7.98933052    0.00000000     0.000000       0
  24  Mg   -7.98933052    3.99466526    0.00000000     0.000000       0
  25  Mg   -3.99466526    7.98933052    0.00000000     0.000000       0
  26  Mg    3.99466526    7.98933052    0.00000000     0.000000       0
  27  Mg    7.98933052    3.99466526    0.00000000     0.000000       0
  28  Mg    7.98933052   -3.99466526    0.00000000     0.000000       0
  29  Mg    3.99466526   -7.98933052    0.00000000     0.000000       0
  30  Mg    0.00000000    7.98933052   -3.99466526     0.000000       0
  31  Mg    7.98933052    0.00000000   -3.99466526     0.000000       0
  32  O    -7.98933052    3.99466526   -3.99466526     0.000000       0
  33  O    -3.99466526    7.98933052   -3.99466526     0.000000       0
  34  O     3.99466526    7.98933052   -3.99466526     0.000000       0
  35  O     7.98933052    3.99466526   -3.99466526     0.000000       0
  36  O     7.98933052   -3.99466526   -3.99466526     0.000000       0
  37  O     3.99466526   -7.98933052   -3.99466526     0.000000       0
  38  O    -7.98933052    7.98933052    0.00000000     0.000000       0
  39  O     7.98933052    7.98933052    0.00000000     0.000000       0
  40  O     7.98933052   -7.98933052    0.00000000     0.000000       0
  41  Mg    0.00000000   11.98399579    0.00000000     0.000000       0
  42  Mg   11.98399579    0.00000000    0.00000000     0.000000       0
  43  O   -11.98399579    3.99466526    0.00000000     0.000000       0
  44  O    -3.99466526   11.98399579    0.00000000     0.000000       0
  45  O     3.99466526   11.98399579    0.00000000     0.000000       0
  46  O    11.98399579    3.99466526    0.00000000     0.000000       0
  47  O    11.98399579   -3.99466526    0.00000000     0.000000       0
  48  O     3.99466526  -11.98399579    0.00000000     0.000000       0
  49  O     0.00000000   11.98399579   -3.99466526     0.000000       0
  50  O    11.98399579    0.00000000   -3.99466526     0.000000       0
  51  O     0.00000000   15.97866105    0.00000000     0.000000       0
  52  O    15.97866105    0.00000000    0.00000000     0.000000       0
 
 This molecule is an asymmetric top.
 
 Point group: C1  
 Computational point group: C1  
 
 Cartesian coordinates in standard orientation [bohr]
   1  Au   -2.38858387    1.30102744    0.00000018
   2  Au    2.38858462    1.30102667    0.00000018
   3  O    -0.00000133   -4.00985412   -2.82465532
   4  Mg    2.82465357   -4.00985391   -5.64931022
   5  Mg    2.82465357   -4.00985523   -0.00000043
   6  Mg   -2.82465622   -4.00985432   -0.00000043
   7  Mg   -2.82465622   -4.00985300   -5.64931022
   8  Mg   -0.00000197   -8.00451938   -2.82465626
   9  O     5.64930846   -4.00985502   -2.82465532
  10  O    -0.00000133   -4.00985544    2.82465447
  11  O    -5.64931112   -4.00985321   -2.82465532
  12  O    -0.00000133   -4.00985280   -8.47396511
  13  O     2.82465293   -8.00451917   -5.64931115
  14  O     2.82465293   -8.00452049   -0.00000136
  15  O    -2.82465686   -8.00451959   -0.00000136
  16  O    -2.82465686   -8.00451827   -5.64931115
  17  Mg    5.64930782   -8.00452028   -2.82465626
  18  Mg   -0.00000197   -8.00452070    2.82465353
  19  Mg   -5.64931176   -8.00451847   -2.82465626
  20  O     5.64930846   -4.00985370   -8.47396511
  21  O     5.64930846   -4.00985634    2.82465447
  22  O    -5.64931112   -4.00985453    2.82465447
  23  O    -5.64931112   -4.00985189   -8.47396511
  24  Mg    8.47396336   -4.00985481   -5.64931022
  25  Mg    8.47396336   -4.00985613   -0.00000043
  26  Mg    2.82465357   -4.00985655    5.64930936
  27  Mg   -2.82465622   -4.00985564    5.64930936
  28  Mg   -8.47396601   -4.00985342   -0.00000043
  29  Mg   -8.47396601   -4.00985210   -5.64931022
  30  Mg    5.64930783   -8.00452160    2.82465353
  31  Mg   -5.64931176   -8.00451979    2.82465353
  32  O     8.47396272   -8.00452008   -5.64931115
  33  O     8.47396272   -8.00452140   -0.00000136
  34  O     2.82465293   -8.00452181    5.64930843
  35  O    -2.82465686   -8.00452091    5.64930843
  36  O    -8.47396665   -8.00451868   -0.00000136
  37  O    -8.47396665   -8.00451736   -5.64931115
  38  O    11.29861826   -4.00985593   -2.82465532
  39  O    -0.00000133   -4.00985676    8.47396426
  40  O   -11.29862091   -4.00985231   -2.82465532
  41  Mg    8.47396336   -4.00985745    5.64930936
  42  Mg   -8.47396601   -4.00985474    5.64930936
  43  O    11.29861826   -4.00985461   -8.47396511
  44  O    11.29861826   -4.00985725    2.82465447
  45  O     5.64930846   -4.00985766    8.47396426
  46  O    -5.64931112   -4.00985585    8.47396426
  47  O   -11.29862091   -4.00985363    2.82465447
  48  O   -11.29862091   -4.00985099   -8.47396511
  49  O     8.47396272   -8.00452272    5.64930843
  50  O    -8.47396665   -8.00452000    5.64930843
  51  O    11.29861826   -4.00985857    8.47396426
  52  O   -11.29862091   -4.00985495    8.47396426
 
 Nuclear repulsion energy [au]:         75.567776385432
 
 
 Basis set information:
 
 Maximum angular momentum: i
 Maximum number of contracted Gaussians:   13
 Maximum number of primitive Gaussians:    16
 Spherical harmonic GTOs are used.
 
 
 Conventional basis set:
 
   1  Au def2-svp [ 7s 6p 5d 1f | 6s 3p 2d 1f ]
   2  Au def2-svp [ 7s 6p 5d 1f | 6s 3p 2d 1f ]
   3  O  def2-svp [ 7s 4p 1d | 3s 2p 1d ]
   4  Mg def2-svp [ 10s 7p 1d | 4s 3p 1d ]
   5  Mg def2-svp [ 10s 7p 1d | 4s 3p 1d ]
   6  Mg def2-svp [ 10s 7p 1d | 4s 3p 1d ]
   7  Mg def2-svp [ 10s 7p 1d | 4s 3p 1d ]
   8  Mg def2-svp [ 10s 7p 1d | 4s 3p 1d ]
   9  O  def2-svp [ 7s 4p 1d | 3s 2p 1d ]
  10  O  def2-svp [ 7s 4p 1d | 3s 2p 1d ]
  11  O  def2-svp [ 7s 4p 1d | 3s 2p 1d ]
  12  O  def2-svp [ 7s 4p 1d | 3s 2p 1d ]
  13  O  def2-svp [ 7s 4p 1d | 3s 2p 1d ]
  14  O  def2-svp [ 7s 4p 1d | 3s 2p 1d ]
  15  O  def2-svp [ 7s 4p 1d | 3s 2p 1d ]
  16  O  def2-svp [ 7s 4p 1d | 3s 2p 1d ]
  17  Mg def2-svp [ 10s 7p 1d | 4s 3p 1d ]
  18  Mg def2-svp [ 10s 7p 1d | 4s 3p 1d ]
  19  Mg def2-svp [ 10s 7p 1d | 4s 3p 1d ]
  20  O  def2-svp [ 7s 4p 1d | 3s 2p 1d ]
  21  O  def2-svp [ 7s 4p 1d | 3s 2p 1d ]
  22  O  def2-svp [ 7s 4p 1d | 3s 2p 1d ]
  23  O  def2-svp [ 7s 4p 1d | 3s 2p 1d ]
  24  Mg def2-svp [ 10s 7p 1d | 4s 3p 1d ]
  25  Mg def2-svp [ 10s 7p 1d | 4s 3p 1d ]
  26  Mg def2-svp [ 10s 7p 1d | 4s 3p 1d ]
  27  Mg def2-svp [ 10s 7p 1d | 4s 3p 1d ]
  28  Mg def2-svp [ 10s 7p 1d | 4s 3p 1d ]
  29  Mg def2-svp [ 10s 7p 1d | 4s 3p 1d ]
  30  Mg def2-svp [ 10s 7p 1d | 4s 3p 1d ]
  31  Mg def2-svp [ 10s 7p 1d | 4s 3p 1d ]
  32  O  def2-svp [ 7s 4p 1d | 3s 2p 1d ]
  33  O  def2-svp [ 7s 4p 1d | 3s 2p 1d ]
  34  O  def2-svp [ 7s 4p 1d | 3s 2p 1d ]
  35  O  def2-svp [ 7s 4p 1d | 3s 2p 1d ]
  36  O  def2-svp [ 7s 4p 1d | 3s 2p 1d ]
  37  O  def2-svp [ 7s 4p 1d | 3s 2p 1d ]
  38  O  def2-svp [ 7s 4p 1d | 3s 2p 1d ]
  39  O  def2-svp [ 7s 4p 1d | 3s 2p 1d ]
  40  O  def2-svp [ 7s 4p 1d | 3s 2p 1d ]
  41  Mg def2-svp [ 10s 7p 1d | 4s 3p 1d ]
  42  Mg def2-svp [ 10s 7p 1d | 4s 3p 1d ]
  43  O  def2-svp [ 7s 4p 1d | 3s 2p 1d ]
  44  O  def2-svp [ 7s 4p 1d | 3s 2p 1d ]
  45  O  def2-svp [ 7s 4p 1d | 3s 2p 1d ]
  46  O  def2-svp [ 7s 4p 1d | 3s 2p 1d ]
  47  O  def2-svp [ 7s 4p 1d | 3s 2p 1d ]
  48  O  def2-svp [ 7s 4p 1d | 3s 2p 1d ]
  49  O  def2-svp [ 7s 4p 1d | 3s 2p 1d ]
  50  O  def2-svp [ 7s 4p 1d | 3s 2p 1d ]
  51  O  def2-svp [ 7s 4p 1d | 3s 2p 1d ]
  52  O  def2-svp [ 7s 4p 1d | 3s 2p 1d ]
 
 Basis functions:
            1             2             3             4             5             6             7             8             9            10
    0    1Au1s         1Au2s         1Au3s         1Au4s         1Au5s         1Au6s         1Au1pz        1Au1py        1Au1px        1Au2pz    
    1    1Au2py        1Au2px        1Au3pz        1Au3py        1Au3px        1Au1d-2       1Au1d-1       1Au1d0        1Au1d+1       1Au1d+2   
    2    1Au2d-2       1Au2d-1       1Au2d0        1Au2d+1       1Au2d+2       1Au1f-3       1Au1f-2       1Au1f-1       1Au1f0        1Au1f+1   
    3    1Au1f+2       1Au1f+3       2Au1s         2Au2s         2Au3s         2Au4s         2Au5s         2Au6s         2Au1pz        2Au1py    
    4    2Au1px        2Au2pz        2Au2py        2Au2px        2Au3pz        2Au3py        2Au3px        2Au1d-2       2Au1d-1       2Au1d0    
    5    2Au1d+1       2Au1d+2       2Au2d-2       2Au2d-1       2Au2d0        2Au2d+1       2Au2d+2       2Au1f-3       2Au1f-2       2Au1f-1   
    6    2Au1f0        2Au1f+1       2Au1f+2       2Au1f+3       3O1s          3O2s          3O3s          3O1pz         3O1py         3O1px     
    7    3O2pz         3O2py         3O2px         3O1d-2        3O1d-1        3O1d0         3O1d+1        3O1d+2        4Mg1s         4Mg2s     
    8    4Mg3s         4Mg4s         4Mg1pz        4Mg1py        4Mg1px        4Mg2pz        4Mg2py        4Mg2px        4Mg3pz        4Mg3py    
    9    4Mg3px        4Mg1d-2       4Mg1d-1       4Mg1d0        4Mg1d+1       4Mg1d+2       5Mg1s         5Mg2s         5Mg3s         5Mg4s     
   10    5Mg1pz        5Mg1py        5Mg1px        5Mg2pz        5Mg2py        5Mg2px        5Mg3pz        5Mg3py        5Mg3px        5Mg1d-2   
   11    5Mg1d-1       5Mg1d0        5Mg1d+1       5Mg1d+2       6Mg1s         6Mg2s         6Mg3s         6Mg4s         6Mg1pz        6Mg1py    
   12    6Mg1px        6Mg2pz        6Mg2py        6Mg2px        6Mg3pz        6Mg3py        6Mg3px        6Mg1d-2       6Mg1d-1       6Mg1d0    
   13    6Mg1d+1       6Mg1d+2       7Mg1s         7Mg2s         7Mg3s         7Mg4s         7Mg1pz        7Mg1py        7Mg1px        7Mg2pz    
   14    7Mg2py        7Mg2px        7Mg3pz        7Mg3py        7Mg3px        7Mg1d-2       7Mg1d-1       7Mg1d0        7Mg1d+1       7Mg1d+2   
   15    8Mg1s         8Mg2s         8Mg3s         8Mg4s         8Mg1pz        8Mg1py        8Mg1px        8Mg2pz        8Mg2py        8Mg2px    
   16    8Mg3pz        8Mg3py        8Mg3px        8Mg1d-2       8Mg1d-1       8Mg1d0        8Mg1d+1       8Mg1d+2       9O1s          9O2s      
   17    9O3s          9O1pz         9O1py         9O1px         9O2pz         9O2py         9O2px         9O1d-2        9O1d-1        9O1d0     
   18    9O1d+1        9O1d+2       10O1s         10O2s         10O3s         10O1pz        10O1py        10O1px        10O2pz        10O2py     
   19   10O2px        10O1d-2       10O1d-1       10O1d0        10O1d+1       10O1d+2       11O1s         11O2s         11O3s         11O1pz     
   20   11O1py        11O1px        11O2pz        11O2py        11O2px        11O1d-2       11O1d-1       11O1d0        11O1d+1       11O1d+2    
   21   12O1s         12O2s         12O3s         12O1pz        12O1py        12O1px        12O2pz        12O2py        12O2px        12O1d-2    
   22   12O1d-1       12O1d0        12O1d+1       12O1d+2       13O1s         13O2s         13O3s         13O1pz        13O1py        13O1px     
   23   13O2pz        13O2py        13O2px        13O1d-2       13O1d-1       13O1d0        13O1d+1       13O1d+2       14O1s         14O2s      
   24   14O3s         14O1pz        14O1py        14O1px        14O2pz        14O2py        14O2px        14O1d-2       14O1d-1       14O1d0     
   25   14O1d+1       14O1d+2       15O1s         15O2s         15O3s         15O1pz        15O1py        15O1px        15O2pz        15O2py     
   26   15O2px        15O1d-2       15O1d-1       15O1d0        15O1d+1       15O1d+2       16O1s         16O2s         16O3s         16O1pz     
   27   16O1py        16O1px        16O2pz        16O2py        16O2px        16O1d-2       16O1d-1       16O1d0        16O1d+1       16O1d+2    
   28   17Mg1s        17Mg2s        17Mg3s        17Mg4s        17Mg1pz       17Mg1py       17Mg1px       17Mg2pz       17Mg2py       17Mg2px    
   29   17Mg3pz       17Mg3py       17Mg3px       17Mg1d-2      17Mg1d-1      17Mg1d0       17Mg1d+1      17Mg1d+2      18Mg1s        18Mg2s     
   30   18Mg3s        18Mg4s        18Mg1pz       18Mg1py       18Mg1px       18Mg2pz       18Mg2py       18Mg2px       18Mg3pz       18Mg3py    
   31   18Mg3px       18Mg1d-2      18Mg1d-1      18Mg1d0       18Mg1d+1      18Mg1d+2      19Mg1s        19Mg2s        19Mg3s        19Mg4s     
   32   19Mg1pz       19Mg1py       19Mg1px       19Mg2pz       19Mg2py       19Mg2px       19Mg3pz       19Mg3py       19Mg3px       19Mg1d-2   
   33   19Mg1d-1      19Mg1d0       19Mg1d+1      19Mg1d+2      20O1s         20O2s         20O3s         20O1pz        20O1py        20O1px     
   34   20O2pz        20O2py        20O2px        20O1d-2       20O1d-1       20O1d0        20O1d+1       20O1d+2       21O1s         21O2s      
   35   21O3s         21O1pz        21O1py        21O1px        21O2pz        21O2py        21O2px        21O1d-2       21O1d-1       21O1d0     
   36   21O1d+1       21O1d+2       22O1s         22O2s         22O3s         22O1pz        22O1py        22O1px        22O2pz        22O2py     
   37   22O2px        22O1d-2       22O1d-1       22O1d0        22O1d+1       22O1d+2       23O1s         23O2s         23O3s         23O1pz     
   38   23O1py        23O1px        23O2pz        23O2py        23O2px        23O1d-2       23O1d-1       23O1d0        23O1d+1       23O1d+2    
   39   24Mg1s        24Mg2s        24Mg3s        24Mg4s        24Mg1pz       24Mg1py       24Mg1px       24Mg2pz       24Mg2py       24Mg2px    
   40   24Mg3pz       24Mg3py       24Mg3px       24Mg1d-2      24Mg1d-1      24Mg1d0       24Mg1d+1      24Mg1d+2      25Mg1s        25Mg2s     
   41   25Mg3s        25Mg4s        25Mg1pz       25Mg1py       25Mg1px       25Mg2pz       25Mg2py       25Mg2px       25Mg3pz       25Mg3py    
   42   25Mg3px       25Mg1d-2      25Mg1d-1      25Mg1d0       25Mg1d+1      25Mg1d+2      26Mg1s        26Mg2s        26Mg3s        26Mg4s     
   43   26Mg1pz       26Mg1py       26Mg1px       26Mg2pz       26Mg2py       26Mg2px       26Mg3pz       26Mg3py       26Mg3px       26Mg1d-2   
   44   26Mg1d-1      26Mg1d0       26Mg1d+1      26Mg1d+2      27Mg1s        27Mg2s        27Mg3s        27Mg4s        27Mg1pz       27Mg1py    
   45   27Mg1px       27Mg2pz       27Mg2py       27Mg2px       27Mg3pz       27Mg3py       27Mg3px       27Mg1d-2      27Mg1d-1      27Mg1d0    
   46   27Mg1d+1      27Mg1d+2      28Mg1s        28Mg2s        28Mg3s        28Mg4s        28Mg1pz       28Mg1py       28Mg1px       28Mg2pz    
   47   28Mg2py       28Mg2px       28Mg3pz       28Mg3py       28Mg3px       28Mg1d-2      28Mg1d-1      28Mg1d0       28Mg1d+1      28Mg1d+2   
   48   29Mg1s        29Mg2s        29Mg3s        29Mg4s        29Mg1pz       29Mg1py       29Mg1px       29Mg2pz       29Mg2py       29Mg2px    
   49   29Mg3pz       29Mg3py       29Mg3px       29Mg1d-2      29Mg1d-1      29Mg1d0       29Mg1d+1      29Mg1d+2      30Mg1s        30Mg2s     
   50   30Mg3s        30Mg4s        30Mg1pz       30Mg1py       30Mg1px       30Mg2pz       30Mg2py       30Mg2px       30Mg3pz       30Mg3py    
   51   30Mg3px       30Mg1d-2      30Mg1d-1      30Mg1d0       30Mg1d+1      30Mg1d+2      31Mg1s        31Mg2s        31Mg3s        31Mg4s     
   52   31Mg1pz       31Mg1py       31Mg1px       31Mg2pz       31Mg2py       31Mg2px       31Mg3pz       31Mg3py       31Mg3px       31Mg1d-2   
   53   31Mg1d-1      31Mg1d0       31Mg1d+1      31Mg1d+2      32O1s         32O2s         32O3s         32O1pz        32O1py        32O1px     
   54   32O2pz        32O2py        32O2px        32O1d-2       32O1d-1       32O1d0        32O1d+1       32O1d+2       33O1s         33O2s      
   55   33O3s         33O1pz        33O1py        33O1px        33O2pz        33O2py        33O2px        33O1d-2       33O1d-1       33O1d0     
   56   33O1d+1       33O1d+2       34O1s         34O2s         34O3s         34O1pz        34O1py        34O1px        34O2pz        34O2py     
   57   34O2px        34O1d-2       34O1d-1       34O1d0        34O1d+1       34O1d+2       35O1s         35O2s         35O3s         35O1pz     
   58   35O1py        35O1px        35O2pz        35O2py        35O2px        35O1d-2       35O1d-1       35O1d0        35O1d+1       35O1d+2    
   59   36O1s         36O2s         36O3s         36O1pz        36O1py        36O1px        36O2pz        36O2py        36O2px        36O1d-2    
   60   36O1d-1       36O1d0        36O1d+1       36O1d+2       37O1s         37O2s         37O3s         37O1pz        37O1py        37O1px     
   61   37O2pz        37O2py        37O2px        37O1d-2       37O1d-1       37O1d0        37O1d+1       37O1d+2       38O1s         38O2s      
   62   38O3s         38O1pz        38O1py        38O1px        38O2pz        38O2py        38O2px        38O1d-2       38O1d-1       38O1d0     
   63   38O1d+1       38O1d+2       39O1s         39O2s         39O3s         39O1pz        39O1py        39O1px        39O2pz        39O2py     
   64   39O2px        39O1d-2       39O1d-1       39O1d0        39O1d+1       39O1d+2       40O1s         40O2s         40O3s         40O1pz     
   65   40O1py        40O1px        40O2pz        40O2py        40O2px        40O1d-2       40O1d-1       40O1d0        40O1d+1       40O1d+2    
   66   41Mg1s        41Mg2s        41Mg3s        41Mg4s        41Mg1pz       41Mg1py       41Mg1px       41Mg2pz       41Mg2py       41Mg2px    
   67   41Mg3pz       41Mg3py       41Mg3px       41Mg1d-2      41Mg1d-1      41Mg1d0       41Mg1d+1      41Mg1d+2      42Mg1s        42Mg2s     
   68   42Mg3s        42Mg4s        42Mg1pz       42Mg1py       42Mg1px       42Mg2pz       42Mg2py       42Mg2px       42Mg3pz       42Mg3py    
   69   42Mg3px       42Mg1d-2      42Mg1d-1      42Mg1d0       42Mg1d+1      42Mg1d+2      43O1s         43O2s         43O3s         43O1pz     
   70   43O1py        43O1px        43O2pz        43O2py        43O2px        43O1d-2       43O1d-1       43O1d0        43O1d+1       43O1d+2    
   71   44O1s         44O2s         44O3s         44O1pz        44O1py        44O1px        44O2pz        44O2py        44O2px        44O1d-2    
   72   44O1d-1       44O1d0        44O1d+1       44O1d+2       45O1s         45O2s         45O3s         45O1pz        45O1py        45O1px     
   73   45O2pz        45O2py        45O2px        45O1d-2       45O1d-1       45O1d0        45O1d+1       45O1d+2       46O1s         46O2s      
   74   46O3s         46O1pz        46O1py        46O1px        46O2pz        46O2py        46O2px        46O1d-2       46O1d-1       46O1d0     
   75   46O1d+1       46O1d+2       47O1s         47O2s         47O3s         47O1pz        47O1py        47O1px        47O2pz        47O2py     
   76   47O2px        47O1d-2       47O1d-1       47O1d0        47O1d+1       47O1d+2       48O1s         48O2s         48O3s         48O1pz     
   77   48O1py        48O1px        48O2pz        48O2py        48O2px        48O1d-2       48O1d-1       48O1d0        48O1d+1       48O1d+2    
   78   49O1s         49O2s         49O3s         49O1pz        49O1py        49O1px        49O2pz        49O2py        49O2px        49O1d-2    
   79   49O1d-1       49O1d0        49O1d+1       49O1d+2       50O1s         50O2s         50O3s         50O1pz        50O1py        50O1px     
   80   50O2pz        50O2py        50O2px        50O1d-2       50O1d-1       50O1d0        50O1d+1       50O1d+2       51O1s         51O2s      
   81   51O3s         51O1pz        51O1py        51O1px        51O2pz        51O2py        51O2px        51O1d-2       51O1d-1       51O1d0     
   82   51O1d+1       51O1d+2       52O1s         52O2s         52O3s         52O1pz        52O1py        52O1px        52O2pz        52O2py     
   83   52O2px        52O1d-2       52O1d-1       52O1d0        52O1d+1       52O1d+2    
 
 Maximum number of basis functions per shell:   10
 Total number of basis functions:    836
 
 
 Fitting basis set for the SCF calculation:
 
   1  Au def2-qzvpp-ri-jk [ 13s 12p 11d 9f 5g 3h 2i | 13s 11p 10d 8f 4g 3h 2i ]
   2  Au def2-qzvpp-ri-jk [ 13s 12p 11d 9f 5g 3h 2i | 13s 11p 10d 8f 4g 3h 2i ]
   3  O  def2-qzvpp-ri-jk [ 14s 10p 6d 2f 1g | 10s 8p 4d 2f 1g ]
   4  Mg def2-qzvpp-ri-jk [ 16s 12p 9d 4f 1g | 13s 9p 7d 4f 1g ]
   5  Mg def2-qzvpp-ri-jk [ 16s 12p 9d 4f 1g | 13s 9p 7d 4f 1g ]
   6  Mg def2-qzvpp-ri-jk [ 16s 12p 9d 4f 1g | 13s 9p 7d 4f 1g ]
   7  Mg def2-qzvpp-ri-jk [ 16s 12p 9d 4f 1g | 13s 9p 7d 4f 1g ]
   8  Mg def2-qzvpp-ri-jk [ 16s 12p 9d 4f 1g | 13s 9p 7d 4f 1g ]
   9  O  def2-qzvpp-ri-jk [ 14s 10p 6d 2f 1g | 10s 8p 4d 2f 1g ]
  10  O  def2-qzvpp-ri-jk [ 14s 10p 6d 2f 1g | 10s 8p 4d 2f 1g ]
  11  O  def2-qzvpp-ri-jk [ 14s 10p 6d 2f 1g | 10s 8p 4d 2f 1g ]
  12  O  def2-qzvpp-ri-jk [ 14s 10p 6d 2f 1g | 10s 8p 4d 2f 1g ]
  13  O  def2-qzvpp-ri-jk [ 14s 10p 6d 2f 1g | 10s 8p 4d 2f 1g ]
  14  O  def2-qzvpp-ri-jk [ 14s 10p 6d 2f 1g | 10s 8p 4d 2f 1g ]
  15  O  def2-qzvpp-ri-jk [ 14s 10p 6d 2f 1g | 10s 8p 4d 2f 1g ]
  16  O  def2-qzvpp-ri-jk [ 14s 10p 6d 2f 1g | 10s 8p 4d 2f 1g ]
  17  Mg def2-qzvpp-ri-jk [ 16s 12p 9d 4f 1g | 13s 9p 7d 4f 1g ]
  18  Mg def2-qzvpp-ri-jk [ 16s 12p 9d 4f 1g | 13s 9p 7d 4f 1g ]
  19  Mg def2-qzvpp-ri-jk [ 16s 12p 9d 4f 1g | 13s 9p 7d 4f 1g ]
  20  O  def2-qzvpp-ri-jk [ 14s 10p 6d 2f 1g | 10s 8p 4d 2f 1g ]
  21  O  def2-qzvpp-ri-jk [ 14s 10p 6d 2f 1g | 10s 8p 4d 2f 1g ]
  22  O  def2-qzvpp-ri-jk [ 14s 10p 6d 2f 1g | 10s 8p 4d 2f 1g ]
  23  O  def2-qzvpp-ri-jk [ 14s 10p 6d 2f 1g | 10s 8p 4d 2f 1g ]
  24  Mg def2-qzvpp-ri-jk [ 16s 12p 9d 4f 1g | 13s 9p 7d 4f 1g ]
  25  Mg def2-qzvpp-ri-jk [ 16s 12p 9d 4f 1g | 13s 9p 7d 4f 1g ]
  26  Mg def2-qzvpp-ri-jk [ 16s 12p 9d 4f 1g | 13s 9p 7d 4f 1g ]
  27  Mg def2-qzvpp-ri-jk [ 16s 12p 9d 4f 1g | 13s 9p 7d 4f 1g ]
  28  Mg def2-qzvpp-ri-jk [ 16s 12p 9d 4f 1g | 13s 9p 7d 4f 1g ]
  29  Mg def2-qzvpp-ri-jk [ 16s 12p 9d 4f 1g | 13s 9p 7d 4f 1g ]
  30  Mg def2-qzvpp-ri-jk [ 16s 12p 9d 4f 1g | 13s 9p 7d 4f 1g ]
  31  Mg def2-qzvpp-ri-jk [ 16s 12p 9d 4f 1g | 13s 9p 7d 4f 1g ]
  32  O  def2-qzvpp-ri-jk [ 14s 10p 6d 2f 1g | 10s 8p 4d 2f 1g ]
  33  O  def2-qzvpp-ri-jk [ 14s 10p 6d 2f 1g | 10s 8p 4d 2f 1g ]
  34  O  def2-qzvpp-ri-jk [ 14s 10p 6d 2f 1g | 10s 8p 4d 2f 1g ]
  35  O  def2-qzvpp-ri-jk [ 14s 10p 6d 2f 1g | 10s 8p 4d 2f 1g ]
  36  O  def2-qzvpp-ri-jk [ 14s 10p 6d 2f 1g | 10s 8p 4d 2f 1g ]
  37  O  def2-qzvpp-ri-jk [ 14s 10p 6d 2f 1g | 10s 8p 4d 2f 1g ]
  38  O  def2-qzvpp-ri-jk [ 14s 10p 6d 2f 1g | 10s 8p 4d 2f 1g ]
  39  O  def2-qzvpp-ri-jk [ 14s 10p 6d 2f 1g | 10s 8p 4d 2f 1g ]
  40  O  def2-qzvpp-ri-jk [ 14s 10p 6d 2f 1g | 10s 8p 4d 2f 1g ]
  41  Mg def2-qzvpp-ri-jk [ 16s 12p 9d 4f 1g | 13s 9p 7d 4f 1g ]
  42  Mg def2-qzvpp-ri-jk [ 16s 12p 9d 4f 1g | 13s 9p 7d 4f 1g ]
  43  O  def2-qzvpp-ri-jk [ 14s 10p 6d 2f 1g | 10s 8p 4d 2f 1g ]
  44  O  def2-qzvpp-ri-jk [ 14s 10p 6d 2f 1g | 10s 8p 4d 2f 1g ]
  45  O  def2-qzvpp-ri-jk [ 14s 10p 6d 2f 1g | 10s 8p 4d 2f 1g ]
  46  O  def2-qzvpp-ri-jk [ 14s 10p 6d 2f 1g | 10s 8p 4d 2f 1g ]
  47  O  def2-qzvpp-ri-jk [ 14s 10p 6d 2f 1g | 10s 8p 4d 2f 1g ]
  48  O  def2-qzvpp-ri-jk [ 14s 10p 6d 2f 1g | 10s 8p 4d 2f 1g ]
  49  O  def2-qzvpp-ri-jk [ 14s 10p 6d 2f 1g | 10s 8p 4d 2f 1g ]
  50  O  def2-qzvpp-ri-jk [ 14s 10p 6d 2f 1g | 10s 8p 4d 2f 1g ]
  51  O  def2-qzvpp-ri-jk [ 14s 10p 6d 2f 1g | 10s 8p 4d 2f 1g ]
  52  O  def2-qzvpp-ri-jk [ 14s 10p 6d 2f 1g | 10s 8p 4d 2f 1g ]
 
 Basis functions:
            1             2             3             4             5             6             7             8             9            10
    0    1Au1s         1Au2s         1Au3s         1Au4s         1Au5s         1Au6s         1Au7s         1Au8s         1Au9s         1Au10s    
    1    1Au11s        1Au12s        1Au13s        1Au1pz        1Au1py        1Au1px        1Au2pz        1Au2py        1Au2px        1Au3pz    
    2    1Au3py        1Au3px        1Au4pz        1Au4py        1Au4px        1Au5pz        1Au5py        1Au5px        1Au6pz        1Au6py    
    3    1Au6px        1Au7pz        1Au7py        1Au7px        1Au8pz        1Au8py        1Au8px        1Au9pz        1Au9py        1Au9px    
    4    1Au10pz       1Au10py       1Au10px       1Au11pz       1Au11py       1Au11px       1Au1d-2       1Au1d-1       1Au1d0        1Au1d+1   
    5    1Au1d+2       1Au2d-2       1Au2d-1       1Au2d0        1Au2d+1       1Au2d+2       1Au3d-2       1Au3d-1       1Au3d0        1Au3d+1   
    6    1Au3d+2       1Au4d-2       1Au4d-1       1Au4d0        1Au4d+1       1Au4d+2       1Au5d-2       1Au5d-1       1Au5d0        1Au5d+1   
    7    1Au5d+2       1Au6d-2       1Au6d-1       1Au6d0        1Au6d+1       1Au6d+2       1Au7d-2       1Au7d-1       1Au7d0        1Au7d+1   
    8    1Au7d+2       1Au8d-2       1Au8d-1       1Au8d0        1Au8d+1       1Au8d+2       1Au9d-2       1Au9d-1       1Au9d0        1Au9d+1   
    9    1Au9d+2       1Au10d-2      1Au10d-1      1Au10d0       1Au10d+1      1Au10d+2      1Au1f-3       1Au1f-2       1Au1f-1       1Au1f0    
   10    1Au1f+1       1Au1f+2       1Au1f+3       1Au2f-3       1Au2f-2       1Au2f-1       1Au2f0        1Au2f+1       1Au2f+2       1Au2f+3   
   11    1Au3f-3       1Au3f-2       1Au3f-1       1Au3f0        1Au3f+1       1Au3f+2       1Au3f+3       1Au4f-3       1Au4f-2       1Au4f-1   
   12    1Au4f0        1Au4f+1       1Au4f+2       1Au4f+3       1Au5f-3       1Au5f-2       1Au5f-1       1Au5f0        1Au5f+1       1Au5f+2   
   13    1Au5f+3       1Au6f-3       1Au6f-2       1Au6f-1       1Au6f0        1Au6f+1       1Au6f+2       1Au6f+3       1Au7f-3       1Au7f-2   
   14    1Au7f-1       1Au7f0        1Au7f+1       1Au7f+2       1Au7f+3       1Au8f-3       1Au8f-2       1Au8f-1       1Au8f0        1Au8f+1   
   15    1Au8f+2       1Au8f+3       1Au1g-4       1Au1g-3       1Au1g-2       1Au1g-1       1Au1g0        1Au1g+1       1Au1g+2       1Au1g+3   
   16    1Au1g+4       1Au2g-4       1Au2g-3       1Au2g-2       1Au2g-1       1Au2g0        1Au2g+1       1Au2g+2       1Au2g+3       1Au2g+4   
   17    1Au3g-4       1Au3g-3       1Au3g-2       1Au3g-1       1Au3g0        1Au3g+1       1Au3g+2       1Au3g+3       1Au3g+4       1Au4g-4   
   18    1Au4g-3       1Au4g-2       1Au4g-1       1Au4g0        1Au4g+1       1Au4g+2       1Au4g+3       1Au4g+4       1Au1h-5       1Au1h-4   
   19    1Au1h-3       1Au1h-2       1Au1h-1       1Au1h0        1Au1h+1       1Au1h+2       1Au1h+3       1Au1h+4       1Au1h+5       1Au2h-5   
   20    1Au2h-4       1Au2h-3       1Au2h-2       1Au2h-1       1Au2h0        1Au2h+1       1Au2h+2       1Au2h+3       1Au2h+4       1Au2h+5   
   21    1Au3h-5       1Au3h-4       1Au3h-3       1Au3h-2       1Au3h-1       1Au3h0        1Au3h+1       1Au3h+2       1Au3h+3       1Au3h+4   
   22    1Au3h+5       1Au1i-6       1Au1i-5       1Au1i-4       1Au1i-3       1Au1i-2       1Au1i-1       1Au1i0        1Au1i+1       1Au1i+2   
   23    1Au1i+3       1Au1i+4       1Au1i+5       1Au1i+6       1Au2i-6       1Au2i-5       1Au2i-4       1Au2i-3       1Au2i-2       1Au2i-1   
   24    1Au2i0        1Au2i+1       1Au2i+2       1Au2i+3       1Au2i+4       1Au2i+5       1Au2i+6       2Au1s         2Au2s         2Au3s     
   25    2Au4s         2Au5s         2Au6s         2Au7s         2Au8s         2Au9s         2Au10s        2Au11s        2Au12s        2Au13s    
   26    2Au1pz        2Au1py        2Au1px        2Au2pz        2Au2py        2Au2px        2Au3pz        2Au3py        2Au3px        2Au4pz    
   27    2Au4py        2Au4px        2Au5pz        2Au5py        2Au5px        2Au6pz        2Au6py        2Au6px        2Au7pz        2Au7py    
   28    2Au7px        2Au8pz        2Au8py        2Au8px        2Au9pz        2Au9py        2Au9px        2Au10pz       2Au10py       2Au10px   
   29    2Au11pz       2Au11py       2Au11px       2Au1d-2       2Au1d-1       2Au1d0        2Au1d+1       2Au1d+2       2Au2d-2       2Au2d-1   
   30    2Au2d0        2Au2d+1       2Au2d+2       2Au3d-2       2Au3d-1       2Au3d0        2Au3d+1       2Au3d+2       2Au4d-2       2Au4d-1   
   31    2Au4d0        2Au4d+1       2Au4d+2       2Au5d-2       2Au5d-1       2Au5d0        2Au5d+1       2Au5d+2       2Au6d-2       2Au6d-1   
   32    2Au6d0        2Au6d+1       2Au6d+2       2Au7d-2       2Au7d-1       2Au7d0        2Au7d+1       2Au7d+2       2Au8d-2       2Au8d-1   
   33    2Au8d0        2Au8d+1       2Au8d+2       2Au9d-2       2Au9d-1       2Au9d0        2Au9d+1       2Au9d+2       2Au10d-2      2Au10d-1  
   34    2Au10d0       2Au10d+1      2Au10d+2      2Au1f-3       2Au1f-2       2Au1f-1       2Au1f0        2Au1f+1       2Au1f+2       2Au1f+3   
   35    2Au2f-3       2Au2f-2       2Au2f-1       2Au2f0        2Au2f+1       2Au2f+2       2Au2f+3       2Au3f-3       2Au3f-2       2Au3f-1   
   36    2Au3f0        2Au3f+1       2Au3f+2       2Au3f+3       2Au4f-3       2Au4f-2       2Au4f-1       2Au4f0        2Au4f+1       2Au4f+2   
   37    2Au4f+3       2Au5f-3       2Au5f-2       2Au5f-1       2Au5f0        2Au5f+1       2Au5f+2       2Au5f+3       2Au6f-3       2Au6f-2   
   38    2Au6f-1       2Au6f0        2Au6f+1       2Au6f+2       2Au6f+3       2Au7f-3       2Au7f-2       2Au7f-1       2Au7f0        2Au7f+1   
   39    2Au7f+2       2Au7f+3       2Au8f-3       2Au8f-2       2Au8f-1       2Au8f0        2Au8f+1       2Au8f+2       2Au8f+3       2Au1g-4   
   40    2Au1g-3       2Au1g-2       2Au1g-1       2Au1g0        2Au1g+1       2Au1g+2       2Au1g+3       2Au1g+4       2Au2g-4       2Au2g-3   
   41    2Au2g-2       2Au2g-1       2Au2g0        2Au2g+1       2Au2g+2       2Au2g+3       2Au2g+4       2Au3g-4       2Au3g-3       2Au3g-2   
   42    2Au3g-1       2Au3g0        2Au3g+1       2Au3g+2       2Au3g+3       2Au3g+4       2Au4g-4       2Au4g-3       2Au4g-2       2Au4g-1   
   43    2Au4g0        2Au4g+1       2Au4g+2       2Au4g+3       2Au4g+4       2Au1h-5       2Au1h-4       2Au1h-3       2Au1h-2       2Au1h-1   
   44    2Au1h0        2Au1h+1       2Au1h+2       2Au1h+3       2Au1h+4       2Au1h+5       2Au2h-5       2Au2h-4       2Au2h-3       2Au2h-2   
   45    2Au2h-1       2Au2h0        2Au2h+1       2Au2h+2       2Au2h+3       2Au2h+4       2Au2h+5       2Au3h-5       2Au3h-4       2Au3h-3   
   46    2Au3h-2       2Au3h-1       2Au3h0        2Au3h+1       2Au3h+2       2Au3h+3       2Au3h+4       2Au3h+5       2Au1i-6       2Au1i-5   
   47    2Au1i-4       2Au1i-3       2Au1i-2       2Au1i-1       2Au1i0        2Au1i+1       2Au1i+2       2Au1i+3       2Au1i+4       2Au1i+5   
   48    2Au1i+6       2Au2i-6       2Au2i-5       2Au2i-4       2Au2i-3       2Au2i-2       2Au2i-1       2Au2i0        2Au2i+1       2Au2i+2   
   49    2Au2i+3       2Au2i+4       2Au2i+5       2Au2i+6       3O1s          3O2s          3O3s          3O4s          3O5s          3O6s      
   50    3O7s          3O8s          3O9s          3O10s         3O1pz         3O1py         3O1px         3O2pz         3O2py         3O2px     
   51    3O3pz         3O3py         3O3px         3O4pz         3O4py         3O4px         3O5pz         3O5py         3O5px         3O6pz     
   52    3O6py         3O6px         3O7pz         3O7py         3O7px         3O8pz         3O8py         3O8px         3O1d-2        3O1d-1    
   53    3O1d0         3O1d+1        3O1d+2        3O2d-2        3O2d-1        3O2d0         3O2d+1        3O2d+2        3O3d-2        3O3d-1    
   54    3O3d0         3O3d+1        3O3d+2        3O4d-2        3O4d-1        3O4d0         3O4d+1        3O4d+2        3O1f-3        3O1f-2    
   55    3O1f-1        3O1f0         3O1f+1        3O1f+2        3O1f+3        3O2f-3        3O2f-2        3O2f-1        3O2f0         3O2f+1    
   56    3O2f+2        3O2f+3        3O1g-4        3O1g-3        3O1g-2        3O1g-1        3O1g0         3O1g+1        3O1g+2        3O1g+3    
   57    3O1g+4        4Mg1s         4Mg2s         4Mg3s         4Mg4s         4Mg5s         4Mg6s         4Mg7s         4Mg8s         4Mg9s     
   58    4Mg10s        4Mg11s        4Mg12s        4Mg13s        4Mg1pz        4Mg1py        4Mg1px        4Mg2pz        4Mg2py        4Mg2px    
   59    4Mg3pz        4Mg3py        4Mg3px        4Mg4pz        4Mg4py        4Mg4px        4Mg5pz        4Mg5py        4Mg5px        4Mg6pz    
   60    4Mg6py        4Mg6px        4Mg7pz        4Mg7py        4Mg7px        4Mg8pz        4Mg8py        4Mg8px        4Mg9pz        4Mg9py    
   61    4Mg9px        4Mg1d-2       4Mg1d-1       4Mg1d0        4Mg1d+1       4Mg1d+2       4Mg2d-2       4Mg2d-1       4Mg2d0        4Mg2d+1   
   62    4Mg2d+2       4Mg3d-2       4Mg3d-1       4Mg3d0        4Mg3d+1       4Mg3d+2       4Mg4d-2       4Mg4d-1       4Mg4d0        4Mg4d+1   
   63    4Mg4d+2       4Mg5d-2       4Mg5d-1       4Mg5d0        4Mg5d+1       4Mg5d+2       4Mg6d-2       4Mg6d-1       4Mg6d0        4Mg6d+1   
   64    4Mg6d+2       4Mg7d-2       4Mg7d-1       4Mg7d0        4Mg7d+1       4Mg7d+2       4Mg1f-3       4Mg1f-2       4Mg1f-1       4Mg1f0    
   65    4Mg1f+1       4Mg1f+2       4Mg1f+3       4Mg2f-3       4Mg2f-2       4Mg2f-1       4Mg2f0        4Mg2f+1       4Mg2f+2       4Mg2f+3   
   66    4Mg3f-3       4Mg3f-2       4Mg3f-1       4Mg3f0        4Mg3f+1       4Mg3f+2       4Mg3f+3       4Mg4f-3       4Mg4f-2       4Mg4f-1   
   67    4Mg4f0        4Mg4f+1       4Mg4f+2       4Mg4f+3       4Mg1g-4       4Mg1g-3       4Mg1g-2       4Mg1g-1       4Mg1g0        4Mg1g+1   
   68    4Mg1g+2       4Mg1g+3       4Mg1g+4       5Mg1s         5Mg2s         5Mg3s         5Mg4s         5Mg5s         5Mg6s         5Mg7s     
   69    5Mg8s         5Mg9s         5Mg10s        5Mg11s        5Mg12s        5Mg13s        5Mg1pz        5Mg1py        5Mg1px        5Mg2pz    
   70    5Mg2py        5Mg2px        5Mg3pz        5Mg3py        5Mg3px        5Mg4pz        5Mg4py        5Mg4px        5Mg5pz        5Mg5py    
   71    5Mg5px        5Mg6pz        5Mg6py        5Mg6px        5Mg7pz        5Mg7py        5Mg7px        5Mg8pz        5Mg8py        5Mg8px    
   72    5Mg9pz        5Mg9py        5Mg9px        5Mg1d-2       5Mg1d-1       5Mg1d0        5Mg1d+1       5Mg1d+2       5Mg2d-2       5Mg2d-1   
   73    5Mg2d0        5Mg2d+1       5Mg2d+2       5Mg3d-2       5Mg3d-1       5Mg3d0        5Mg3d+1       5Mg3d+2       5Mg4d-2       5Mg4d-1   
   74    5Mg4d0        5Mg4d+1       5Mg4d+2       5Mg5d-2       5Mg5d-1       5Mg5d0        5Mg5d+1       5Mg5d+2       5Mg6d-2       5Mg6d-1   
   75    5Mg6d0        5Mg6d+1       5Mg6d+2       5Mg7d-2       5Mg7d-1       5Mg7d0        5Mg7d+1       5Mg7d+2       5Mg1f-3       5Mg1f-2   
   76    5Mg1f-1       5Mg1f0        5Mg1f+1       5Mg1f+2       5Mg1f+3       5Mg2f-3       5Mg2f-2       5Mg2f-1       5Mg2f0        5Mg2f+1   
   77    5Mg2f+2       5Mg2f+3       5Mg3f-3       5Mg3f-2       5Mg3f-1       5Mg3f0        5Mg3f+1       5Mg3f+2       5Mg3f+3       5Mg4f-3   
   78    5Mg4f-2       5Mg4f-1       5Mg4f0        5Mg4f+1       5Mg4f+2       5Mg4f+3       5Mg1g-4       5Mg1g-3       5Mg1g-2       5Mg1g-1   
   79    5Mg1g0        5Mg1g+1       5Mg1g+2       5Mg1g+3       5Mg1g+4       6Mg1s         6Mg2s         6Mg3s         6Mg4s         6Mg5s     
   80    6Mg6s         6Mg7s         6Mg8s         6Mg9s         6Mg10s        6Mg11s        6Mg12s        6Mg13s        6Mg1pz        6Mg1py    
   81    6Mg1px        6Mg2pz        6Mg2py        6Mg2px        6Mg3pz        6Mg3py        6Mg3px        6Mg4pz        6Mg4py        6Mg4px    
   82    6Mg5pz        6Mg5py        6Mg5px        6Mg6pz        6Mg6py        6Mg6px        6Mg7pz        6Mg7py        6Mg7px        6Mg8pz    
   83    6Mg8py        6Mg8px        6Mg9pz        6Mg9py        6Mg9px        6Mg1d-2       6Mg1d-1       6Mg1d0        6Mg1d+1       6Mg1d+2   
   84    6Mg2d-2       6Mg2d-1       6Mg2d0        6Mg2d+1       6Mg2d+2       6Mg3d-2       6Mg3d-1       6Mg3d0        6Mg3d+1       6Mg3d+2   
   85    6Mg4d-2       6Mg4d-1       6Mg4d0        6Mg4d+1       6Mg4d+2       6Mg5d-2       6Mg5d-1       6Mg5d0        6Mg5d+1       6Mg5d+2   
   86    6Mg6d-2       6Mg6d-1       6Mg6d0        6Mg6d+1       6Mg6d+2       6Mg7d-2       6Mg7d-1       6Mg7d0        6Mg7d+1       6Mg7d+2   
   87    6Mg1f-3       6Mg1f-2       6Mg1f-1       6Mg1f0        6Mg1f+1       6Mg1f+2       6Mg1f+3       6Mg2f-3       6Mg2f-2       6Mg2f-1   
   88    6Mg2f0        6Mg2f+1       6Mg2f+2       6Mg2f+3       6Mg3f-3       6Mg3f-2       6Mg3f-1       6Mg3f0        6Mg3f+1       6Mg3f+2   
   89    6Mg3f+3       6Mg4f-3       6Mg4f-2       6Mg4f-1       6Mg4f0        6Mg4f+1       6Mg4f+2       6Mg4f+3       6Mg1g-4       6Mg1g-3   
   90    6Mg1g-2       6Mg1g-1       6Mg1g0        6Mg1g+1       6Mg1g+2       6Mg1g+3       6Mg1g+4       7Mg1s         7Mg2s         7Mg3s     
   91    7Mg4s         7Mg5s         7Mg6s         7Mg7s         7Mg8s         7Mg9s         7Mg10s        7Mg11s        7Mg12s        7Mg13s    
   92    7Mg1pz        7Mg1py        7Mg1px        7Mg2pz        7Mg2py        7Mg2px        7Mg3pz        7Mg3py        7Mg3px        7Mg4pz    
   93    7Mg4py        7Mg4px        7Mg5pz        7Mg5py        7Mg5px        7Mg6pz        7Mg6py        7Mg6px        7Mg7pz        7Mg7py    
   94    7Mg7px        7Mg8pz        7Mg8py        7Mg8px        7Mg9pz        7Mg9py        7Mg9px        7Mg1d-2       7Mg1d-1       7Mg1d0    
   95    7Mg1d+1       7Mg1d+2       7Mg2d-2       7Mg2d-1       7Mg2d0        7Mg2d+1       7Mg2d+2       7Mg3d-2       7Mg3d-1       7Mg3d0    
   96    7Mg3d+1       7Mg3d+2       7Mg4d-2       7Mg4d-1       7Mg4d0        7Mg4d+1       7Mg4d+2       7Mg5d-2       7Mg5d-1       7Mg5d0    
   97    7Mg5d+1       7Mg5d+2       7Mg6d-2       7Mg6d-1       7Mg6d0        7Mg6d+1       7Mg6d+2       7Mg7d-2       7Mg7d-1       7Mg7d0    
   98    7Mg7d+1       7Mg7d+2       7Mg1f-3       7Mg1f-2       7Mg1f-1       7Mg1f0        7Mg1f+1       7Mg1f+2       7Mg1f+3       7Mg2f-3   
   99    7Mg2f-2       7Mg2f-1       7Mg2f0        7Mg2f+1       7Mg2f+2       7Mg2f+3       7Mg3f-3       7Mg3f-2       7Mg3f-1       7Mg3f0    
  100    7Mg3f+1       7Mg3f+2       7Mg3f+3       7Mg4f-3       7Mg4f-2       7Mg4f-1       7Mg4f0        7Mg4f+1       7Mg4f+2       7Mg4f+3   
  101    7Mg1g-4       7Mg1g-3       7Mg1g-2       7Mg1g-1       7Mg1g0        7Mg1g+1       7Mg1g+2       7Mg1g+3       7Mg1g+4       8Mg1s     
  102    8Mg2s         8Mg3s         8Mg4s         8Mg5s         8Mg6s         8Mg7s         8Mg8s         8Mg9s         8Mg10s        8Mg11s    
  103    8Mg12s        8Mg13s        8Mg1pz        8Mg1py        8Mg1px        8Mg2pz        8Mg2py        8Mg2px        8Mg3pz        8Mg3py    
  104    8Mg3px        8Mg4pz        8Mg4py        8Mg4px        8Mg5pz        8Mg5py        8Mg5px        8Mg6pz        8Mg6py        8Mg6px    
  105    8Mg7pz        8Mg7py        8Mg7px        8Mg8pz        8Mg8py        8Mg8px        8Mg9pz        8Mg9py        8Mg9px        8Mg1d-2   
  106    8Mg1d-1       8Mg1d0        8Mg1d+1       8Mg1d+2       8Mg2d-2       8Mg2d-1       8Mg2d0        8Mg2d+1       8Mg2d+2       8Mg3d-2   
  107    8Mg3d-1       8Mg3d0        8Mg3d+1       8Mg3d+2       8Mg4d-2       8Mg4d-1       8Mg4d0        8Mg4d+1       8Mg4d+2       8Mg5d-2   
  108    8Mg5d-1       8Mg5d0        8Mg5d+1       8Mg5d+2       8Mg6d-2       8Mg6d-1       8Mg6d0        8Mg6d+1       8Mg6d+2       8Mg7d-2   
  109    8Mg7d-1       8Mg7d0        8Mg7d+1       8Mg7d+2       8Mg1f-3       8Mg1f-2       8Mg1f-1       8Mg1f0        8Mg1f+1       8Mg1f+2   
  110    8Mg1f+3       8Mg2f-3       8Mg2f-2       8Mg2f-1       8Mg2f0        8Mg2f+1       8Mg2f+2       8Mg2f+3       8Mg3f-3       8Mg3f-2   
  111    8Mg3f-1       8Mg3f0        8Mg3f+1       8Mg3f+2       8Mg3f+3       8Mg4f-3       8Mg4f-2       8Mg4f-1       8Mg4f0        8Mg4f+1   
  112    8Mg4f+2       8Mg4f+3       8Mg1g-4       8Mg1g-3       8Mg1g-2       8Mg1g-1       8Mg1g0        8Mg1g+1       8Mg1g+2       8Mg1g+3   
  113    8Mg1g+4       9O1s          9O2s          9O3s          9O4s          9O5s          9O6s          9O7s          9O8s          9O9s      
  114    9O10s         9O1pz         9O1py         9O1px         9O2pz         9O2py         9O2px         9O3pz         9O3py         9O3px     
  115    9O4pz         9O4py         9O4px         9O5pz         9O5py         9O5px         9O6pz         9O6py         9O6px         9O7pz     
  116    9O7py         9O7px         9O8pz         9O8py         9O8px         9O1d-2        9O1d-1        9O1d0         9O1d+1        9O1d+2    
  117    9O2d-2        9O2d-1        9O2d0         9O2d+1        9O2d+2        9O3d-2        9O3d-1        9O3d0         9O3d+1        9O3d+2    
  118    9O4d-2        9O4d-1        9O4d0         9O4d+1        9O4d+2        9O1f-3        9O1f-2        9O1f-1        9O1f0         9O1f+1    
  119    9O1f+2        9O1f+3        9O2f-3        9O2f-2        9O2f-1        9O2f0         9O2f+1        9O2f+2        9O2f+3        9O1g-4    
  120    9O1g-3        9O1g-2        9O1g-1        9O1g0         9O1g+1        9O1g+2        9O1g+3        9O1g+4       10O1s         10O2s      
  121   10O3s         10O4s         10O5s         10O6s         10O7s         10O8s         10O9s         10O10s        10O1pz        10O1py     
  122   10O1px        10O2pz        10O2py        10O2px        10O3pz        10O3py        10O3px        10O4pz        10O4py        10O4px     
  123   10O5pz        10O5py        10O5px        10O6pz        10O6py        10O6px        10O7pz        10O7py        10O7px        10O8pz     
  124   10O8py        10O8px        10O1d-2       10O1d-1       10O1d0        10O1d+1       10O1d+2       10O2d-2       10O2d-1       10O2d0     
  125   10O2d+1       10O2d+2       10O3d-2       10O3d-1       10O3d0        10O3d+1       10O3d+2       10O4d-2       10O4d-1       10O4d0     
  126   10O4d+1       10O4d+2       10O1f-3       10O1f-2       10O1f-1       10O1f0        10O1f+1       10O1f+2       10O1f+3       10O2f-3    
  127   10O2f-2       10O2f-1       10O2f0        10O2f+1       10O2f+2       10O2f+3       10O1g-4       10O1g-3       10O1g-2       10O1g-1    
  128   10O1g0        10O1g+1       10O1g+2       10O1g+3       10O1g+4       11O1s         11O2s         11O3s         11O4s         11O5s      
  129   11O6s         11O7s         11O8s         11O9s         11O10s        11O1pz        11O1py        11O1px        11O2pz        11O2py     
  130   11O2px        11O3pz        11O3py        11O3px        11O4pz        11O4py        11O4px        11O5pz        11O5py        11O5px     
  131   11O6pz        11O6py        11O6px        11O7pz        11O7py        11O7px        11O8pz        11O8py        11O8px        11O1d-2    
  132   11O1d-1       11O1d0        11O1d+1       11O1d+2       11O2d-2       11O2d-1       11O2d0        11O2d+1       11O2d+2       11O3d-2    
  133   11O3d-1       11O3d0        11O3d+1       11O3d+2       11O4d-2       11O4d-1       11O4d0        11O4d+1       11O4d+2       11O1f-3    
  134   11O1f-2       11O1f-1       11O1f0        11O1f+1       11O1f+2       11O1f+3       11O2f-3       11O2f-2       11O2f-1       11O2f0     
  135   11O2f+1       11O2f+2       11O2f+3       11O1g-4       11O1g-3       11O1g-2       11O1g-1       11O1g0        11O1g+1       11O1g+2    
  136   11O1g+3       11O1g+4       12O1s         12O2s         12O3s         12O4s         12O5s         12O6s         12O7s         12O8s      
  137   12O9s         12O10s        12O1pz        12O1py        12O1px        12O2pz        12O2py        12O2px        12O3pz        12O3py     
  138   12O3px        12O4pz        12O4py        12O4px        12O5pz        12O5py        12O5px        12O6pz        12O6py        12O6px     
  139   12O7pz        12O7py        12O7px        12O8pz        12O8py        12O8px        12O1d-2       12O1d-1       12O1d0        12O1d+1    
  140   12O1d+2       12O2d-2       12O2d-1       12O2d0        12O2d+1       12O2d+2       12O3d-2       12O3d-1       12O3d0        12O3d+1    
  141   12O3d+2       12O4d-2       12O4d-1       12O4d0        12O4d+1       12O4d+2       12O1f-3       12O1f-2       12O1f-1       12O1f0     
  142   12O1f+1       12O1f+2       12O1f+3       12O2f-3       12O2f-2       12O2f-1       12O2f0        12O2f+1       12O2f+2       12O2f+3    
  143   12O1g-4       12O1g-3       12O1g-2       12O1g-1       12O1g0        12O1g+1       12O1g+2       12O1g+3       12O1g+4       13O1s      
  144   13O2s         13O3s         13O4s         13O5s         13O6s         13O7s         13O8s         13O9s         13O10s        13O1pz     
  145   13O1py        13O1px        13O2pz        13O2py        13O2px        13O3pz        13O3py        13O3px        13O4pz        13O4py     
  146   13O4px        13O5pz        13O5py        13O5px        13O6pz        13O6py        13O6px        13O7pz        13O7py        13O7px     
  147   13O8pz        13O8py        13O8px        13O1d-2       13O1d-1       13O1d0        13O1d+1       13O1d+2       13O2d-2       13O2d-1    
  148   13O2d0        13O2d+1       13O2d+2       13O3d-2       13O3d-1       13O3d0        13O3d+1       13O3d+2       13O4d-2       13O4d-1    
  149   13O4d0        13O4d+1       13O4d+2       13O1f-3       13O1f-2       13O1f-1       13O1f0        13O1f+1       13O1f+2       13O1f+3    
  150   13O2f-3       13O2f-2       13O2f-1       13O2f0        13O2f+1       13O2f+2       13O2f+3       13O1g-4       13O1g-3       13O1g-2    
  151   13O1g-1       13O1g0        13O1g+1       13O1g+2       13O1g+3       13O1g+4       14O1s         14O2s         14O3s         14O4s      
  152   14O5s         14O6s         14O7s         14O8s         14O9s         14O10s        14O1pz        14O1py        14O1px        14O2pz     
  153   14O2py        14O2px        14O3pz        14O3py        14O3px        14O4pz        14O4py        14O4px        14O5pz        14O5py     
  154   14O5px        14O6pz        14O6py        14O6px        14O7pz        14O7py        14O7px        14O8pz        14O8py        14O8px     
  155   14O1d-2       14O1d-1       14O1d0        14O1d+1       14O1d+2       14O2d-2       14O2d-1       14O2d0        14O2d+1       14O2d+2    
  156   14O3d-2       14O3d-1       14O3d0        14O3d+1       14O3d+2       14O4d-2       14O4d-1       14O4d0        14O4d+1       14O4d+2    
  157   14O1f-3       14O1f-2       14O1f-1       14O1f0        14O1f+1       14O1f+2       14O1f+3       14O2f-3       14O2f-2       14O2f-1    
  158   14O2f0        14O2f+1       14O2f+2       14O2f+3       14O1g-4       14O1g-3       14O1g-2       14O1g-1       14O1g0        14O1g+1    
  159   14O1g+2       14O1g+3       14O1g+4       15O1s         15O2s         15O3s         15O4s         15O5s         15O6s         15O7s      
  160   15O8s         15O9s         15O10s        15O1pz        15O1py        15O1px        15O2pz        15O2py        15O2px        15O3pz     
  161   15O3py        15O3px        15O4pz        15O4py        15O4px        15O5pz        15O5py        15O5px        15O6pz        15O6py     
  162   15O6px        15O7pz        15O7py        15O7px        15O8pz        15O8py        15O8px        15O1d-2       15O1d-1       15O1d0     
  163   15O1d+1       15O1d+2       15O2d-2       15O2d-1       15O2d0        15O2d+1       15O2d+2       15O3d-2       15O3d-1       15O3d0     
  164   15O3d+1       15O3d+2       15O4d-2       15O4d-1       15O4d0        15O4d+1       15O4d+2       15O1f-3       15O1f-2       15O1f-1    
  165   15O1f0        15O1f+1       15O1f+2       15O1f+3       15O2f-3       15O2f-2       15O2f-1       15O2f0        15O2f+1       15O2f+2    
  166   15O2f+3       15O1g-4       15O1g-3       15O1g-2       15O1g-1       15O1g0        15O1g+1       15O1g+2       15O1g+3       15O1g+4    
  167   16O1s         16O2s         16O3s         16O4s         16O5s         16O6s         16O7s         16O8s         16O9s         16O10s     
  168   16O1pz        16O1py        16O1px        16O2pz        16O2py        16O2px        16O3pz        16O3py        16O3px        16O4pz     
  169   16O4py        16O4px        16O5pz        16O5py        16O5px        16O6pz        16O6py        16O6px        16O7pz        16O7py     
  170   16O7px        16O8pz        16O8py        16O8px        16O1d-2       16O1d-1       16O1d0        16O1d+1       16O1d+2       16O2d-2    
  171   16O2d-1       16O2d0        16O2d+1       16O2d+2       16O3d-2       16O3d-1       16O3d0        16O3d+1       16O3d+2       16O4d-2    
  172   16O4d-1       16O4d0        16O4d+1       16O4d+2       16O1f-3       16O1f-2       16O1f-1       16O1f0        16O1f+1       16O1f+2    
  173   16O1f+3       16O2f-3       16O2f-2       16O2f-1       16O2f0        16O2f+1       16O2f+2       16O2f+3       16O1g-4       16O1g-3    
  174   16O1g-2       16O1g-1       16O1g0        16O1g+1       16O1g+2       16O1g+3       16O1g+4       17Mg1s        17Mg2s        17Mg3s     
  175   17Mg4s        17Mg5s        17Mg6s        17Mg7s        17Mg8s        17Mg9s        17Mg10s       17Mg11s       17Mg12s       17Mg13s    
  176   17Mg1pz       17Mg1py       17Mg1px       17Mg2pz       17Mg2py       17Mg2px       17Mg3pz       17Mg3py       17Mg3px       17Mg4pz    
  177   17Mg4py       17Mg4px       17Mg5pz       17Mg5py       17Mg5px       17Mg6pz       17Mg6py       17Mg6px       17Mg7pz       17Mg7py    
  178   17Mg7px       17Mg8pz       17Mg8py       17Mg8px       17Mg9pz       17Mg9py       17Mg9px       17Mg1d-2      17Mg1d-1      17Mg1d0    
  179   17Mg1d+1      17Mg1d+2      17Mg2d-2      17Mg2d-1      17Mg2d0       17Mg2d+1      17Mg2d+2      17Mg3d-2      17Mg3d-1      17Mg3d0    
  180   17Mg3d+1      17Mg3d+2      17Mg4d-2      17Mg4d-1      17Mg4d0       17Mg4d+1      17Mg4d+2      17Mg5d-2      17Mg5d-1      17Mg5d0    
  181   17Mg5d+1      17Mg5d+2      17Mg6d-2      17Mg6d-1      17Mg6d0       17Mg6d+1      17Mg6d+2      17Mg7d-2      17Mg7d-1      17Mg7d0    
  182   17Mg7d+1      17Mg7d+2      17Mg1f-3      17Mg1f-2      17Mg1f-1      17Mg1f0       17Mg1f+1      17Mg1f+2      17Mg1f+3      17Mg2f-3   
  183   17Mg2f-2      17Mg2f-1      17Mg2f0       17Mg2f+1      17Mg2f+2      17Mg2f+3      17Mg3f-3      17Mg3f-2      17Mg3f-1      17Mg3f0    
  184   17Mg3f+1      17Mg3f+2      17Mg3f+3      17Mg4f-3      17Mg4f-2      17Mg4f-1      17Mg4f0       17Mg4f+1      17Mg4f+2      17Mg4f+3   
  185   17Mg1g-4      17Mg1g-3      17Mg1g-2      17Mg1g-1      17Mg1g0       17Mg1g+1      17Mg1g+2      17Mg1g+3      17Mg1g+4      18Mg1s     
  186   18Mg2s        18Mg3s        18Mg4s        18Mg5s        18Mg6s        18Mg7s        18Mg8s        18Mg9s        18Mg10s       18Mg11s    
  187   18Mg12s       18Mg13s       18Mg1pz       18Mg1py       18Mg1px       18Mg2pz       18Mg2py       18Mg2px       18Mg3pz       18Mg3py    
  188   18Mg3px       18Mg4pz       18Mg4py       18Mg4px       18Mg5pz       18Mg5py       18Mg5px       18Mg6pz       18Mg6py       18Mg6px    
  189   18Mg7pz       18Mg7py       18Mg7px       18Mg8pz       18Mg8py       18Mg8px       18Mg9pz       18Mg9py       18Mg9px       18Mg1d-2   
  190   18Mg1d-1      18Mg1d0       18Mg1d+1      18Mg1d+2      18Mg2d-2      18Mg2d-1      18Mg2d0       18Mg2d+1      18Mg2d+2      18Mg3d-2   
  191   18Mg3d-1      18Mg3d0       18Mg3d+1      18Mg3d+2      18Mg4d-2      18Mg4d-1      18Mg4d0       18Mg4d+1      18Mg4d+2      18Mg5d-2   
  192   18Mg5d-1      18Mg5d0       18Mg5d+1      18Mg5d+2      18Mg6d-2      18Mg6d-1      18Mg6d0       18Mg6d+1      18Mg6d+2      18Mg7d-2   
  193   18Mg7d-1      18Mg7d0       18Mg7d+1      18Mg7d+2      18Mg1f-3      18Mg1f-2      18Mg1f-1      18Mg1f0       18Mg1f+1      18Mg1f+2   
  194   18Mg1f+3      18Mg2f-3      18Mg2f-2      18Mg2f-1      18Mg2f0       18Mg2f+1      18Mg2f+2      18Mg2f+3      18Mg3f-3      18Mg3f-2   
  195   18Mg3f-1      18Mg3f0       18Mg3f+1      18Mg3f+2      18Mg3f+3      18Mg4f-3      18Mg4f-2      18Mg4f-1      18Mg4f0       18Mg4f+1   
  196   18Mg4f+2      18Mg4f+3      18Mg1g-4      18Mg1g-3      18Mg1g-2      18Mg1g-1      18Mg1g0       18Mg1g+1      18Mg1g+2      18Mg1g+3   
  197   18Mg1g+4      19Mg1s        19Mg2s        19Mg3s        19Mg4s        19Mg5s        19Mg6s        19Mg7s        19Mg8s        19Mg9s     
  198   19Mg10s       19Mg11s       19Mg12s       19Mg13s       19Mg1pz       19Mg1py       19Mg1px       19Mg2pz       19Mg2py       19Mg2px    
  199   19Mg3pz       19Mg3py       19Mg3px       19Mg4pz       19Mg4py       19Mg4px       19Mg5pz       19Mg5py       19Mg5px       19Mg6pz    
  200   19Mg6py       19Mg6px       19Mg7pz       19Mg7py       19Mg7px       19Mg8pz       19Mg8py       19Mg8px       19Mg9pz       19Mg9py    
  201   19Mg9px       19Mg1d-2      19Mg1d-1      19Mg1d0       19Mg1d+1      19Mg1d+2      19Mg2d-2      19Mg2d-1      19Mg2d0       19Mg2d+1   
  202   19Mg2d+2      19Mg3d-2      19Mg3d-1      19Mg3d0       19Mg3d+1      19Mg3d+2      19Mg4d-2      19Mg4d-1      19Mg4d0       19Mg4d+1   
  203   19Mg4d+2      19Mg5d-2      19Mg5d-1      19Mg5d0       19Mg5d+1      19Mg5d+2      19Mg6d-2      19Mg6d-1      19Mg6d0       19Mg6d+1   
  204   19Mg6d+2      19Mg7d-2      19Mg7d-1      19Mg7d0       19Mg7d+1      19Mg7d+2      19Mg1f-3      19Mg1f-2      19Mg1f-1      19Mg1f0    
  205   19Mg1f+1      19Mg1f+2      19Mg1f+3      19Mg2f-3      19Mg2f-2      19Mg2f-1      19Mg2f0       19Mg2f+1      19Mg2f+2      19Mg2f+3   
  206   19Mg3f-3      19Mg3f-2      19Mg3f-1      19Mg3f0       19Mg3f+1      19Mg3f+2      19Mg3f+3      19Mg4f-3      19Mg4f-2      19Mg4f-1   
  207   19Mg4f0       19Mg4f+1      19Mg4f+2      19Mg4f+3      19Mg1g-4      19Mg1g-3      19Mg1g-2      19Mg1g-1      19Mg1g0       19Mg1g+1   
  208   19Mg1g+2      19Mg1g+3      19Mg1g+4      20O1s         20O2s         20O3s         20O4s         20O5s         20O6s         20O7s      
  209   20O8s         20O9s         20O10s        20O1pz        20O1py        20O1px        20O2pz        20O2py        20O2px        20O3pz     
  210   20O3py        20O3px        20O4pz        20O4py        20O4px        20O5pz        20O5py        20O5px        20O6pz        20O6py     
  211   20O6px        20O7pz        20O7py        20O7px        20O8pz        20O8py        20O8px        20O1d-2       20O1d-1       20O1d0     
  212   20O1d+1       20O1d+2       20O2d-2       20O2d-1       20O2d0        20O2d+1       20O2d+2       20O3d-2       20O3d-1       20O3d0     
  213   20O3d+1       20O3d+2       20O4d-2       20O4d-1       20O4d0        20O4d+1       20O4d+2       20O1f-3       20O1f-2       20O1f-1    
  214   20O1f0        20O1f+1       20O1f+2       20O1f+3       20O2f-3       20O2f-2       20O2f-1       20O2f0        20O2f+1       20O2f+2    
  215   20O2f+3       20O1g-4       20O1g-3       20O1g-2       20O1g-1       20O1g0        20O1g+1       20O1g+2       20O1g+3       20O1g+4    
  216   21O1s         21O2s         21O3s         21O4s         21O5s         21O6s         21O7s         21O8s         21O9s         21O10s     
  217   21O1pz        21O1py        21O1px        21O2pz        21O2py        21O2px        21O3pz        21O3py        21O3px        21O4pz     
  218   21O4py        21O4px        21O5pz        21O5py        21O5px        21O6pz        21O6py        21O6px        21O7pz        21O7py     
  219   21O7px        21O8pz        21O8py        21O8px        21O1d-2       21O1d-1       21O1d0        21O1d+1       21O1d+2       21O2d-2    
  220   21O2d-1       21O2d0        21O2d+1       21O2d+2       21O3d-2       21O3d-1       21O3d0        21O3d+1       21O3d+2       21O4d-2    
  221   21O4d-1       21O4d0        21O4d+1       21O4d+2       21O1f-3       21O1f-2       21O1f-1       21O1f0        21O1f+1       21O1f+2    
  222   21O1f+3       21O2f-3       21O2f-2       21O2f-1       21O2f0        21O2f+1       21O2f+2       21O2f+3       21O1g-4       21O1g-3    
  223   21O1g-2       21O1g-1       21O1g0        21O1g+1       21O1g+2       21O1g+3       21O1g+4       22O1s         22O2s         22O3s      
  224   22O4s         22O5s         22O6s         22O7s         22O8s         22O9s         22O10s        22O1pz        22O1py        22O1px     
  225   22O2pz        22O2py        22O2px        22O3pz        22O3py        22O3px        22O4pz        22O4py        22O4px        22O5pz     
  226   22O5py        22O5px        22O6pz        22O6py        22O6px        22O7pz        22O7py        22O7px        22O8pz        22O8py     
  227   22O8px        22O1d-2       22O1d-1       22O1d0        22O1d+1       22O1d+2       22O2d-2       22O2d-1       22O2d0        22O2d+1    
  228   22O2d+2       22O3d-2       22O3d-1       22O3d0        22O3d+1       22O3d+2       22O4d-2       22O4d-1       22O4d0        22O4d+1    
  229   22O4d+2       22O1f-3       22O1f-2       22O1f-1       22O1f0        22O1f+1       22O1f+2       22O1f+3       22O2f-3       22O2f-2    
  230   22O2f-1       22O2f0        22O2f+1       22O2f+2       22O2f+3       22O1g-4       22O1g-3       22O1g-2       22O1g-1       22O1g0     
  231   22O1g+1       22O1g+2       22O1g+3       22O1g+4       23O1s         23O2s         23O3s         23O4s         23O5s         23O6s      
  232   23O7s         23O8s         23O9s         23O10s        23O1pz        23O1py        23O1px        23O2pz        23O2py        23O2px     
  233   23O3pz        23O3py        23O3px        23O4pz        23O4py        23O4px        23O5pz        23O5py        23O5px        23O6pz     
  234   23O6py        23O6px        23O7pz        23O7py        23O7px        23O8pz        23O8py        23O8px        23O1d-2       23O1d-1    
  235   23O1d0        23O1d+1       23O1d+2       23O2d-2       23O2d-1       23O2d0        23O2d+1       23O2d+2       23O3d-2       23O3d-1    
  236   23O3d0        23O3d+1       23O3d+2       23O4d-2       23O4d-1       23O4d0        23O4d+1       23O4d+2       23O1f-3       23O1f-2    
  237   23O1f-1       23O1f0        23O1f+1       23O1f+2       23O1f+3       23O2f-3       23O2f-2       23O2f-1       23O2f0        23O2f+1    
  238   23O2f+2       23O2f+3       23O1g-4       23O1g-3       23O1g-2       23O1g-1       23O1g0        23O1g+1       23O1g+2       23O1g+3    
  239   23O1g+4       24Mg1s        24Mg2s        24Mg3s        24Mg4s        24Mg5s        24Mg6s        24Mg7s        24Mg8s        24Mg9s     
  240   24Mg10s       24Mg11s       24Mg12s       24Mg13s       24Mg1pz       24Mg1py       24Mg1px       24Mg2pz       24Mg2py       24Mg2px    
  241   24Mg3pz       24Mg3py       24Mg3px       24Mg4pz       24Mg4py       24Mg4px       24Mg5pz       24Mg5py       24Mg5px       24Mg6pz    
  242   24Mg6py       24Mg6px       24Mg7pz       24Mg7py       24Mg7px       24Mg8pz       24Mg8py       24Mg8px       24Mg9pz       24Mg9py    
  243   24Mg9px       24Mg1d-2      24Mg1d-1      24Mg1d0       24Mg1d+1      24Mg1d+2      24Mg2d-2      24Mg2d-1      24Mg2d0       24Mg2d+1   
  244   24Mg2d+2      24Mg3d-2      24Mg3d-1      24Mg3d0       24Mg3d+1      24Mg3d+2      24Mg4d-2      24Mg4d-1      24Mg4d0       24Mg4d+1   
  245   24Mg4d+2      24Mg5d-2      24Mg5d-1      24Mg5d0       24Mg5d+1      24Mg5d+2      24Mg6d-2      24Mg6d-1      24Mg6d0       24Mg6d+1   
  246   24Mg6d+2      24Mg7d-2      24Mg7d-1      24Mg7d0       24Mg7d+1      24Mg7d+2      24Mg1f-3      24Mg1f-2      24Mg1f-1      24Mg1f0    
  247   24Mg1f+1      24Mg1f+2      24Mg1f+3      24Mg2f-3      24Mg2f-2      24Mg2f-1      24Mg2f0       24Mg2f+1      24Mg2f+2      24Mg2f+3   
  248   24Mg3f-3      24Mg3f-2      24Mg3f-1      24Mg3f0       24Mg3f+1      24Mg3f+2      24Mg3f+3      24Mg4f-3      24Mg4f-2      24Mg4f-1   
  249   24Mg4f0       24Mg4f+1      24Mg4f+2      24Mg4f+3      24Mg1g-4      24Mg1g-3      24Mg1g-2      24Mg1g-1      24Mg1g0       24Mg1g+1   
  250   24Mg1g+2      24Mg1g+3      24Mg1g+4      25Mg1s        25Mg2s        25Mg3s        25Mg4s        25Mg5s        25Mg6s        25Mg7s     
  251   25Mg8s        25Mg9s        25Mg10s       25Mg11s       25Mg12s       25Mg13s       25Mg1pz       25Mg1py       25Mg1px       25Mg2pz    
  252   25Mg2py       25Mg2px       25Mg3pz       25Mg3py       25Mg3px       25Mg4pz       25Mg4py       25Mg4px       25Mg5pz       25Mg5py    
  253   25Mg5px       25Mg6pz       25Mg6py       25Mg6px       25Mg7pz       25Mg7py       25Mg7px       25Mg8pz       25Mg8py       25Mg8px    
  254   25Mg9pz       25Mg9py       25Mg9px       25Mg1d-2      25Mg1d-1      25Mg1d0       25Mg1d+1      25Mg1d+2      25Mg2d-2      25Mg2d-1   
  255   25Mg2d0       25Mg2d+1      25Mg2d+2      25Mg3d-2      25Mg3d-1      25Mg3d0       25Mg3d+1      25Mg3d+2      25Mg4d-2      25Mg4d-1   
  256   25Mg4d0       25Mg4d+1      25Mg4d+2      25Mg5d-2      25Mg5d-1      25Mg5d0       25Mg5d+1      25Mg5d+2      25Mg6d-2      25Mg6d-1   
  257   25Mg6d0       25Mg6d+1      25Mg6d+2      25Mg7d-2      25Mg7d-1      25Mg7d0       25Mg7d+1      25Mg7d+2      25Mg1f-3      25Mg1f-2   
  258   25Mg1f-1      25Mg1f0       25Mg1f+1      25Mg1f+2      25Mg1f+3      25Mg2f-3      25Mg2f-2      25Mg2f-1      25Mg2f0       25Mg2f+1   
  259   25Mg2f+2      25Mg2f+3      25Mg3f-3      25Mg3f-2      25Mg3f-1      25Mg3f0       25Mg3f+1      25Mg3f+2      25Mg3f+3      25Mg4f-3   
  260   25Mg4f-2      25Mg4f-1      25Mg4f0       25Mg4f+1      25Mg4f+2      25Mg4f+3      25Mg1g-4      25Mg1g-3      25Mg1g-2      25Mg1g-1   
  261   25Mg1g0       25Mg1g+1      25Mg1g+2      25Mg1g+3      25Mg1g+4      26Mg1s        26Mg2s        26Mg3s        26Mg4s        26Mg5s     
  262   26Mg6s        26Mg7s        26Mg8s        26Mg9s        26Mg10s       26Mg11s       26Mg12s       26Mg13s       26Mg1pz       26Mg1py    
  263   26Mg1px       26Mg2pz       26Mg2py       26Mg2px       26Mg3pz       26Mg3py       26Mg3px       26Mg4pz       26Mg4py       26Mg4px    
  264   26Mg5pz       26Mg5py       26Mg5px       26Mg6pz       26Mg6py       26Mg6px       26Mg7pz       26Mg7py       26Mg7px       26Mg8pz    
  265   26Mg8py       26Mg8px       26Mg9pz       26Mg9py       26Mg9px       26Mg1d-2      26Mg1d-1      26Mg1d0       26Mg1d+1      26Mg1d+2   
  266   26Mg2d-2      26Mg2d-1      26Mg2d0       26Mg2d+1      26Mg2d+2      26Mg3d-2      26Mg3d-1      26Mg3d0       26Mg3d+1      26Mg3d+2   
  267   26Mg4d-2      26Mg4d-1      26Mg4d0       26Mg4d+1      26Mg4d+2      26Mg5d-2      26Mg5d-1      26Mg5d0       26Mg5d+1      26Mg5d+2   
  268   26Mg6d-2      26Mg6d-1      26Mg6d0       26Mg6d+1      26Mg6d+2      26Mg7d-2      26Mg7d-1      26Mg7d0       26Mg7d+1      26Mg7d+2   
  269   26Mg1f-3      26Mg1f-2      26Mg1f-1      26Mg1f0       26Mg1f+1      26Mg1f+2      26Mg1f+3      26Mg2f-3      26Mg2f-2      26Mg2f-1   
  270   26Mg2f0       26Mg2f+1      26Mg2f+2      26Mg2f+3      26Mg3f-3      26Mg3f-2      26Mg3f-1      26Mg3f0       26Mg3f+1      26Mg3f+2   
  271   26Mg3f+3      26Mg4f-3      26Mg4f-2      26Mg4f-1      26Mg4f0       26Mg4f+1      26Mg4f+2      26Mg4f+3      26Mg1g-4      26Mg1g-3   
  272   26Mg1g-2      26Mg1g-1      26Mg1g0       26Mg1g+1      26Mg1g+2      26Mg1g+3      26Mg1g+4      27Mg1s        27Mg2s        27Mg3s     
  273   27Mg4s        27Mg5s        27Mg6s        27Mg7s        27Mg8s        27Mg9s        27Mg10s       27Mg11s       27Mg12s       27Mg13s    
  274   27Mg1pz       27Mg1py       27Mg1px       27Mg2pz       27Mg2py       27Mg2px       27Mg3pz       27Mg3py       27Mg3px       27Mg4pz    
  275   27Mg4py       27Mg4px       27Mg5pz       27Mg5py       27Mg5px       27Mg6pz       27Mg6py       27Mg6px       27Mg7pz       27Mg7py    
  276   27Mg7px       27Mg8pz       27Mg8py       27Mg8px       27Mg9pz       27Mg9py       27Mg9px       27Mg1d-2      27Mg1d-1      27Mg1d0    
  277   27Mg1d+1      27Mg1d+2      27Mg2d-2      27Mg2d-1      27Mg2d0       27Mg2d+1      27Mg2d+2      27Mg3d-2      27Mg3d-1      27Mg3d0    
  278   27Mg3d+1      27Mg3d+2      27Mg4d-2      27Mg4d-1      27Mg4d0       27Mg4d+1      27Mg4d+2      27Mg5d-2      27Mg5d-1      27Mg5d0    
  279   27Mg5d+1      27Mg5d+2      27Mg6d-2      27Mg6d-1      27Mg6d0       27Mg6d+1      27Mg6d+2      27Mg7d-2      27Mg7d-1      27Mg7d0    
  280   27Mg7d+1      27Mg7d+2      27Mg1f-3      27Mg1f-2      27Mg1f-1      27Mg1f0       27Mg1f+1      27Mg1f+2      27Mg1f+3      27Mg2f-3   
  281   27Mg2f-2      27Mg2f-1      27Mg2f0       27Mg2f+1      27Mg2f+2      27Mg2f+3      27Mg3f-3      27Mg3f-2      27Mg3f-1      27Mg3f0    
  282   27Mg3f+1      27Mg3f+2      27Mg3f+3      27Mg4f-3      27Mg4f-2      27Mg4f-1      27Mg4f0       27Mg4f+1      27Mg4f+2      27Mg4f+3   
  283   27Mg1g-4      27Mg1g-3      27Mg1g-2      27Mg1g-1      27Mg1g0       27Mg1g+1      27Mg1g+2      27Mg1g+3      27Mg1g+4      28Mg1s     
  284   28Mg2s        28Mg3s        28Mg4s        28Mg5s        28Mg6s        28Mg7s        28Mg8s        28Mg9s        28Mg10s       28Mg11s    
  285   28Mg12s       28Mg13s       28Mg1pz       28Mg1py       28Mg1px       28Mg2pz       28Mg2py       28Mg2px       28Mg3pz       28Mg3py    
  286   28Mg3px       28Mg4pz       28Mg4py       28Mg4px       28Mg5pz       28Mg5py       28Mg5px       28Mg6pz       28Mg6py       28Mg6px    
  287   28Mg7pz       28Mg7py       28Mg7px       28Mg8pz       28Mg8py       28Mg8px       28Mg9pz       28Mg9py       28Mg9px       28Mg1d-2   
  288   28Mg1d-1      28Mg1d0       28Mg1d+1      28Mg1d+2      28Mg2d-2      28Mg2d-1      28Mg2d0       28Mg2d+1      28Mg2d+2      28Mg3d-2   
  289   28Mg3d-1      28Mg3d0       28Mg3d+1      28Mg3d+2      28Mg4d-2      28Mg4d-1      28Mg4d0       28Mg4d+1      28Mg4d+2      28Mg5d-2   
  290   28Mg5d-1      28Mg5d0       28Mg5d+1      28Mg5d+2      28Mg6d-2      28Mg6d-1      28Mg6d0       28Mg6d+1      28Mg6d+2      28Mg7d-2   
  291   28Mg7d-1      28Mg7d0       28Mg7d+1      28Mg7d+2      28Mg1f-3      28Mg1f-2      28Mg1f-1      28Mg1f0       28Mg1f+1      28Mg1f+2   
  292   28Mg1f+3      28Mg2f-3      28Mg2f-2      28Mg2f-1      28Mg2f0       28Mg2f+1      28Mg2f+2      28Mg2f+3      28Mg3f-3      28Mg3f-2   
  293   28Mg3f-1      28Mg3f0       28Mg3f+1      28Mg3f+2      28Mg3f+3      28Mg4f-3      28Mg4f-2      28Mg4f-1      28Mg4f0       28Mg4f+1   
  294   28Mg4f+2      28Mg4f+3      28Mg1g-4      28Mg1g-3      28Mg1g-2      28Mg1g-1      28Mg1g0       28Mg1g+1      28Mg1g+2      28Mg1g+3   
  295   28Mg1g+4      29Mg1s        29Mg2s        29Mg3s        29Mg4s        29Mg5s        29Mg6s        29Mg7s        29Mg8s        29Mg9s     
  296   29Mg10s       29Mg11s       29Mg12s       29Mg13s       29Mg1pz       29Mg1py       29Mg1px       29Mg2pz       29Mg2py       29Mg2px    
  297   29Mg3pz       29Mg3py       29Mg3px       29Mg4pz       29Mg4py       29Mg4px       29Mg5pz       29Mg5py       29Mg5px       29Mg6pz    
  298   29Mg6py       29Mg6px       29Mg7pz       29Mg7py       29Mg7px       29Mg8pz       29Mg8py       29Mg8px       29Mg9pz       29Mg9py    
  299   29Mg9px       29Mg1d-2      29Mg1d-1      29Mg1d0       29Mg1d+1      29Mg1d+2      29Mg2d-2      29Mg2d-1      29Mg2d0       29Mg2d+1   
  300   29Mg2d+2      29Mg3d-2      29Mg3d-1      29Mg3d0       29Mg3d+1      29Mg3d+2      29Mg4d-2      29Mg4d-1      29Mg4d0       29Mg4d+1   
  301   29Mg4d+2      29Mg5d-2      29Mg5d-1      29Mg5d0       29Mg5d+1      29Mg5d+2      29Mg6d-2      29Mg6d-1      29Mg6d0       29Mg6d+1   
  302   29Mg6d+2      29Mg7d-2      29Mg7d-1      29Mg7d0       29Mg7d+1      29Mg7d+2      29Mg1f-3      29Mg1f-2      29Mg1f-1      29Mg1f0    
  303   29Mg1f+1      29Mg1f+2      29Mg1f+3      29Mg2f-3      29Mg2f-2      29Mg2f-1      29Mg2f0       29Mg2f+1      29Mg2f+2      29Mg2f+3   
[...]
 
 Calculation of (T) correction...
 
 Laplace threshold, nquadmin:  1.00E-03   4
 Number of quadrature points:    4
 
      106.41 MB memory is utilized for (T)

 0%       25%       50%       75%       100%
 |---------|---------|---------|---------| 
 
 (T) correction [au]:                   -0.002009656776
 CCSD(T) correlation energy [au]:       -0.059632162531
 
 CPU time [min]:    62.511                   Wall time [min]:     3.433
 
 MO:     7
 Number of atoms in domain:      34
 Number of atomic orbitals:     754
 Number of atoms for local DF:   34
 Number of fitting functions:  2772 (100.00%)
 Number of occupied orbitals:    11
 Number of virtual  orbitals:   735
 Number of Cholesky vectors:      8
 MP2 energy in ED [au]:          -0.063021716651
 Number of occupied LNOs:        11 (100.00%)
 Number of virtual  LNOs:        68   (9.25%)
 tol*100>norm                    22  4.471143735323188E-004
 tol*100>norm                    76  4.471143817329716E-004
 Number of Cholesky vectors:      6
 MP2 energy in LIS [au]:         -0.062992156364
 Correction for frozen LNO [au]: -0.000029560287     (0.047%)
 Number of NAFs:                243   (8.77%)
 CPU time [min]:    72.241                   Wall time [min]:     3.974
 

 Direct DF-CCSD(T) calculation
 
 Convergence criterion:  1.0E-05
 
 Number of occupied/virtual/auxiliary orbitals:    11    68   243
     93.47 MB is the minimal memory requirement for (T)
     68.60 MB is the minimal memory requirement for CCSD
 
 MP2 correlation energy [au]:       -0.637445025005
 
 LMP2 domain correlation energy contribution [au]:       -0.063004301286
 
 CPU time [min]:    72.275                   Wall time [min]:     3.976
 
 
 Starting CCSD iterations...
 
                     Residual norm       Correlation Energy
 Iteration  1        0.185510683867       -0.566081967753
 Iteration  2        0.057653792790       -0.585632334566
 Iteration  3        0.017710372146       -0.588931306825
 Iteration  4        0.007339082617       -0.588045186554
 Iteration  5        0.003984834608       -0.587972331219
 Iteration  6        0.002062058047       -0.588227484999
 Iteration  7        0.000980447654       -0.588226699707
 Iteration  8        0.000341342674       -0.588192744713
 Iteration  9        0.000143781829       -0.588196407080
 Iteration 10        0.000046485222       -0.588197781253
 
 CCSD iteration has converged in 10 steps.
      146.75 MB memory was utilized by CCSD
 
 T1 diagnostic:      2.142E-02            D1 diagnostic:      6.594E-02
 
 T1 contribution [au]:                         0.000000000000
 CCSD correlation energy [au]:                -0.057666691261
 
 CPU time [min]:    72.780                   Wall time [min]:     4.003
 
 Calculation of (T) correction...
 
 Laplace threshold, nquadmin:  1.00E-03   4
 Number of quadrature points:    4
 
      109.21 MB memory is utilized for (T)

 0%       25%       50%       75%       100%
 |---------|---------|---------|---------| 
 
 (T) correction [au]:                   -0.002017814241
 CCSD(T) correlation energy [au]:       -0.059684505502
 
 CPU time [min]:    73.002                   Wall time [min]:     4.016
 
 MO:     8
 Number of atoms in domain:      34
 Number of atomic orbitals:     754
 Number of atoms for local DF:   34
 Number of fitting functions:  2772 (100.00%)
 Number of occupied orbitals:    11
 Number of virtual  orbitals:   735
 Number of Cholesky vectors:      8
 MP2 energy in ED [au]:          -0.063021720293
 Number of occupied LNOs:        11 (100.00%)
 Number of virtual  LNOs:        68   (9.25%)
 tol*100>norm                    22  4.471143735323187E-004
 tol*100>norm                    76  4.471143817329713E-004
 Number of Cholesky vectors:      6
 MP2 energy in LIS [au]:         -0.062992159462
 Correction for frozen LNO [au]: -0.000029560830     (0.047%)
 Number of NAFs:                243   (8.77%)
 CPU time [min]:    82.727                   Wall time [min]:     4.558
 

 Direct DF-CCSD(T) calculation
 
 Convergence criterion:  1.0E-05
 
 Number of occupied/virtual/auxiliary orbitals:    11    68   243
     93.47 MB is the minimal memory requirement for (T)
     68.60 MB is the minimal memory requirement for CCSD
 
 MP2 correlation energy [au]:       -0.637444325275
 
 LMP2 domain correlation energy contribution [au]:       -0.063004302194
 
 CPU time [min]:    82.761                   Wall time [min]:     4.559
 
 
 Starting CCSD iterations...
 
                     Residual norm       Correlation Energy
 Iteration  1        0.185510545496       -0.566081437414
 Iteration  2        0.057653571962       -0.585631692852
 Iteration  3        0.017710301217       -0.588930656694
 Iteration  4        0.007339034867       -0.588044539112
 Iteration  5        0.003984811121       -0.587971684320
 Iteration  6        0.002062054257       -0.588226841860
 Iteration  7        0.000980447687       -0.588226055720
 Iteration  8        0.000341343952       -0.588192099762
 Iteration  9        0.000143782164       -0.588195761947
 Iteration 10        0.000046485311       -0.588197136115
 
 CCSD iteration has converged in 10 steps.
      146.75 MB memory was utilized by CCSD
 
 T1 diagnostic:      2.142E-02            D1 diagnostic:      6.594E-02
 
 T1 contribution [au]:                         0.000000000000
 CCSD correlation energy [au]:                -0.057666687634
 
 CPU time [min]:    83.264                   Wall time [min]:     4.586
 
 Calculation of (T) correction...
 
 Laplace threshold, nquadmin:  1.00E-03   4
 Number of quadrature points:    4
 
      109.21 MB memory is utilized for (T)

 0%       25%       50%       75%       100%
 |---------|---------|---------|---------| 
 
 (T) correction [au]:                   -0.002017812749
 CCSD(T) correlation energy [au]:       -0.059684500383
 
 CPU time [min]:    83.497                   Wall time [min]:     4.600
 
 MO:     9
 Number of atoms in domain:      34
 Number of atomic orbitals:     754
 Number of atoms for local DF:   34
 Number of fitting functions:  2772 (100.00%)
 Number of occupied orbitals:    11
 Number of virtual  orbitals:   735
 Number of Cholesky vectors:      8
 MP2 energy in ED [au]:          -0.062989832058
 Number of occupied LNOs:        11 (100.00%)
 Number of virtual  LNOs:        68   (9.25%)
 tol*100>norm                    22  4.471143735323184E-004
 tol*100>norm                    76  4.471143817329720E-004
 Number of Cholesky vectors:      6
 MP2 energy in LIS [au]:         -0.062962027847
 Correction for frozen LNO [au]: -0.000027804211     (0.044%)
 Number of NAFs:                244   (8.80%)
 CPU time [min]:    93.220                   Wall time [min]:     5.127
 

 Direct DF-CCSD(T) calculation
 
 Convergence criterion:  1.0E-05
 
 Number of occupied/virtual/auxiliary orbitals:    11    68   244
     93.57 MB is the minimal memory requirement for (T)
     68.68 MB is the minimal memory requirement for CCSD
 
 MP2 correlation energy [au]:       -0.640077723505
 
 LMP2 domain correlation energy contribution [au]:       -0.062974973395
 
 CPU time [min]:    93.254                   Wall time [min]:     5.129
 
 
 Starting CCSD iterations...
 
                     Residual norm       Correlation Energy
 Iteration  1        0.186033749789       -0.568199507087
 Iteration  2        0.057945572132       -0.587856533048
 Iteration  3        0.017733484491       -0.591180736291
 Iteration  4        0.007362236734       -0.590286115524
 Iteration  5        0.003997798158       -0.590209670868
 Iteration  6        0.002074096204       -0.590468112493
 Iteration  7        0.000988200697       -0.590468709593
 Iteration  8        0.000345055172       -0.590433918563
 Iteration  9        0.000145134915       -0.590437657928
 Iteration 10        0.000046769064       -0.590439066357
 
 CCSD iteration has converged in 10 steps.
      146.81 MB memory was utilized by CCSD
 
 T1 diagnostic:      2.150E-02            D1 diagnostic:      6.585E-02
 
 T1 contribution [au]:                         0.000000000000
 CCSD correlation energy [au]:                -0.057641439670
 
 CPU time [min]:    93.785                   Wall time [min]:     5.157
 
 Calculation of (T) correction...
 
 Laplace threshold, nquadmin:  1.00E-03   4
 Number of quadrature points:    4
 
      109.28 MB memory is utilized for (T)

 0%       25%       50%       75%       100%
 |---------|---------|---------|---------| 
 
 (T) correction [au]:                   -0.002014940269
 CCSD(T) correlation energy [au]:       -0.059656379939
 
 CPU time [min]:    94.029                   Wall time [min]:     5.171
 
 MO:    10
 Number of atoms in domain:      34
 Number of atomic orbitals:     754
 Number of atoms for local DF:   34
 Number of fitting functions:  2772 (100.00%)
 Number of occupied orbitals:    11
 Number of virtual  orbitals:   735
 Number of Cholesky vectors:      8
 MP2 energy in ED [au]:          -0.062989829543
 Number of occupied LNOs:        11 (100.00%)
 Number of virtual  LNOs:        68   (9.25%)
 tol*100>norm                    22  4.471143735323185E-004
 tol*100>norm                    76  4.471143817329717E-004
 Number of Cholesky vectors:      6
 MP2 energy in LIS [au]:         -0.062962025397
 Correction for frozen LNO [au]: -0.000027804146     (0.044%)
 Number of NAFs:                244   (8.80%)
 CPU time [min]:   103.736                   Wall time [min]:     5.697
 

 Direct DF-CCSD(T) calculation
 
 Convergence criterion:  1.0E-05
 
 Number of occupied/virtual/auxiliary orbitals:    11    68   244
     93.57 MB is the minimal memory requirement for (T)
     68.68 MB is the minimal memory requirement for CCSD
 
 MP2 correlation energy [au]:       -0.640077656216
 
 LMP2 domain correlation energy contribution [au]:       -0.062974970285
 
 CPU time [min]:   103.770                   Wall time [min]:     5.699
 
 
 Starting CCSD iterations...
 
                     Residual norm       Correlation Energy
 Iteration  1        0.186033738728       -0.568199450955
 Iteration  2        0.057945567731       -0.587856475635
 Iteration  3        0.017733485423       -0.591180678619
 Iteration  4        0.007362236437       -0.590286057565
 Iteration  5        0.003997798163       -0.590209613493
 Iteration  6        0.002074095870       -0.590468055039
 Iteration  7        0.000988200558       -0.590468652008
 Iteration  8        0.000345055146       -0.590433860967
 Iteration  9        0.000145134895       -0.590437600372
 Iteration 10        0.000046769071       -0.590439008794
 
 CCSD iteration has converged in 10 steps.
      146.81 MB memory was utilized by CCSD
 
 T1 diagnostic:      2.150E-02            D1 diagnostic:      6.585E-02
 
 T1 contribution [au]:                         0.000000000000
 CCSD correlation energy [au]:                -0.057641437693
 
 CPU time [min]:   104.344                   Wall time [min]:     5.730
 
 Calculation of (T) correction...
 
 Laplace threshold, nquadmin:  1.00E-03   4
 Number of quadrature points:    4
 
      109.28 MB memory is utilized for (T)

 0%       25%       50%       75%       100%
 |---------|---------|---------|---------| 
 
 (T) correction [au]:                   -0.002014939838
 CCSD(T) correlation energy [au]:       -0.059656377530
 
 CPU time [min]:   104.585                   Wall time [min]:     5.743
 
 MO:    11
 Number of atoms in domain:      34
 Number of atomic orbitals:     754
 Number of atoms for local DF:   34
 Number of fitting functions:  2772 (100.00%)
 Number of occupied orbitals:    11
 Number of virtual  orbitals:   735
 Number of Cholesky vectors:      8
 MP2 energy in ED [au]:          -0.078476335167
 Number of occupied LNOs:        11 (100.00%)
 Number of virtual  LNOs:       103  (14.01%)
 tol*100>norm                    22  4.471143735323183E-004
 tol*100>norm                    76  4.471143817329717E-004
 Number of Cholesky vectors:      6
 MP2 energy in LIS [au]:         -0.078453745817
 Correction for frozen LNO [au]: -0.000022589349     (0.029%)
 Number of NAFs:                323  (11.65%)
 CPU time [min]:   117.164                   Wall time [min]:     6.438
 

 Direct DF-CCSD(T) calculation
 
 Convergence criterion:  1.0E-05
 
 Number of occupied/virtual/auxiliary orbitals:    11   103   323
    211.25 MB is the minimal memory requirement for (T)
    114.50 MB is the minimal memory requirement for CCSD
 
 MP2 correlation energy [au]:       -0.708426925098
 
 LMP2 domain correlation energy contribution [au]:       -0.078463365097
 
 CPU time [min]:   117.209                   Wall time [min]:     6.441
 
 
 Starting CCSD iterations...
 
                     Residual norm       Correlation Energy
 Iteration  1        0.190743300733       -0.625493298814
 Iteration  2        0.059353630244       -0.645831116650
 Iteration  3        0.018011755960       -0.649907656957
 Iteration  4        0.008002254986       -0.648622051315
 Iteration  5        0.004194623652       -0.648331455018
 Iteration  6        0.002317512273       -0.648688107870
 Iteration  7        0.001134893146       -0.648768000066
 Iteration  8        0.000410240826       -0.648709857608
 Iteration  9        0.000174821443       -0.648705517045
 Iteration 10        0.000055145053       -0.648709123259
 
 CCSD iteration has converged in 10 steps.
      539.46 MB memory was utilized by CCSD
 
 T1 diagnostic:      2.145E-02            D1 diagnostic:      6.845E-02
 
 T1 contribution [au]:                         0.000000000000
 CCSD correlation energy [au]:                -0.072432890857
 
 CPU time [min]:   118.852                   Wall time [min]:     6.528
 
 Calculation of (T) correction...
 
 Laplace threshold, nquadmin:  1.00E-03   4
 Number of quadrature points:    4
 
      266.38 MB memory is utilized for (T)

 0%       25%       50%       75%       100%
 |---------|---------|---------|---------| 
 
 (T) correction [au]:                   -0.004447483890
 CCSD(T) correlation energy [au]:       -0.076880374747
 
 CPU time [min]:   119.800                   Wall time [min]:     6.583
 
 **********************************************************************
 Dimensions of the extended domains:    Minimum / Average / Maximum
 
 Number of atoms in domain:                  34      34.0        34
 Number of atomic orbitals:                 754     754.0       754
 Number of fitting functions:              2772    2772.0      2772
 Number of occupied localized MOs:           11      11.0        11
 Number of PAOs:                            735     735.0       735
 Number of occupied LNOs:                    11      11.0        11
 Number of virtual  LNOs:                    67      70.8       103
 Number of NAFs:                            242     250.1       323
 
 **********************************************************************
 Distant (and weak) pair contributions, corrections
 
 Sum of pair energies [au]:                     0.000000000000    (0.000%)
 Sum of energy corrections [au]:               -0.000316964699    (0.045%)
 Pair energies + LNO corrections [au]:         -0.000316964699
 Sum of LMP2 contributions [au]:               -0.708430014887
 
 **********************************************************************
  Time of manipulations in the EDs:      max CPU/Wall [s]  all CPU/Wall [min]
 
 PD construction & multipole pair E      26.86     1.48     0.45     0.02
 Construct MO basis of the ED             7.39     0.39     1.32     0.07
 (mu,nu|P) evaluation & trf 2 (ai|P)     88.90     4.45    15.95     0.80
 Evaluate MP2 energy of the ED           20.01     1.00     3.67     0.18
 Transformations to the LNO basis        10.54     0.53     1.86     0.09
 Build W_PQ (Jai or Jpi part)             4.60     1.45     0.82     0.18
 Evaluate MP2 energy of the LIS           0.60     0.03     0.06     0.00
 (mu,nu|P) evaluation & trf 2 J(abQ)    608.64    33.44    82.26     4.50
 Total of the above for all EDs         740.68    41.28   105.94     5.83
 
 **********************************************************************
 Maximum memory requirement [MB]:       
 
 PD construction & multipole pair E         77.7
 AO integral evaluation in the EDs         764.5
 (mu,nu|P) evaluation & trf 2 (aI|P)      1263.9
 Evaluate MP2 energy in the EDs            637.6
 Transformation to the LNO basis           201.1
 (mu,nu|P) to Jab transformation           917.5
 Evaluate MP2 energy in the LIS            316.7
 Minimum requirement for LIS CCSD          114.5
 Actually allocated  for LIS CCSD          539.5
 Minimum requirement for LIS (T)           211.3
 Actually allocated  for LIS (T)           266.4
 
 ======================================================================
 ======================================================================
 
 
 
 ======================================================================
 ======================================================================
 
 Final local CC results:
 
 Minimum number of correlated electrons:        22       (100.0%)
 Maximum number of correlated electrons:        22       (100.0%)
 Average number of correlated electrons:        22.0     (100.0%)
 Minimum number of correlated orbitals:         78       (  6.7%)
 Maximum number of correlated orbitals:        114       (  9.8%)
 Average number of correlated orbitals:         81.8     (  7.1%)
 
 CPU time for integral calculations [min]:                  7.072
 Wall time for integral calculations [min]:                 1.508
 
 CPU time for SCF calculation [min]:                       95.325
 Wall time for SCF calculation [min]:                       4.825
 
 CPU time for orbital localization [min]:                   0.120
 Wall time for orbital localization [min]:                  0.047
 
 CPU time for integral transformations [min]:             109.285
 Wall time for integral transformations [min]:              6.006
 
 Reference energy [au]:                                  -269.589450191849
 
 LMP2 correlation energy [au]:                             -0.708430014887
 Total LMP2 energy [au]:                                 -270.297880206735
 
 Total MP2 correction for dropped NAFs [au]:                0.000136987098
 Total MP2 correction [au]:                                -0.000179977601
 
 CPU time for CCSD calculations [min]:                      7.252
 Total CPU time for CCSD [min]:                           219.055
 Wall time for CCSD calculations [min]:                     0.388
 Total wall time for CCSD [min]:                           12.775
 
 CCSD correlation energy [au]:                             -0.648872373432
 Total CCSD energy [au]:                                 -270.238322565280
 CCSD correlation energy + 0.5 MP2 corrections [au]:       -0.648962362232
 Total LNO-CCSD energy with MP2 corrections [au]:        -270.238412554081
 
 CPU time for (T) corrections [min]:                        3.276
 Total CPU time for CCSD(T) [min]:                        222.331
 Wall time for (T) corrections [min]:                       0.189
 Total wall time for CCSD(T) [min]:                        12.964
 
 Total (T) correlation energy contribution [au]:           -0.024587222718
 Total (T) correlation energy+0.5 MP2 correction [au]:     -0.024677211519
 CCSD(T) correlation energy [au]:                          -0.673459596150
 Total CCSD(T) energy [au]:                              -270.262909787999
 CCSD(T) correlation energy + MP2 corrections [au]:        -0.673639573751
 Total LNO-CCSD(T) energy with MP2 corrections [au]:     -270.263089765600
 
 ======================================================================
 ======================================================================
 
 ************************ 2022-08-18 05:47:01 *************************
                      Normal termination of mrcc.
 **********************************************************************
