 **********************************************************************
                          MRCC program system
 **********************************************************************
 
                              Written by
     Mihaly Kallay, Peter R. Nagy, David Mester, Laszlo Gyevi-Nagy,
        Jozsef Csoka, P. Bernat Szabo, Zoltan Rolik, Gyula Samu,
     Jozsef Csontos, Bence Hegely, Adam Ganyecz, Istvan Ladjanszki,
       Lorant Szegedy, Bence Ladoczki, Klara Petrov, Mate Farkas,
                    Pal D. Mezei, and Reka A. Horvath
 
        Department of Physical Chemistry and Materials Science
            Budapest University of Technology and Economics
                  Budapest P.O.Box 91, H-1521 Hungary
 
                              www.mrcc.hu
 
                      Release date: March 18, 2022

 ************************ 2022-11-12 15:22:03 *************************
 Executing minp...

 Reading input from MINP...
 
 Input file:
 
calc=FNO-CCSD(T)
scftyp=uhf
verbosity=3
mem=150GB
unit=angs
scfiguess=small
scfalg=locfit1
lcorthr=tight
ccmaxit=400
ccsdalg=dfdirect
ccsdthreads=4
ccsdmkl=thr
ptthreads=4
lnoepsv=1e-5
naf_cor=1e-2
ECP=MCDHF-ECP-10
basis=bse_ACVQZ
basis_sm=def2-SVP
dfbasis_scf=def2-QZVPP-RI-JK
dfbasis_cor=bse_ACVQZ_mp2fit
mult=2
core=0
unit=angs
geom=xyz
4
Cu4
Cu     1.16717276     0.38905498     1.07801886
Cu     0.02179923    -0.12973513    -1.17783523
Cu    -0.42856473    -1.13463765     1.17783523
Cu    -1.16717276     1.13463765     0.18733212

ghost=serialno
1,3,4
 
 
 Checking keyword combinations...
 
 Keywords:
 
 active=none
 agrid=ld0006-ld0590
 agrid_pssp=ld0006-ld0194
 agrid_pssp_sm=ld0006-ld0074
 basis=bse_acvqz
 basis_sm=def2-svp
 basopt=off
 bfbasis=none
 bfgsmem=10
 bfgstol=1.0d-3
 bpcompo=0.985
 bpcompv=0.98
 bpdfo=0.985
 bpocc=0.985
 bppdo=0.985
 bppdv=0.98
 bpedo=0.985
 bpedv=0.98
 calc=ccsd(t)
 ccmaxit=400
 ccprog=ccsd
 ccsdalg=dfdirect
 ccsdmkl=thr
 ccsdrest=trf
 ccsdthreads=4
 cctol=6
 charge=0
 cialg=auto
 ciguess=off
 cmpgrp=auto
 comprest=off
 core=corr
 corembed=off
 csapprox=off
 cvs=off
 dboc=off
 delocsomofact=
 dendec=cholesky
 dens=0
 dfalg=lineq
 dfbasis_cab=none
 dfbasis_cor=bse_acvqz_mp2fit
 dfbasis_scf=def2-qzvpp-ri-jk
 dfbasis_scf_sm=def2-qzvpp-ri-jk
 dfintran=drpa
 dft=off
 dhexc=adc(2)
 diag=david
 docc=
 domrad=10.d0
 drpaalg=fit
 dual=off
 dual_df=off
 ecp=mcdhf-ecp-10
 edisp=off
 edisp_embed=off
 embed=off
 etemp=300
 epert=none
 eps=
 espcharge=off
 excrad=1.0
 excrad_fin=0.100000000D-02
 fitting=coulomb
 fmm=off
 fmmord=8
 freq=off
 gamma=1.d0
 gauss=spher
 geom=xyz
 gopt=off
 ghost=serialno
 gtol=7
 grdens=off
 gridbatch_cos=2000
 grtol=10
 guido_ct=off
 hamilton=dc
 iface=none
 intalg=auto
 itol=10
 laptol=1.d-3
 lccoporder=trffirst
 lcorthr=tight
 lccrest=off
 lmp2dens=on
 lnoepso=0.d0
 lnoepsv=1e-5
 boysalg=jacobi
 localcc=off
 localcorrsymm=off
 locintrf=disk
 mact=
 maxact=off
 maxdim=100
 maxex=0
 maxmicroit=100
 mcscfiguess=hf
 mem=150gb
 mmprog=
 molden=on
 mpitasks=1
 mulmet=0
 mult=2
 nacto=0
 nactv=0
 naf_amp=1.d-2
 naf_cor=1e-2
 naf_scf=off
 nafalg=albe
 naftyp=
 nchol=auto
 ndeps=1e-3
 nstate=1
 nsing=0
 nto=off
 ntrip=0
 occ=
 occri=off
 oniom=off
 oniom_eechg=off
 oniom_pcm=off
 oniom_qcorr=off
 optalg=
 optmaxit=50
 optetol=1e-6
 optex=0
 optgtol=1e-4
 optstol=1e-3
 orblocc=off
 orbloce=off
 orbloco=off
 orblocv=off
 orblocguess=cholesky
 osveps=1e-4
 ovirt=ppl
 ovltol=1e-7
 ovosnorb=80.0
 pcm=off
 popul=off
 pressure=100000
 pssp=off
 ptfreq=0.0
 ptthreads=4
 qro=off
 qscf=off
 qmmm=off
 redcost_exc=off
 redcost_tddft=off
 refdet=none
 rest=0
 rgrid=log3
 rism=off
 rohfcore=semicanonical
 rohftype=semicanonical
 scfalg=locfit1
 scf_conv=difficult
 scfdamp=0.0d0
 scfdamp_mode=off
 scfdamp_end=50
 scfdamp_dampstep=0.d0
 scfdamp_dtol=0.0d0
 scfdamp_maxfact=0.0d0
 scfdamp_minfact=0.0d0
 scfdiis=on
 scfdiis_dtol=0.0d0
 scfdiis_end=50
 scfdiis_start=2
 scfdiis_step=1
 scfdiis_watch=off
 scfdiis_wrange=10
 scfdiis_wlimit=5
 scfdiis_delmax=2
 scfdtol=7
 scfext=10
 scfguessdens=
 scfiguess=small
 scfloc=pm
 scflshift=0.20
 scflshift_end=8
 scflshift_dtol=0.0
 scflshift_gaptol=0.20
 scfmaxit=50
 scftype=uhf
 scftol=6
 scspe=1.d0
 scsph=1.d0
 scsps=1.2d0
 scsps_t=1.2d0
 scspt=0.33333333333333
 scspt_t=0.33333333333333
 scspv=1.d0
 spairtol=1e-5
 sqmprog=
 subminp=top
 symm=
 talg=occ
 temp=298.15
 test=off
 theodore=off
 tlmo=0.999
 tpao=0.94
 tprint=off
 uncontract=off
 unit=angs
 usedisk=2
 verbosity=3
 wpairtol=0.100000000E-06
 
 Calculating integrals for small-basis SCF...

 ************************ 2022-11-12 15:22:03 *************************
 Executing integ...

 Allocation of 150.0 Gbytes of memory...
 
 
 Number of atoms:                  4
 Charge:                           0
 Number of electrons:             19
 Number of core electrons:         8
 Spin multiplicity:                2
 
                 Cartesian coordinates [bohr]      Atomic mass [AMU]  Z
   1  Cu    2.20563686    0.73520736    2.03716040     0.000000       0
   2  Cu    0.04119457   -0.24516386   -2.22578601    62.929599      29
   3  Cu   -0.80986997   -2.14415441    2.22578601     0.000000       0
   4  Cu   -2.20563686    2.14415441    0.35400640     0.000000       0
 
 This molecule is an asymmetric top.
 
 Point group: C1  
 Computational point group: C1  
 
 Cartesian coordinates in standard orientation [bohr]
   1  Cu    3.45132611   -1.08079839   -2.04778014
   2  Cu   -0.86987875   -0.12635209    0.01010009
   3  Cu    3.52035147   -0.79064617    2.11522748
   4  Cu    1.72710995    3.13496549   -0.16844820
 
 Nuclear repulsion energy [au]:          0.000000000000
 
 
 Basis set information:
 
 Maximum angular momentum: i
 Maximum number of contracted Gaussians:   16
 Maximum number of primitive Gaussians:    19
 Spherical harmonic GTOs are used.
 
 
 Conventional basis set:
 
   1  Cu def2-svp [ 14s 9p 5d 1f | 5s 3p 2d 1f ]
   2  Cu def2-svp [ 14s 9p 5d 1f | 5s 3p 2d 1f ]
   3  Cu def2-svp [ 14s 9p 5d 1f | 5s 3p 2d 1f ]
   4  Cu def2-svp [ 14s 9p 5d 1f | 5s 3p 2d 1f ]
 
 Basis functions:
            1             2             3             4             5             6             7             8             9            10
    0    1Cu1s         1Cu2s         1Cu3s         1Cu4s         1Cu5s         1Cu1pz        1Cu1py        1Cu1px        1Cu2pz        1Cu2py    
    1    1Cu2px        1Cu3pz        1Cu3py        1Cu3px        1Cu1d-2       1Cu1d-1       1Cu1d0        1Cu1d+1       1Cu1d+2       1Cu2d-2   
    2    1Cu2d-1       1Cu2d0        1Cu2d+1       1Cu2d+2       1Cu1f-3       1Cu1f-2       1Cu1f-1       1Cu1f0        1Cu1f+1       1Cu1f+2   
    3    1Cu1f+3       2Cu1s         2Cu2s         2Cu3s         2Cu4s         2Cu5s         2Cu1pz        2Cu1py        2Cu1px        2Cu2pz    
    4    2Cu2py        2Cu2px        2Cu3pz        2Cu3py        2Cu3px        2Cu1d-2       2Cu1d-1       2Cu1d0        2Cu1d+1       2Cu1d+2   
    5    2Cu2d-2       2Cu2d-1       2Cu2d0        2Cu2d+1       2Cu2d+2       2Cu1f-3       2Cu1f-2       2Cu1f-1       2Cu1f0        2Cu1f+1   
    6    2Cu1f+2       2Cu1f+3       3Cu1s         3Cu2s         3Cu3s         3Cu4s         3Cu5s         3Cu1pz        3Cu1py        3Cu1px    
    7    3Cu2pz        3Cu2py        3Cu2px        3Cu3pz        3Cu3py        3Cu3px        3Cu1d-2       3Cu1d-1       3Cu1d0        3Cu1d+1   
    8    3Cu1d+2       3Cu2d-2       3Cu2d-1       3Cu2d0        3Cu2d+1       3Cu2d+2       3Cu1f-3       3Cu1f-2       3Cu1f-1       3Cu1f0    
    9    3Cu1f+1       3Cu1f+2       3Cu1f+3       4Cu1s         4Cu2s         4Cu3s         4Cu4s         4Cu5s         4Cu1pz        4Cu1py    
   10    4Cu1px        4Cu2pz        4Cu2py        4Cu2px        4Cu3pz        4Cu3py        4Cu3px        4Cu1d-2       4Cu1d-1       4Cu1d0    
   11    4Cu1d+1       4Cu1d+2       4Cu2d-2       4Cu2d-1       4Cu2d0        4Cu2d+1       4Cu2d+2       4Cu1f-3       4Cu1f-2       4Cu1f-1   
   12    4Cu1f0        4Cu1f+1       4Cu1f+2       4Cu1f+3   
 
 Maximum number of basis functions per shell:   10
 Total number of basis functions:    124
 
 
 Fitting basis set for the SCF calculation:
 
   1  Cu def2-qzvpp-ri-jk [ 19s 14p 12d 10f 7g 3h 1i | 16s 13p 11d 9f 5g 3h 1i ]
   2  Cu def2-qzvpp-ri-jk [ 19s 14p 12d 10f 7g 3h 1i | 16s 13p 11d 9f 5g 3h 1i ]
   3  Cu def2-qzvpp-ri-jk [ 19s 14p 12d 10f 7g 3h 1i | 16s 13p 11d 9f 5g 3h 1i ]
   4  Cu def2-qzvpp-ri-jk [ 19s 14p 12d 10f 7g 3h 1i | 16s 13p 11d 9f 5g 3h 1i ]
 
 Basis functions:
            1             2             3             4             5             6             7             8             9            10
    0    1Cu1s         1Cu2s         1Cu3s         1Cu4s         1Cu5s         1Cu6s         1Cu7s         1Cu8s         1Cu9s         1Cu10s    
    1    1Cu11s        1Cu12s        1Cu13s        1Cu14s        1Cu15s        1Cu16s        1Cu1pz        1Cu1py        1Cu1px        1Cu2pz    
    2    1Cu2py        1Cu2px        1Cu3pz        1Cu3py        1Cu3px        1Cu4pz        1Cu4py        1Cu4px        1Cu5pz        1Cu5py    
    3    1Cu5px        1Cu6pz        1Cu6py        1Cu6px        1Cu7pz        1Cu7py        1Cu7px        1Cu8pz        1Cu8py        1Cu8px    
    4    1Cu9pz        1Cu9py        1Cu9px        1Cu10pz       1Cu10py       1Cu10px       1Cu11pz       1Cu11py       1Cu11px       1Cu12pz   
    5    1Cu12py       1Cu12px       1Cu13pz       1Cu13py       1Cu13px       1Cu1d-2       1Cu1d-1       1Cu1d0        1Cu1d+1       1Cu1d+2   
    6    1Cu2d-2       1Cu2d-1       1Cu2d0        1Cu2d+1       1Cu2d+2       1Cu3d-2       1Cu3d-1       1Cu3d0        1Cu3d+1       1Cu3d+2   
    7    1Cu4d-2       1Cu4d-1       1Cu4d0        1Cu4d+1       1Cu4d+2       1Cu5d-2       1Cu5d-1       1Cu5d0        1Cu5d+1       1Cu5d+2   
    8    1Cu6d-2       1Cu6d-1       1Cu6d0        1Cu6d+1       1Cu6d+2       1Cu7d-2       1Cu7d-1       1Cu7d0        1Cu7d+1       1Cu7d+2   
    9    1Cu8d-2       1Cu8d-1       1Cu8d0        1Cu8d+1       1Cu8d+2       1Cu9d-2       1Cu9d-1       1Cu9d0        1Cu9d+1       1Cu9d+2   
   10    1Cu10d-2      1Cu10d-1      1Cu10d0       1Cu10d+1      1Cu10d+2      1Cu11d-2      1Cu11d-1      1Cu11d0       1Cu11d+1      1Cu11d+2  
   11    1Cu1f-3       1Cu1f-2       1Cu1f-1       1Cu1f0        1Cu1f+1       1Cu1f+2       1Cu1f+3       1Cu2f-3       1Cu2f-2       1Cu2f-1   
   12    1Cu2f0        1Cu2f+1       1Cu2f+2       1Cu2f+3       1Cu3f-3       1Cu3f-2       1Cu3f-1       1Cu3f0        1Cu3f+1       1Cu3f+2   
   13    1Cu3f+3       1Cu4f-3       1Cu4f-2       1Cu4f-1       1Cu4f0        1Cu4f+1       1Cu4f+2       1Cu4f+3       1Cu5f-3       1Cu5f-2   
   14    1Cu5f-1       1Cu5f0        1Cu5f+1       1Cu5f+2       1Cu5f+3       1Cu6f-3       1Cu6f-2       1Cu6f-1       1Cu6f0        1Cu6f+1   
   15    1Cu6f+2       1Cu6f+3       1Cu7f-3       1Cu7f-2       1Cu7f-1       1Cu7f0        1Cu7f+1       1Cu7f+2       1Cu7f+3       1Cu8f-3   
   16    1Cu8f-2       1Cu8f-1       1Cu8f0        1Cu8f+1       1Cu8f+2       1Cu8f+3       1Cu9f-3       1Cu9f-2       1Cu9f-1       1Cu9f0    
   17    1Cu9f+1       1Cu9f+2       1Cu9f+3       1Cu1g-4       1Cu1g-3       1Cu1g-2       1Cu1g-1       1Cu1g0        1Cu1g+1       1Cu1g+2   
   18    1Cu1g+3       1Cu1g+4       1Cu2g-4       1Cu2g-3       1Cu2g-2       1Cu2g-1       1Cu2g0        1Cu2g+1       1Cu2g+2       1Cu2g+3   
   19    1Cu2g+4       1Cu3g-4       1Cu3g-3       1Cu3g-2       1Cu3g-1       1Cu3g0        1Cu3g+1       1Cu3g+2       1Cu3g+3       1Cu3g+4   
   20    1Cu4g-4       1Cu4g-3       1Cu4g-2       1Cu4g-1       1Cu4g0        1Cu4g+1       1Cu4g+2       1Cu4g+3       1Cu4g+4       1Cu5g-4   
   21    1Cu5g-3       1Cu5g-2       1Cu5g-1       1Cu5g0        1Cu5g+1       1Cu5g+2       1Cu5g+3       1Cu5g+4       1Cu1h-5       1Cu1h-4   
   22    1Cu1h-3       1Cu1h-2       1Cu1h-1       1Cu1h0        1Cu1h+1       1Cu1h+2       1Cu1h+3       1Cu1h+4       1Cu1h+5       1Cu2h-5   
   23    1Cu2h-4       1Cu2h-3       1Cu2h-2       1Cu2h-1       1Cu2h0        1Cu2h+1       1Cu2h+2       1Cu2h+3       1Cu2h+4       1Cu2h+5   
   24    1Cu3h-5       1Cu3h-4       1Cu3h-3       1Cu3h-2       1Cu3h-1       1Cu3h0        1Cu3h+1       1Cu3h+2       1Cu3h+3       1Cu3h+4   
   25    1Cu3h+5       1Cu1i-6       1Cu1i-5       1Cu1i-4       1Cu1i-3       1Cu1i-2       1Cu1i-1       1Cu1i0        1Cu1i+1       1Cu1i+2   
   26    1Cu1i+3       1Cu1i+4       1Cu1i+5       1Cu1i+6       2Cu1s         2Cu2s         2Cu3s         2Cu4s         2Cu5s         2Cu6s     
   27    2Cu7s         2Cu8s         2Cu9s         2Cu10s        2Cu11s        2Cu12s        2Cu13s        2Cu14s        2Cu15s        2Cu16s    
   28    2Cu1pz        2Cu1py        2Cu1px        2Cu2pz        2Cu2py        2Cu2px        2Cu3pz        2Cu3py        2Cu3px        2Cu4pz    
   29    2Cu4py        2Cu4px        2Cu5pz        2Cu5py        2Cu5px        2Cu6pz        2Cu6py        2Cu6px        2Cu7pz        2Cu7py    
   30    2Cu7px        2Cu8pz        2Cu8py        2Cu8px        2Cu9pz        2Cu9py        2Cu9px        2Cu10pz       2Cu10py       2Cu10px   
   31    2Cu11pz       2Cu11py       2Cu11px       2Cu12pz       2Cu12py       2Cu12px       2Cu13pz       2Cu13py       2Cu13px       2Cu1d-2   
   32    2Cu1d-1       2Cu1d0        2Cu1d+1       2Cu1d+2       2Cu2d-2       2Cu2d-1       2Cu2d0        2Cu2d+1       2Cu2d+2       2Cu3d-2   
   33    2Cu3d-1       2Cu3d0        2Cu3d+1       2Cu3d+2       2Cu4d-2       2Cu4d-1       2Cu4d0        2Cu4d+1       2Cu4d+2       2Cu5d-2   
   34    2Cu5d-1       2Cu5d0        2Cu5d+1       2Cu5d+2       2Cu6d-2       2Cu6d-1       2Cu6d0        2Cu6d+1       2Cu6d+2       2Cu7d-2   
   35    2Cu7d-1       2Cu7d0        2Cu7d+1       2Cu7d+2       2Cu8d-2       2Cu8d-1       2Cu8d0        2Cu8d+1       2Cu8d+2       2Cu9d-2   
   36    2Cu9d-1       2Cu9d0        2Cu9d+1       2Cu9d+2       2Cu10d-2      2Cu10d-1      2Cu10d0       2Cu10d+1      2Cu10d+2      2Cu11d-2  
   37    2Cu11d-1      2Cu11d0       2Cu11d+1      2Cu11d+2      2Cu1f-3       2Cu1f-2       2Cu1f-1       2Cu1f0        2Cu1f+1       2Cu1f+2   
   38    2Cu1f+3       2Cu2f-3       2Cu2f-2       2Cu2f-1       2Cu2f0        2Cu2f+1       2Cu2f+2       2Cu2f+3       2Cu3f-3       2Cu3f-2   
   39    2Cu3f-1       2Cu3f0        2Cu3f+1       2Cu3f+2       2Cu3f+3       2Cu4f-3       2Cu4f-2       2Cu4f-1       2Cu4f0        2Cu4f+1   
   40    2Cu4f+2       2Cu4f+3       2Cu5f-3       2Cu5f-2       2Cu5f-1       2Cu5f0        2Cu5f+1       2Cu5f+2       2Cu5f+3       2Cu6f-3   
   41    2Cu6f-2       2Cu6f-1       2Cu6f0        2Cu6f+1       2Cu6f+2       2Cu6f+3       2Cu7f-3       2Cu7f-2       2Cu7f-1       2Cu7f0    
   42    2Cu7f+1       2Cu7f+2       2Cu7f+3       2Cu8f-3       2Cu8f-2       2Cu8f-1       2Cu8f0        2Cu8f+1       2Cu8f+2       2Cu8f+3   
   43    2Cu9f-3       2Cu9f-2       2Cu9f-1       2Cu9f0        2Cu9f+1       2Cu9f+2       2Cu9f+3       2Cu1g-4       2Cu1g-3       2Cu1g-2   
   44    2Cu1g-1       2Cu1g0        2Cu1g+1       2Cu1g+2       2Cu1g+3       2Cu1g+4       2Cu2g-4       2Cu2g-3       2Cu2g-2       2Cu2g-1   
   45    2Cu2g0        2Cu2g+1       2Cu2g+2       2Cu2g+3       2Cu2g+4       2Cu3g-4       2Cu3g-3       2Cu3g-2       2Cu3g-1       2Cu3g0    
   46    2Cu3g+1       2Cu3g+2       2Cu3g+3       2Cu3g+4       2Cu4g-4       2Cu4g-3       2Cu4g-2       2Cu4g-1       2Cu4g0        2Cu4g+1   
   47    2Cu4g+2       2Cu4g+3       2Cu4g+4       2Cu5g-4       2Cu5g-3       2Cu5g-2       2Cu5g-1       2Cu5g0        2Cu5g+1       2Cu5g+2   
   48    2Cu5g+3       2Cu5g+4       2Cu1h-5       2Cu1h-4       2Cu1h-3       2Cu1h-2       2Cu1h-1       2Cu1h0        2Cu1h+1       2Cu1h+2   
   49    2Cu1h+3       2Cu1h+4       2Cu1h+5       2Cu2h-5       2Cu2h-4       2Cu2h-3       2Cu2h-2       2Cu2h-1       2Cu2h0        2Cu2h+1   
   50    2Cu2h+2       2Cu2h+3       2Cu2h+4       2Cu2h+5       2Cu3h-5       2Cu3h-4       2Cu3h-3       2Cu3h-2       2Cu3h-1       2Cu3h0    
   51    2Cu3h+1       2Cu3h+2       2Cu3h+3       2Cu3h+4       2Cu3h+5       2Cu1i-6       2Cu1i-5       2Cu1i-4       2Cu1i-3       2Cu1i-2   
   52    2Cu1i-1       2Cu1i0        2Cu1i+1       2Cu1i+2       2Cu1i+3       2Cu1i+4       2Cu1i+5       2Cu1i+6       3Cu1s         3Cu2s     
   53    3Cu3s         3Cu4s         3Cu5s         3Cu6s         3Cu7s         3Cu8s         3Cu9s         3Cu10s        3Cu11s        3Cu12s    
   54    3Cu13s        3Cu14s        3Cu15s        3Cu16s        3Cu1pz        3Cu1py        3Cu1px        3Cu2pz        3Cu2py        3Cu2px    
   55    3Cu3pz        3Cu3py        3Cu3px        3Cu4pz        3Cu4py        3Cu4px        3Cu5pz        3Cu5py        3Cu5px        3Cu6pz    
   56    3Cu6py        3Cu6px        3Cu7pz        3Cu7py        3Cu7px        3Cu8pz        3Cu8py        3Cu8px        3Cu9pz        3Cu9py    
   57    3Cu9px        3Cu10pz       3Cu10py       3Cu10px       3Cu11pz       3Cu11py       3Cu11px       3Cu12pz       3Cu12py       3Cu12px   
   58    3Cu13pz       3Cu13py       3Cu13px       3Cu1d-2       3Cu1d-1       3Cu1d0        3Cu1d+1       3Cu1d+2       3Cu2d-2       3Cu2d-1   
   59    3Cu2d0        3Cu2d+1       3Cu2d+2       3Cu3d-2       3Cu3d-1       3Cu3d0        3Cu3d+1       3Cu3d+2       3Cu4d-2       3Cu4d-1   
   60    3Cu4d0        3Cu4d+1       3Cu4d+2       3Cu5d-2       3Cu5d-1       3Cu5d0        3Cu5d+1       3Cu5d+2       3Cu6d-2       3Cu6d-1   
   61    3Cu6d0        3Cu6d+1       3Cu6d+2       3Cu7d-2       3Cu7d-1       3Cu7d0        3Cu7d+1       3Cu7d+2       3Cu8d-2       3Cu8d-1   
   62    3Cu8d0        3Cu8d+1       3Cu8d+2       3Cu9d-2       3Cu9d-1       3Cu9d0        3Cu9d+1       3Cu9d+2       3Cu10d-2      3Cu10d-1  
   63    3Cu10d0       3Cu10d+1      3Cu10d+2      3Cu11d-2      3Cu11d-1      3Cu11d0       3Cu11d+1      3Cu11d+2      3Cu1f-3       3Cu1f-2   
   64    3Cu1f-1       3Cu1f0        3Cu1f+1       3Cu1f+2       3Cu1f+3       3Cu2f-3       3Cu2f-2       3Cu2f-1       3Cu2f0        3Cu2f+1   
   65    3Cu2f+2       3Cu2f+3       3Cu3f-3       3Cu3f-2       3Cu3f-1       3Cu3f0        3Cu3f+1       3Cu3f+2       3Cu3f+3       3Cu4f-3   
   66    3Cu4f-2       3Cu4f-1       3Cu4f0        3Cu4f+1       3Cu4f+2       3Cu4f+3       3Cu5f-3       3Cu5f-2       3Cu5f-1       3Cu5f0    
   67    3Cu5f+1       3Cu5f+2       3Cu5f+3       3Cu6f-3       3Cu6f-2       3Cu6f-1       3Cu6f0        3Cu6f+1       3Cu6f+2       3Cu6f+3   
   68    3Cu7f-3       3Cu7f-2       3Cu7f-1       3Cu7f0        3Cu7f+1       3Cu7f+2       3Cu7f+3       3Cu8f-3       3Cu8f-2       3Cu8f-1   
   69    3Cu8f0        3Cu8f+1       3Cu8f+2       3Cu8f+3       3Cu9f-3       3Cu9f-2       3Cu9f-1       3Cu9f0        3Cu9f+1       3Cu9f+2   
   70    3Cu9f+3       3Cu1g-4       3Cu1g-3       3Cu1g-2       3Cu1g-1       3Cu1g0        3Cu1g+1       3Cu1g+2       3Cu1g+3       3Cu1g+4   
   71    3Cu2g-4       3Cu2g-3       3Cu2g-2       3Cu2g-1       3Cu2g0        3Cu2g+1       3Cu2g+2       3Cu2g+3       3Cu2g+4       3Cu3g-4   
   72    3Cu3g-3       3Cu3g-2       3Cu3g-1       3Cu3g0        3Cu3g+1       3Cu3g+2       3Cu3g+3       3Cu3g+4       3Cu4g-4       3Cu4g-3   
   73    3Cu4g-2       3Cu4g-1       3Cu4g0        3Cu4g+1       3Cu4g+2       3Cu4g+3       3Cu4g+4       3Cu5g-4       3Cu5g-3       3Cu5g-2   
   74    3Cu5g-1       3Cu5g0        3Cu5g+1       3Cu5g+2       3Cu5g+3       3Cu5g+4       3Cu1h-5       3Cu1h-4       3Cu1h-3       3Cu1h-2   
   75    3Cu1h-1       3Cu1h0        3Cu1h+1       3Cu1h+2       3Cu1h+3       3Cu1h+4       3Cu1h+5       3Cu2h-5       3Cu2h-4       3Cu2h-3   
   76    3Cu2h-2       3Cu2h-1       3Cu2h0        3Cu2h+1       3Cu2h+2       3Cu2h+3       3Cu2h+4       3Cu2h+5       3Cu3h-5       3Cu3h-4   
   77    3Cu3h-3       3Cu3h-2       3Cu3h-1       3Cu3h0        3Cu3h+1       3Cu3h+2       3Cu3h+3       3Cu3h+4       3Cu3h+5       3Cu1i-6   
   78    3Cu1i-5       3Cu1i-4       3Cu1i-3       3Cu1i-2       3Cu1i-1       3Cu1i0        3Cu1i+1       3Cu1i+2       3Cu1i+3       3Cu1i+4   
   79    3Cu1i+5       3Cu1i+6       4Cu1s         4Cu2s         4Cu3s         4Cu4s         4Cu5s         4Cu6s         4Cu7s         4Cu8s     
   80    4Cu9s         4Cu10s        4Cu11s        4Cu12s        4Cu13s        4Cu14s        4Cu15s        4Cu16s        4Cu1pz        4Cu1py    
   81    4Cu1px        4Cu2pz        4Cu2py        4Cu2px        4Cu3pz        4Cu3py        4Cu3px        4Cu4pz        4Cu4py        4Cu4px    
   82    4Cu5pz        4Cu5py        4Cu5px        4Cu6pz        4Cu6py        4Cu6px        4Cu7pz        4Cu7py        4Cu7px        4Cu8pz    
   83    4Cu8py        4Cu8px        4Cu9pz        4Cu9py        4Cu9px        4Cu10pz       4Cu10py       4Cu10px       4Cu11pz       4Cu11py   
   84    4Cu11px       4Cu12pz       4Cu12py       4Cu12px       4Cu13pz       4Cu13py       4Cu13px       4Cu1d-2       4Cu1d-1       4Cu1d0    
   85    4Cu1d+1       4Cu1d+2       4Cu2d-2       4Cu2d-1       4Cu2d0        4Cu2d+1       4Cu2d+2       4Cu3d-2       4Cu3d-1       4Cu3d0    
   86    4Cu3d+1       4Cu3d+2       4Cu4d-2       4Cu4d-1       4Cu4d0        4Cu4d+1       4Cu4d+2       4Cu5d-2       4Cu5d-1       4Cu5d0    
   87    4Cu5d+1       4Cu5d+2       4Cu6d-2       4Cu6d-1       4Cu6d0        4Cu6d+1       4Cu6d+2       4Cu7d-2       4Cu7d-1       4Cu7d0    
   88    4Cu7d+1       4Cu7d+2       4Cu8d-2       4Cu8d-1       4Cu8d0        4Cu8d+1       4Cu8d+2       4Cu9d-2       4Cu9d-1       4Cu9d0    
   89    4Cu9d+1       4Cu9d+2       4Cu10d-2      4Cu10d-1      4Cu10d0       4Cu10d+1      4Cu10d+2      4Cu11d-2      4Cu11d-1      4Cu11d0   
   90    4Cu11d+1      4Cu11d+2      4Cu1f-3       4Cu1f-2       4Cu1f-1       4Cu1f0        4Cu1f+1       4Cu1f+2       4Cu1f+3       4Cu2f-3   
   91    4Cu2f-2       4Cu2f-1       4Cu2f0        4Cu2f+1       4Cu2f+2       4Cu2f+3       4Cu3f-3       4Cu3f-2       4Cu3f-1       4Cu3f0    
   92    4Cu3f+1       4Cu3f+2       4Cu3f+3       4Cu4f-3       4Cu4f-2       4Cu4f-1       4Cu4f0        4Cu4f+1       4Cu4f+2       4Cu4f+3   
   93    4Cu5f-3       4Cu5f-2       4Cu5f-1       4Cu5f0        4Cu5f+1       4Cu5f+2       4Cu5f+3       4Cu6f-3       4Cu6f-2       4Cu6f-1   
   94    4Cu6f0        4Cu6f+1       4Cu6f+2       4Cu6f+3       4Cu7f-3       4Cu7f-2       4Cu7f-1       4Cu7f0        4Cu7f+1       4Cu7f+2   
   95    4Cu7f+3       4Cu8f-3       4Cu8f-2       4Cu8f-1       4Cu8f0        4Cu8f+1       4Cu8f+2       4Cu8f+3       4Cu9f-3       4Cu9f-2   
   96    4Cu9f-1       4Cu9f0        4Cu9f+1       4Cu9f+2       4Cu9f+3       4Cu1g-4       4Cu1g-3       4Cu1g-2       4Cu1g-1       4Cu1g0    
   97    4Cu1g+1       4Cu1g+2       4Cu1g+3       4Cu1g+4       4Cu2g-4       4Cu2g-3       4Cu2g-2       4Cu2g-1       4Cu2g0        4Cu2g+1   
   98    4Cu2g+2       4Cu2g+3       4Cu2g+4       4Cu3g-4       4Cu3g-3       4Cu3g-2       4Cu3g-1       4Cu3g0        4Cu3g+1       4Cu3g+2   
   99    4Cu3g+3       4Cu3g+4       4Cu4g-4       4Cu4g-3       4Cu4g-2       4Cu4g-1       4Cu4g0        4Cu4g+1       4Cu4g+2       4Cu4g+3   
  100    4Cu4g+4       4Cu5g-4       4Cu5g-3       4Cu5g-2       4Cu5g-1       4Cu5g0        4Cu5g+1       4Cu5g+2       4Cu5g+3       4Cu5g+4   
  101    4Cu1h-5       4Cu1h-4       4Cu1h-3       4Cu1h-2       4Cu1h-1       4Cu1h0        4Cu1h+1       4Cu1h+2       4Cu1h+3       4Cu1h+4   
  102    4Cu1h+5       4Cu2h-5       4Cu2h-4       4Cu2h-3       4Cu2h-2       4Cu2h-1       4Cu2h0        4Cu2h+1       4Cu2h+2       4Cu2h+3   
  103    4Cu2h+4       4Cu2h+5       4Cu3h-5       4Cu3h-4       4Cu3h-3       4Cu3h-2       4Cu3h-1       4Cu3h0        4Cu3h+1       4Cu3h+2   
  104    4Cu3h+3       4Cu3h+4       4Cu3h+5       4Cu1i-6       4Cu1i-5       4Cu1i-4       4Cu1i-3       4Cu1i-2       4Cu1i-1       4Cu1i0    
  105    4Cu1i+1       4Cu1i+2       4Cu1i+3       4Cu1i+4       4Cu1i+5       4Cu1i+6   
 
 Maximum number of basis functions per shell:   63
 Total number of basis functions:   1056
 
 
 Effective core potentials:
 
   2  Cu mcdhf-ecp-10        
 
 Initializing the SAD routines for the initial guess...
 Checking the files required for the initial guess...
 Atomic density files have been found for the atoms with the following serial numbers:
  
 Atomic density files have not been found for the atoms with the following serial numbers:
  2
 Generating SCFDENSITIES.Cu.def2-svp.0
 CPU time [min]:     0.078                   Wall time [min]:     0.176
 
 Character table for point group C1:
 
          E  
    A     1
 
 Number of basis functions per irrep:
    A     124
 
 
 Calculation of overlap integrals...
 CPU time [min]:     0.079                   Wall time [min]:     0.177
 
 Calculation of the square root of the overlap matrix...
 Minimum eigenvalue of the overlap matrix: 0.319798E-01
 CPU time [min]:     0.088                   Wall time [min]:     0.177
 
 Calculation of kinetic energy integrals...
 CPU time [min]:     0.089                   Wall time [min]:     0.177
 Calculation of dipole moment integrals...
 CPU time [min]:     0.090                   Wall time [min]:     0.177
 Calculation of nuclear attraction integrals...
 CPU time [min]:     0.092                   Wall time [min]:     0.177
 Calculation of core potential integrals...
 CPU time [min]:     0.166                   Wall time [min]:     0.195
 
 Calculation of prescreening integrals...
 CPU time [min]:     0.376                   Wall time [min]:     0.205
 
 Calculation of two-center Coulomb integrals...
   1% done.
  13% done.
  24% done.
  37% done.
  50% done.
  64% done.
  84% done.
  98% done.
 100% done.
 CPU time [min]:     0.387                   Wall time [min]:     0.205
 
 Cholesky decomposition of the two-center matrix...
 Reciprocal of the condition number:  0.445722E-05
 CPU time [min]:     0.417                   Wall time [min]:     0.206
 
 
 Running small-basis SCF...

 ************************ 2022-11-12 15:22:16 *************************
 Executing scf...

 @scfsetup: integrals calculated directly
            mrcc/integ direct run
 @scfsetup: calculating on full matrices
            not using symmetry adapted basis
 @scfsetup: diis switched on
 @scfsetup: number of steps to extrapolate from  10
 @scfsetup: tolerance in energy deviation    0.100000E-05
            tolerance in density deviation    0.100000E-06
 @scfsetup: maximum number of iterations:  50
 @scfsetup: unrestricted hf calc
 @scfsetup: starting scf from superposition of atomic densities
 @scfsetup: occupation set:
            from initial orbitals
 @scfsetup: Parameter-set for SCF acceleration: difficult
 @scfsetup: diis runs from iteration:   2
 @scfsetup: diis runs to iteration:  50
 @scfsetup: diis runs in every iteration
 @scfsetup: diiswatch is disabled                   
 @scfsetup: diis dtol criteria to switch on:      0.0000E+00
           (or the iteration number below is reached)
 @scfsetup: damping is turned off.
 @scfsetup: dynamic level shifting
            tolarance in HOMO-LUMO gap:  0.200
            tolarance in density deviation:     0.0000E+00
            iteration step criteria to turn level shifting off: 8
 Allocation of 150.0 Gbytes of memory...
 ======================================================================
 ITERATION STEP   1
 CPU time [min]:     0.023                   Wall time [min]:     0.006
 

 SCF control                  : initial
 Damping factor/level shift   : 0.000/0.200
 DIIS [start/end/frequency]   :   2 / 50 /  1

 Constructing alpha Fock-matrix...
 
 Pipek-Mezey localization...
 Step  Convergence
   1   0.012286702022
   2   0.000000124790
 CPU time [min]:     0.039                   Wall time [min]:     0.007
 
 Constructing local fitting domains...
 Maximum number of atoms in fitting domains:    4
 Average number of atoms in fitting domains:    4.0
 
 First step of Coulomb + first step of exchange...
 Exchange contribution is evaluated for MOs 1 to 10.
   1% done.
  13% done.
  25% done.
  38% done.
  56% done.
  75% done.
  89% done.
 100% done.
 CPU time [min]:     0.113                   Wall time [min]:     0.010
 
 Fitting and assembly step of exchange...
 CPU time [min]:     0.117                   Wall time [min]:     0.010
 
 Constructing beta Fock-matrix...
 
 Pipek-Mezey localization...
 Step  Convergence
   1   0.000000000000
 CPU time [min]:     0.127                   Wall time [min]:     0.010
 
 Constructing local fitting domains...
 Maximum number of atoms in fitting domains:    4
 Average number of atoms in fitting domains:    4.0
 
 Second step of Coulomb + first step of exchange...
 Exchange contribution is evaluated for MOs 1 to 9.
   1% done.
  13% done.
  25% done.
  38% done.
  56% done.
  75% done.
  89% done.
 100% done.
 CPU time [min]:     0.189                   Wall time [min]:     0.013
 
 Fitting and assembly step of exchange...
 CPU time [min]:     0.191                   Wall time [min]:     0.013
 
 Gradient norm:      2.1160E+00
 RMS of alpha [F,P] :                                  0.01714669236094
 RMS of beta  [F,P] :                                  0.01710676909327
 RMS of alpha difference density:                      0.10790055004845
 RMS of beta  difference density:                      0.08963099941245
 Gap [au]:  0.01786190
 ALPHA OCC:  10
 BETA  OCC:   9
 
 ***HARTREE-FOCK ENERGY IN STEP   1 IS       -192.2291505246118390 [AU]
 ======================================================================
 ITERATION STEP   2
 CPU time [min]:     0.199                   Wall time [min]:     0.014
 

 SCF control                  : diis
 Damping factor/level shift   : 0.000/0.200
 DIIS [start/end/frequency]   :   2 / 50 /  1

 Constructing alpha Fock-matrix...
 Inverse square root: The matrix is not positive definite!
 
 Pipek-Mezey localization...
 Step  Convergence
   1   1.627944420955
   2   0.192639702098
   3   0.024239791308
   4   0.000015802214
   5   0.000000006072
 CPU time [min]:     0.215                   Wall time [min]:     0.014
 
 Constructing local fitting domains...
 Maximum number of atoms in fitting domains:    4
 Average number of atoms in fitting domains:    4.0
 
 First step of Coulomb + first step of exchange...
 Exchange contribution is evaluated for MOs 1 to 10.
   1% done.
  13% done.
  25% done.
  38% done.
  56% done.
  75% done.
  89% done.
 100% done.
 CPU time [min]:     0.284                   Wall time [min]:     0.017
 
 Fitting and assembly step of exchange...
 CPU time [min]:     0.285                   Wall time [min]:     0.017
 
 Constructing beta Fock-matrix...
 Inverse square root: The matrix is not positive definite!
 
 Pipek-Mezey localization...
 Step  Convergence
   1   1.290952282833
   2   0.121546865608
   3   0.018951508016
   4   0.000014489751
   5   0.000000027043
 CPU time [min]:     0.296                   Wall time [min]:     0.018
 
 Constructing local fitting domains...
 Maximum number of atoms in fitting domains:    4
 Average number of atoms in fitting domains:    4.0
 
 Second step of Coulomb + first step of exchange...
 Exchange contribution is evaluated for MOs 1 to 9.
   1% done.
  13% done.
  25% done.
  38% done.
  56% done.
  75% done.
  89% done.
 100% done.
 CPU time [min]:     0.365                   Wall time [min]:     0.021
 
 Fitting and assembly step of exchange...
 CPU time [min]:     0.366                   Wall time [min]:     0.021
 
 Gradient norm:      4.8268E+00
 DIIS is running in this iteration step.
 RMS of alpha [F,P] :                                  0.04932821276071
 RMS of beta  [F,P] :                                  0.04463433482790
 RMS of alpha difference density:                      0.11583509484256
 RMS of beta  difference density:                      0.09036479959008
 Gap [au]:  0.36342087
 ALPHA OCC:  10
 BETA  OCC:   9
 
 ***HARTREE-FOCK ENERGY IN STEP   2 IS       -157.4123708206616357 [AU]
 
 Step comparison  Energy Drift [au]  DIIS error drift  Gradient drift
        1           -3.4817E+01        -4.2304E-02      -2.7108E+00
        2            1.5741E+02         1.0000E-07      -2.7108E+00
 Warning! The energy goes uphill (with respect to previous step).
 Warning! The gradient goes uphill (with respect to previous step).
 Warning! The gradient goes uphill (with respect to step   1 ).
 ======================================================================
 ITERATION STEP   3
 CPU time [min]:     0.390                   Wall time [min]:     0.022
 

 SCF control                  : diis
 Damping factor/level shift   : 0.000/0.000
 DIIS [start/end/frequency]   :   2 / 50 /  1

 Constructing alpha Fock-matrix...
 Inverse square root: The matrix is not positive definite!
 
 Pipek-Mezey localization...
 Step  Convergence
   1   0.029629225851
   2   0.000000027051
 CPU time [min]:     0.406                   Wall time [min]:     0.023
 
 Constructing local fitting domains...
 Local fitting domains are unchanged.
 
 First step of Coulomb + first step of exchange...
 Exchange contribution is evaluated for MOs 1 to 10.
   1% done.
  13% done.
  25% done.
  38% done.
  56% done.
  75% done.
  89% done.
 100% done.
 CPU time [min]:     0.476                   Wall time [min]:     0.026
 
 Fitting and assembly step of exchange...
 CPU time [min]:     0.478                   Wall time [min]:     0.026
 
 Constructing beta Fock-matrix...
 Inverse square root: The matrix is not positive definite!
 
 Pipek-Mezey localization...
 Step  Convergence
   1   0.000000000000
 CPU time [min]:     0.488                   Wall time [min]:     0.026
 
 Constructing local fitting domains...
 Local fitting domains are unchanged.
 
 Second step of Coulomb + first step of exchange...
 Exchange contribution is evaluated for MOs 1 to 9.
   1% done.
  13% done.
  25% done.
  38% done.
  56% done.
  75% done.
  89% done.
 100% done.
 CPU time [min]:     0.557                   Wall time [min]:     0.029
 
 Fitting and assembly step of exchange...
 CPU time [min]:     0.558                   Wall time [min]:     0.029
 
 Gradient norm:      4.2001E+00
 DIIS is running in this iteration step.
 RMS of alpha [F,P] :                                  0.03228580004055
 RMS of beta  [F,P] :                                  0.03163464208212
 RMS of alpha difference density:                      0.01871271386091
 RMS of beta  difference density:                      0.00747130954573
 Gap [au]:  0.46377891
 ALPHA OCC:  10
 BETA  OCC:   9
 
 ***HARTREE-FOCK ENERGY IN STEP   3 IS       -189.5215944263346728 [AU]
 
 Step comparison  Energy Drift [au]  DIIS error drift  Gradient drift
        2            3.2109E+01         2.1323E-02       6.2674E-01
 Warning! The gradient goes uphill (with respect to step   1 ).
 ======================================================================
 ITERATION STEP   4
 CPU time [min]:     0.567                   Wall time [min]:     0.029
 

 SCF control                  : diis
 Damping factor/level shift   : 0.000/0.000
 DIIS [start/end/frequency]   :   2 / 50 /  1

 Constructing alpha Fock-matrix...
 
 Pipek-Mezey localization...
 Step  Convergence
   1   0.012312824462
   2   0.009954635461
   3   0.000000000018
 CPU time [min]:     0.583                   Wall time [min]:     0.030
 
 Constructing local fitting domains...
 Local fitting domains are unchanged.
 
 First step of Coulomb + first step of exchange...
 Exchange contribution is evaluated for MOs 1 to 10.
   1% done.
  13% done.
  25% done.
  38% done.
  56% done.
  75% done.
  89% done.
 100% done.
 CPU time [min]:     0.651                   Wall time [min]:     0.033
 
 Fitting and assembly step of exchange...
 CPU time [min]:     0.653                   Wall time [min]:     0.033
 
 Constructing beta Fock-matrix...
 
 Pipek-Mezey localization...
 Step  Convergence
   1   0.000000000000
 CPU time [min]:     0.664                   Wall time [min]:     0.034
 
 Constructing local fitting domains...
 Local fitting domains are unchanged.
 
 Second step of Coulomb + first step of exchange...
 Exchange contribution is evaluated for MOs 1 to 9.
   1% done.
  13% done.
  25% done.
  38% done.
  56% done.
  75% done.
  89% done.
 100% done.
 CPU time [min]:     0.733                   Wall time [min]:     0.037
 
 Fitting and assembly step of exchange...
 CPU time [min]:     0.734                   Wall time [min]:     0.037
 
 Gradient norm:      1.6816E+00
 DIIS is running in this iteration step.
 RMS of alpha [F,P] :                                  0.01776655086460
 RMS of beta  [F,P] :                                  0.01754457036383
 RMS of alpha difference density:                      0.01401997859277
 RMS of beta  difference density:                      0.00518581967579
 Gap [au]:  0.42211659
 ALPHA OCC:  10
 BETA  OCC:   9
 
 ***HARTREE-FOCK ENERGY IN STEP   4 IS       -192.5381914647684596 [AU]
 
 Step comparison  Energy Drift [au]  DIIS error drift  Gradient drift
        3            3.0166E+00         2.0232E-02       2.5185E+00
 ======================================================================
 ITERATION STEP   5
 CPU time [min]:     0.742                   Wall time [min]:     0.037
 

 SCF control                  : diis
 Damping factor/level shift   : 0.000/0.000
 DIIS [start/end/frequency]   :   2 / 50 /  1

 Constructing alpha Fock-matrix...
 
 Pipek-Mezey localization...
 Step  Convergence
   1   0.011679035080
   2   0.009944049379
   3   0.000000000057
 CPU time [min]:     0.758                   Wall time [min]:     0.038
 
 Constructing local fitting domains...
 Local fitting domains are unchanged.
 
 First step of Coulomb + first step of exchange...
 Exchange contribution is evaluated for MOs 1 to 10.
   1% done.
  13% done.
  25% done.
  38% done.
  56% done.
  75% done.
  89% done.
 100% done.
 CPU time [min]:     0.827                   Wall time [min]:     0.041
 
 Fitting and assembly step of exchange...
 CPU time [min]:     0.829                   Wall time [min]:     0.041
 
 Constructing beta Fock-matrix...
 
 Pipek-Mezey localization...
 Step  Convergence
   1   0.000000000000
 CPU time [min]:     0.840                   Wall time [min]:     0.041
 
 Constructing local fitting domains...
 Local fitting domains are unchanged.
 
 Second step of Coulomb + first step of exchange...
 Exchange contribution is evaluated for MOs 1 to 9.
   1% done.
  13% done.
  25% done.
  38% done.
  56% done.
  75% done.
  89% done.
 100% done.
 CPU time [min]:     0.908                   Wall time [min]:     0.044
 
 Fitting and assembly step of exchange...
 CPU time [min]:     0.910                   Wall time [min]:     0.044
 
 Gradient norm:      6.6887E-01
 DIIS is running in this iteration step.
 RMS of alpha [F,P] :                                  0.00555748137649
 RMS of beta  [F,P] :                                  0.00529777343695
 RMS of alpha difference density:                      0.01055441573411
 RMS of beta  difference density:                      0.00192653648471
 Gap [au]:  0.27676498
 ALPHA OCC:  10
 BETA  OCC:   9
 
 ***HARTREE-FOCK ENERGY IN STEP   5 IS       -194.1006283267563504 [AU]
 
 Step comparison  Energy Drift [au]  DIIS error drift  Gradient drift
        4            1.5624E+00         1.7291E-02       1.0127E+00
 ======================================================================
 ITERATION STEP   6
 CPU time [min]:     0.918                   Wall time [min]:     0.045
 

 SCF control                  : diis
 Damping factor/level shift   : 0.000/0.000
 DIIS [start/end/frequency]   :   2 / 50 /  1

 Constructing alpha Fock-matrix...
 
 Pipek-Mezey localization...
 Step  Convergence
   1   0.000968255894
   2   0.000000016639
 CPU time [min]:     0.934                   Wall time [min]:     0.045
 
 Constructing local fitting domains...
 Local fitting domains are unchanged.
 
 First step of Coulomb + first step of exchange...
 Exchange contribution is evaluated for MOs 1 to 10.
   1% done.
  13% done.
  25% done.
  38% done.
  56% done.
  75% done.
  89% done.
 100% done.
 CPU time [min]:     1.003                   Wall time [min]:     0.048
 
 Fitting and assembly step of exchange...
 CPU time [min]:     1.005                   Wall time [min]:     0.048
 
 Constructing beta Fock-matrix...
 
 Pipek-Mezey localization...
 Step  Convergence
   1   0.000000000000
 CPU time [min]:     1.015                   Wall time [min]:     0.049
 
 Constructing local fitting domains...
 Local fitting domains are unchanged.
 
 Second step of Coulomb + first step of exchange...
 Exchange contribution is evaluated for MOs 1 to 9.
   1% done.
  13% done.
  25% done.
  38% done.
  56% done.
  75% done.
  89% done.
 100% done.
 CPU time [min]:     1.083                   Wall time [min]:     0.052
 
 Fitting and assembly step of exchange...
 CPU time [min]:     1.085                   Wall time [min]:     0.052
 
 Gradient norm:      8.8362E-02
 DIIS is running in this iteration step.
 RMS of alpha [F,P] :                                  0.00051242216282
 RMS of beta  [F,P] :                                  0.00034892958775
 RMS of alpha difference density:                      0.00271938132304
 RMS of beta  difference density:                      0.00024639437049
 Gap [au]:  0.27932612
 ALPHA OCC:  10
 BETA  OCC:   9
 
 ***HARTREE-FOCK ENERGY IN STEP   6 IS       -194.2546223679503896 [AU]
 
 Step comparison  Energy Drift [au]  DIIS error drift  Gradient drift
        5            1.5399E-01         7.0581E-03       5.8051E-01
 ======================================================================
 ITERATION STEP   7
 CPU time [min]:     1.094                   Wall time [min]:     0.052
 

 SCF control                  : diis
 Damping factor/level shift   : 0.000/0.000
 DIIS [start/end/frequency]   :   2 / 50 /  1

 Constructing alpha Fock-matrix...
 
 Pipek-Mezey localization...
 Step  Convergence
   1   0.010120084932
   2   0.009951442438
   3   0.000000000119
 CPU time [min]:     1.109                   Wall time [min]:     0.053
 
 Constructing local fitting domains...
 Local fitting domains are unchanged.
 
 First step of Coulomb + first step of exchange...
 Exchange contribution is evaluated for MOs 1 to 10.
   1% done.
  13% done.
  25% done.
  38% done.
  56% done.
  75% done.
  89% done.
 100% done.
 CPU time [min]:     1.178                   Wall time [min]:     0.056
 
 Fitting and assembly step of exchange...
 CPU time [min]:     1.180                   Wall time [min]:     0.056
 
 Constructing beta Fock-matrix...
 
 Pipek-Mezey localization...
 Step  Convergence
   1   0.000000000000
 CPU time [min]:     1.190                   Wall time [min]:     0.056
 
 Constructing local fitting domains...
 Local fitting domains are unchanged.
 
 Second step of Coulomb + first step of exchange...
 Exchange contribution is evaluated for MOs 1 to 9.
   1% done.
  13% done.
  25% done.
  38% done.
  56% done.
  75% done.
  89% done.
 100% done.
 CPU time [min]:     1.258                   Wall time [min]:     0.059
 
 Fitting and assembly step of exchange...
 CPU time [min]:     1.260                   Wall time [min]:     0.059
 
 Gradient norm:      3.2354E-02
 DIIS is running in this iteration step.
 RMS of alpha [F,P] :                                  0.00014700504268
 RMS of beta  [F,P] :                                  0.00009320202411
 RMS of alpha difference density:                      0.00098928566121
 RMS of beta  difference density:                      0.00004000257179
 Gap [au]:  0.27585520
 ALPHA OCC:  10
 BETA  OCC:   9
 
 ***HARTREE-FOCK ENERGY IN STEP   7 IS       -194.2584701936235660 [AU]
 
 Step comparison  Energy Drift [au]  DIIS error drift  Gradient drift
        6            3.8478E-03         4.4588E-04       5.6008E-02
 ======================================================================
 ITERATION STEP   8
 CPU time [min]:     1.269                   Wall time [min]:     0.060
 

 SCF control                  : diis
 Damping factor/level shift   : 0.000/0.000
 DIIS [start/end/frequency]   :   2 / 50 /  1

 Constructing alpha Fock-matrix...
 
 Pipek-Mezey localization...
 Step  Convergence
   1   0.126198502541
   2   0.010490792187
   3   0.000001086938
   4   0.000000000017
 CPU time [min]:     1.284                   Wall time [min]:     0.061
 
 Constructing local fitting domains...
 Local fitting domains are unchanged.
 
 First step of Coulomb + first step of exchange...
 Exchange contribution is evaluated for MOs 1 to 10.
   1% done.
  13% done.
  25% done.
  38% done.
  56% done.
  75% done.
  89% done.
 100% done.
 CPU time [min]:     1.353                   Wall time [min]:     0.063
 
 Fitting and assembly step of exchange...
 CPU time [min]:     1.355                   Wall time [min]:     0.064
 
 Constructing beta Fock-matrix...
 
 Pipek-Mezey localization...
 Step  Convergence
   1   0.000000000000
 CPU time [min]:     1.365                   Wall time [min]:     0.064
 
 Constructing local fitting domains...
 Local fitting domains are unchanged.
 
 Second step of Coulomb + first step of exchange...
 Exchange contribution is evaluated for MOs 1 to 9.
   1% done.
  13% done.
  25% done.
  38% done.
  56% done.
  75% done.
  89% done.
 100% done.
 CPU time [min]:     1.433                   Wall time [min]:     0.067
 
 Fitting and assembly step of exchange...
 CPU time [min]:     1.435                   Wall time [min]:     0.067
 
 Gradient norm:      8.6574E-03
 DIIS is running in this iteration step.
 RMS of alpha [F,P] :                                  0.00004357601367
 RMS of beta  [F,P] :                                  0.00004392126053
 RMS of alpha difference density:                      0.00029861639646
 RMS of beta  difference density:                      0.00003406324593
 Gap [au]:  0.27422945
 ALPHA OCC:  10
 BETA  OCC:   9
 
 ***HARTREE-FOCK ENERGY IN STEP   8 IS       -194.2589953869073724 [AU]
 
 Step comparison  Energy Drift [au]  DIIS error drift  Gradient drift
        7            5.2519E-04         1.1219E-04       2.3696E-02
 ======================================================================
 ITERATION STEP   9
 CPU time [min]:     1.444                   Wall time [min]:     0.067
 

 SCF control                  : diis
 Damping factor/level shift   : 0.000/0.000
 DIIS [start/end/frequency]   :   2 / 50 /  1

 Constructing alpha Fock-matrix...
 
 Pipek-Mezey localization...
 Step  Convergence
   1   1.391209404769
   2   0.991944280695
   3   0.288331513627
   4   0.183022844411
   5   0.013539663463
   6   0.002140154634
   7   0.000284487487
   8   0.000072276710
   9   0.000015861691
  10   0.000003455710
  11   0.000000816141
  12   0.000000175002
  13   0.000000037867
  14   0.000000008211
  15   0.000000001741
  16   0.000000000369
  17   0.000000000085
  18   0.000000000019
  19   0.000000000004
  20   0.000000000001
 CPU time [min]:     1.460                   Wall time [min]:     0.068
 
 Constructing local fitting domains...
 Local fitting domains are unchanged.
 
 First step of Coulomb + first step of exchange...
 Exchange contribution is evaluated for MOs 1 to 10.
   1% done.
  13% done.
  25% done.
  38% done.
  56% done.
  75% done.
  89% done.
 100% done.
 CPU time [min]:     1.529                   Wall time [min]:     0.071
 
 Fitting and assembly step of exchange...
 CPU time [min]:     1.530                   Wall time [min]:     0.071
 
 Constructing beta Fock-matrix...
 
 Pipek-Mezey localization...
 Step  Convergence
   1   1.884934495903
   2   0.324180248673
   3   0.313955314161
   4   0.011421581418
   5   0.000302729484
   6   0.000012987045
   7   0.000000527310
   8   0.000000030006
   9   0.000000001644
  10   0.000000000102
  11   0.000000000006
  12   0.000000000001
 CPU time [min]:     1.541                   Wall time [min]:     0.072
 
 Constructing local fitting domains...
 Local fitting domains are unchanged.
 
 Second step of Coulomb + first step of exchange...
 Exchange contribution is evaluated for MOs 1 to 9.
   1% done.
  13% done.
  25% done.
  38% done.
  56% done.
  75% done.
  89% done.
 100% done.
 CPU time [min]:     1.609                   Wall time [min]:     0.074
 
 Fitting and assembly step of exchange...
 CPU time [min]:     1.611                   Wall time [min]:     0.075
 
 Gradient norm:      1.9283E-03
 DIIS is running in this iteration step.
 RMS of alpha [F,P] :                                  0.00000886147779
 RMS of beta  [F,P] :                                  0.00001438631249
 RMS of alpha difference density:                      0.00004119278577
 RMS of beta  difference density:                      0.00002432219429
 Gap [au]:  0.27386812
 ALPHA OCC:  10
 BETA  OCC:   9
 
 ***HARTREE-FOCK ENERGY IN STEP   9 IS       -194.2590488741234935 [AU]
 
 Step comparison  Energy Drift [au]  DIIS error drift  Gradient drift
        8            5.3487E-05         4.4974E-05       6.7291E-03
 ======================================================================
 ITERATION STEP  10
 CPU time [min]:     1.620                   Wall time [min]:     0.075
 

 SCF control                  : diis
 Damping factor/level shift   : 0.000/0.000
 DIIS [start/end/frequency]   :   2 / 50 /  1

 Constructing alpha Fock-matrix...
 
 Pipek-Mezey localization...
 Step  Convergence
   1   0.061759240369
   2   0.628954488779
   3   0.088888628801
   4   0.082976587705
   5   0.001111527749
   6   0.000065336159
   7   0.000006810388
   8   0.000002007117
   9   0.000000400971
  10   0.000000099551
  11   0.000000021652
  12   0.000000005822
  13   0.000000001196
  14   0.000000000349
  15   0.000000000077
  16   0.000000000018
  17   0.000000000004
  18   0.000000000001
  19   0.000000000000
 CPU time [min]:     1.636                   Wall time [min]:     0.076
 
 Constructing local fitting domains...
 Local fitting domains are unchanged.
 
 First step of Coulomb + first step of exchange...
 Exchange contribution is evaluated for MOs 1 to 10.
   1% done.
  13% done.
  25% done.
  38% done.
  56% done.
  75% done.
  89% done.
 100% done.
 CPU time [min]:     1.704                   Wall time [min]:     0.079
 
 Fitting and assembly step of exchange...
 CPU time [min]:     1.706                   Wall time [min]:     0.079
 
 Constructing beta Fock-matrix...
 
 Pipek-Mezey localization...
 Step  Convergence
   1   0.021332583528
   2   0.020162594943
   3   0.000146510677
   4   0.000022388142
   5   0.000009851904
   6   0.000000100229
   7   0.000000009414
   8   0.000000002106
   9   0.000000000027
  10   0.000000000001
 CPU time [min]:     1.717                   Wall time [min]:     0.079
 
 Constructing local fitting domains...
 Local fitting domains are unchanged.
 
 Second step of Coulomb + first step of exchange...
 Exchange contribution is evaluated for MOs 1 to 9.
   1% done.
  13% done.
  25% done.
  38% done.
  56% done.
  75% done.
  89% done.
 100% done.
 CPU time [min]:     1.785                   Wall time [min]:     0.082
 
 Fitting and assembly step of exchange...
 CPU time [min]:     1.787                   Wall time [min]:     0.082
 
 Gradient norm:      7.8349E-04
 DIIS is running in this iteration step.
 RMS of alpha [F,P] :                                  0.00000532201523
 RMS of beta  [F,P] :                                  0.00000487990495
 RMS of alpha difference density:                      0.00002586512983
 RMS of beta  difference density:                      0.00001752206001
 Gap [au]:  0.27402204
 ALPHA OCC:  10
 BETA  OCC:   9
 
 ***HARTREE-FOCK ENERGY IN STEP  10 IS       -194.2590546444002371 [AU]
 
 Step comparison  Energy Drift [au]  DIIS error drift  Gradient drift
        9            5.7703E-06         9.6759E-06       1.1448E-03
 ======================================================================
 ITERATION STEP  11
 CPU time [min]:     1.795                   Wall time [min]:     0.083
 

 SCF control                  : diis
 Damping factor/level shift   : 0.000/0.000
 DIIS [start/end/frequency]   :   2 / 50 /  1

 Constructing alpha Fock-matrix...
 
 Pipek-Mezey localization...
 Step  Convergence
   1   0.113151250672
   2   0.864809749944
   3   0.298036291935
   4   0.034777249860
   5   0.003239338333
   6   0.000198037722
   7   0.000052715499
   8   0.000007814448
   9   0.000002086775
  10   0.000000508579
  11   0.000000109319
  12   0.000000028467
  13   0.000000006118
  14   0.000000001398
  15   0.000000000346
  16   0.000000000080
  17   0.000000000020
  18   0.000000000005
  19   0.000000000001
  20   0.000000000000
 CPU time [min]:     1.811                   Wall time [min]:     0.083
 
 Constructing local fitting domains...
 Local fitting domains are unchanged.
 
 First step of Coulomb + first step of exchange...
 Exchange contribution is evaluated for MOs 1 to 10.
   1% done.
  13% done.
  25% done.
  38% done.
  56% done.
  75% done.
  89% done.
 100% done.
 CPU time [min]:     1.880                   Wall time [min]:     0.086
 
 Fitting and assembly step of exchange...
 CPU time [min]:     1.882                   Wall time [min]:     0.086
 
 Constructing beta Fock-matrix...
 
 Pipek-Mezey localization...
 Step  Convergence
   1   0.030380921041
   2   0.030640087711
   3   0.000180551915
   4   0.000017084484
   5   0.000010868121
   6   0.000000068603
   7   0.000000001744
   8   0.000000000057
   9   0.000000000001
  10   0.000000000000
 CPU time [min]:     1.893                   Wall time [min]:     0.087
 
 Constructing local fitting domains...
 Local fitting domains are unchanged.
 
 Second step of Coulomb + first step of exchange...
 Exchange contribution is evaluated for MOs 1 to 9.
   1% done.
  13% done.
  25% done.
  38% done.
  56% done.
  75% done.
  89% done.
 100% done.
 CPU time [min]:     1.961                   Wall time [min]:     0.090
 
 Fitting and assembly step of exchange...
 CPU time [min]:     1.963                   Wall time [min]:     0.090
 
 Gradient norm:      2.8136E-04
 DIIS is running in this iteration step.
 RMS of alpha [F,P] :                                  0.00000173476049
 RMS of beta  [F,P] :                                  0.00000253367312
 RMS of alpha difference density:                      0.00000793855483
 RMS of beta  difference density:                      0.00000750216675
 Gap [au]:  0.27403414
 ALPHA OCC:  10
 BETA  OCC:   9
 
 ***HARTREE-FOCK ENERGY IN STEP  11 IS       -194.2590559624733828 [AU]
 
 Step comparison  Energy Drift [au]  DIIS error drift  Gradient drift
       10            1.3181E-06         4.1500E-06       5.0213E-04
 ======================================================================
 ITERATION STEP  12
 CPU time [min]:     1.971                   Wall time [min]:     0.090
 

 SCF control                  : diis
 Damping factor/level shift   : 0.000/0.000
 DIIS [start/end/frequency]   :   2 / 50 /  1

 Constructing alpha Fock-matrix...
 
 Pipek-Mezey localization...
 Step  Convergence
   1   0.121105332886
   2   1.704470396471
   3   0.359766125206
   4   0.291202299953
   5   0.193364485627
   6   0.001980959623
   7   0.195092984393
   8   0.000222106773
   9   0.000033943334
  10   0.000032870382
  11   0.000005028247
  12   0.000000623022
  13   0.000000091140
  14   0.000000004561
  15   0.000000000795
  16   0.000000000167
  17   0.000000000032
  18   0.000000000007
  19   0.000000000002
  20   0.000000000000
 CPU time [min]:     1.987                   Wall time [min]:     0.091
 
 Constructing local fitting domains...
 Local fitting domains are unchanged.
 
 First step of Coulomb + first step of exchange...
 Exchange contribution is evaluated for MOs 1 to 10.
   1% done.
  13% done.
  25% done.
  38% done.
  56% done.
  75% done.
  89% done.
 100% done.
 CPU time [min]:     2.056                   Wall time [min]:     0.094
 
 Fitting and assembly step of exchange...
 CPU time [min]:     2.057                   Wall time [min]:     0.094
 
 Constructing beta Fock-matrix...
 
 Pipek-Mezey localization...
 Step  Convergence
   1   0.052463034158
   2   0.049100493372
   3   0.001539538202
   4   0.000041732699
   5   0.000002039008
   6   0.000000091399
   7   0.000000058997
   8   0.000000046022
   9   0.000000000611
  10   0.000000000027
  11   0.000000000002
  12   0.000000000000
 CPU time [min]:     2.068                   Wall time [min]:     0.094
 
 Constructing local fitting domains...
 Local fitting domains are unchanged.
 
 Second step of Coulomb + first step of exchange...
 Exchange contribution is evaluated for MOs 1 to 9.
   1% done.
  13% done.
  25% done.
  38% done.
  56% done.
  75% done.
  89% done.
 100% done.
 CPU time [min]:     2.137                   Wall time [min]:     0.097
 
 Fitting and assembly step of exchange...
 CPU time [min]:     2.138                   Wall time [min]:     0.097
 
 Gradient norm:      1.4102E-04
 DIIS is running in this iteration step.
 RMS of alpha [F,P] :                                  0.00000075256664
 RMS of beta  [F,P] :                                  0.00000075740083
 RMS of alpha difference density:                      0.00000235084689
 RMS of beta  difference density:                      0.00000451211016
 Gap [au]:  0.27406645
 ALPHA OCC:  10
 BETA  OCC:   9
 
 ***HARTREE-FOCK ENERGY IN STEP  12 IS       -194.2590561326631473 [AU]
 
 Step comparison  Energy Drift [au]  DIIS error drift  Gradient drift
       11            1.7019E-07         2.0029E-06       1.4034E-04
 ======================================================================
 ITERATION STEP  13
 CPU time [min]:     2.147                   Wall time [min]:     0.098
 

 SCF control                  : diis
 Damping factor/level shift   : 0.000/0.000
 DIIS [start/end/frequency]   :   2 / 50 /  1

 Constructing alpha Fock-matrix...
 
 Pipek-Mezey localization...
 Step  Convergence
   1   0.106878877298
   2   1.240501949163
   3   0.359392784705
   4   0.210522314126
   5   0.025095306659
   6   0.003421438746
   7   0.000693598039
   8   0.000157716025
   9   0.000036173179
  10   0.000010063461
  11   0.000002962206
  12   0.000000551662
  13   0.000000093804
  14   0.000000020573
  15   0.000000004845
  16   0.000000001098
  17   0.000000000256
  18   0.000000000058
  19   0.000000000014
  20   0.000000000004
  21   0.000000000001
  22   0.000000000000
 CPU time [min]:     2.163                   Wall time [min]:     0.099
 
 Constructing local fitting domains...
 Local fitting domains are unchanged.
 
 First step of Coulomb + first step of exchange...
 Exchange contribution is evaluated for MOs 1 to 10.
   1% done.
  13% done.
  25% done.
  38% done.
  56% done.
  75% done.
  89% done.
 100% done.
 CPU time [min]:     2.232                   Wall time [min]:     0.101
 
 Fitting and assembly step of exchange...
 CPU time [min]:     2.234                   Wall time [min]:     0.102
 
 Constructing beta Fock-matrix...
 
 Pipek-Mezey localization...
 Step  Convergence
   1   0.061746097863
   2   0.060269221073
   3   0.001983430809
   4   0.000079959223
   5   0.000004731234
   6   0.000000276998
   7   0.000000019501
   8   0.000000001333
   9   0.000000000094
  10   0.000000000008
  11   0.000000000000
 CPU time [min]:     2.244                   Wall time [min]:     0.102
 
 Constructing local fitting domains...
 Local fitting domains are unchanged.
 
 Second step of Coulomb + first step of exchange...
 Exchange contribution is evaluated for MOs 1 to 9.
   1% done.
  13% done.
  25% done.
  38% done.
  56% done.
  75% done.
  89% done.
 100% done.
 CPU time [min]:     2.313                   Wall time [min]:     0.105
 
 Fitting and assembly step of exchange...
 CPU time [min]:     2.314                   Wall time [min]:     0.105
 
 Gradient norm:      4.9955E-05
 DIIS is running in this iteration step.
 RMS of alpha [F,P] :                                  0.00000015457571
 RMS of beta  [F,P] :                                  0.00000024872940
 RMS of alpha difference density:                      0.00000044956322
 RMS of beta  difference density:                      0.00000114448616
 Gap [au]:  0.27405037
 ALPHA OCC:  10
 BETA  OCC:   9
 
 ***HARTREE-FOCK ENERGY IN STEP  13 IS       -194.2590561618885090 [AU]
 
 Step comparison  Energy Drift [au]  DIIS error drift  Gradient drift
       12            2.9225E-08         7.7487E-07       9.1061E-05
 ======================================================================
 ITERATION STEP  14
 CPU time [min]:     2.324                   Wall time [min]:     0.105
 

 SCF control                  : diis
 Damping factor/level shift   : 0.000/0.000
 DIIS [start/end/frequency]   :   2 / 50 /  1

 Constructing alpha Fock-matrix...
 
 Pipek-Mezey localization...
 Step  Convergence
   1   0.143022285978
   2   2.546273293236
   3   1.393824254328
   4   0.558096331918
   5   0.375473753166
   6   0.170467672096
   7   0.023457230664
   8   0.000329167205
   9   0.000082929623
  10   0.000008573443
  11   0.000000986368
  12   0.000000121803
  13   0.000000023295
  14   0.000000005025
  15   0.000000001198
  16   0.000000000273
  17   0.000000000068
  18   0.000000000016
  19   0.000000000004
  20   0.000000000001
 CPU time [min]:     2.340                   Wall time [min]:     0.106
 
 Constructing local fitting domains...
 Local fitting domains are unchanged.
 
 First step of Coulomb + first step of exchange...
 Exchange contribution is evaluated for MOs 1 to 10.
   1% done.
  13% done.
  25% done.
  38% done.
  56% done.
  75% done.
  89% done.
 100% done.
 CPU time [min]:     2.409                   Wall time [min]:     0.109
 
 Fitting and assembly step of exchange...
 CPU time [min]:     2.411                   Wall time [min]:     0.109
 
 Constructing beta Fock-matrix...
 
 Pipek-Mezey localization...
 Step  Convergence
   1   0.087569352987
   2   0.073241932476
   3   0.002861794013
   4   0.000152112727
   5   0.000011528570
   6   0.000000791530
   7   0.000000717973
   8   0.000000025535
   9   0.000000001571
  10   0.000000000112
  11   0.000000000008
  12   0.000000000001
 CPU time [min]:     2.422                   Wall time [min]:     0.110
 
 Constructing local fitting domains...
 Local fitting domains are unchanged.
 
 Second step of Coulomb + first step of exchange...
 Exchange contribution is evaluated for MOs 1 to 9.
   1% done.
  13% done.
  25% done.
  38% done.
  56% done.
  75% done.
  89% done.
 100% done.
 CPU time [min]:     2.490                   Wall time [min]:     0.113
 
 Fitting and assembly step of exchange...
 CPU time [min]:     2.492                   Wall time [min]:     0.113
 
 Gradient norm:      2.2025E-05
 DIIS is running in this iteration step.
 RMS of alpha [F,P] :                                  0.00000008862201
 RMS of beta  [F,P] :                                  0.00000012337775
 RMS of alpha difference density:                      0.00000046371391
 RMS of beta  difference density:                      0.00000074854865
 Gap [au]:  0.27405386
 ALPHA OCC:  10
 BETA  OCC:   9
 
 ***HARTREE-FOCK ENERGY IN STEP  14 IS       -194.2590561644306604 [AU]
 
 Step comparison  Energy Drift [au]  DIIS error drift  Gradient drift
       13            2.5422E-09         1.4094E-07       2.7929E-05
 ======================================================================
 ITERATION STEP  15
 CPU time [min]:     2.500                   Wall time [min]:     0.113
 

 SCF control                  : diis
 Damping factor/level shift   : 0.000/0.000
 DIIS [start/end/frequency]   :   2 / 50 /  1

 Constructing alpha Fock-matrix...
 
 Pipek-Mezey localization...
 Step  Convergence
   1   0.138346776900
   2   1.478886197765
   3   0.227766008719
   4   0.222183620287
   5   0.452719994998
   6   0.002379468449
   7   0.000694625588
   8   0.000054544723
   9   0.000013878305
  10   0.000001295303
  11   0.000000246403
  12   0.000000068661
  13   0.000000014109
  14   0.000000003633
  15   0.000000000799
  16   0.000000000190
  17   0.000000000051
  18   0.000000000012
  19   0.000000000003
  20   0.000000000001
 CPU time [min]:     2.517                   Wall time [min]:     0.114
 
 Constructing local fitting domains...
 Local fitting domains are unchanged.
 
 First step of Coulomb + first step of exchange...
 Exchange contribution is evaluated for MOs 1 to 10.
   1% done.
  13% done.
  25% done.
  38% done.
  56% done.
  75% done.
  89% done.
 100% done.
 CPU time [min]:     2.586                   Wall time [min]:     0.117
 
 Fitting and assembly step of exchange...
 CPU time [min]:     2.587                   Wall time [min]:     0.117
 
 Constructing beta Fock-matrix...
 
 Pipek-Mezey localization...
 Step  Convergence
   1   0.089010777743
   2   0.070219936394
   3   0.003158244676
   4   0.000160011378
   5   0.000011255848
   6   0.000000606845
   7   0.000000097139
   8   0.000000005409
   9   0.000000000380
  10   0.000000000028
  11   0.000000000002
  12   0.000000000000
 CPU time [min]:     2.598                   Wall time [min]:     0.117
 
 Constructing local fitting domains...
 Local fitting domains are unchanged.
 
 Second step of Coulomb + first step of exchange...
 Exchange contribution is evaluated for MOs 1 to 9.
   1% done.
  13% done.
  25% done.
  38% done.
  56% done.
  75% done.
  89% done.
 100% done.
 CPU time [min]:     2.667                   Wall time [min]:     0.120
 
 Fitting and assembly step of exchange...
 CPU time [min]:     2.668                   Wall time [min]:     0.120
 
 Gradient norm:      5.0336E-06
 DIIS is running in this iteration step.
 RMS of alpha [F,P] :                                  0.00000002279960
 RMS of beta  [F,P] :                                  0.00000003641483
 RMS of alpha difference density:                      0.00000013291423
 RMS of beta  difference density:                      0.00000021748118
 Gap [au]:  0.27405026
 ALPHA OCC:  10
 BETA  OCC:   9
 
 ***HARTREE-FOCK ENERGY IN STEP  15 IS       -194.2590561652385190 [AU]
 
 Step comparison  Energy Drift [au]  DIIS error drift  Gradient drift
       14            8.0786E-10         1.0894E-07       1.6992E-05
 ======================================================================
 ITERATION STEP  16
 CPU time [min]:     2.677                   Wall time [min]:     0.121
 

 SCF control                  : diis
 Damping factor/level shift   : 0.000/0.000
 DIIS [start/end/frequency]   :   2 / 50 /  1

 Constructing alpha Fock-matrix...
 
 Pipek-Mezey localization...
 Step  Convergence
   1   0.129943095132
   2   0.926266927338
   3   0.241919596994
   4   0.264190917446
   5   0.060396799250
   6   0.035659307899
   7   0.000056058001
   8   0.000000671138
   9   0.000000010576
  10   0.000000039197
  11   0.000000037006
  12   0.000000001464
  13   0.000000000118
  14   0.000000000053
  15   0.000000000002
  16   0.000000000002
  17   0.000000000000
 CPU time [min]:     2.693                   Wall time [min]:     0.121
 
 Constructing local fitting domains...
 Local fitting domains are unchanged.
 
 First step of Coulomb + first step of exchange...
 Exchange contribution is evaluated for MOs 1 to 10.
   1% done.
  13% done.
  25% done.
  38% done.
  56% done.
  75% done.
  89% done.
 100% done.
 CPU time [min]:     2.762                   Wall time [min]:     0.124
 
 Fitting and assembly step of exchange...
 CPU time [min]:     2.764                   Wall time [min]:     0.124
 
 Constructing beta Fock-matrix...
 
 Pipek-Mezey localization...
 Step  Convergence
   1   0.094436362038
   2   0.067760950224
   3   0.003319815486
   4   0.000211290771
   5   0.000015252479
   6   0.000000704597
   7   0.000000269959
   8   0.000000016464
   9   0.000000001129
  10   0.000000000076
  11   0.000000000005
  12   0.000000000000
 CPU time [min]:     2.775                   Wall time [min]:     0.125
 
 Constructing local fitting domains...
 Local fitting domains are unchanged.
 
 Second step of Coulomb + first step of exchange...
 Exchange contribution is evaluated for MOs 1 to 9.
   1% done.
  13% done.
  25% done.
  38% done.
  56% done.
  75% done.
  89% done.
 100% done.
 CPU time [min]:     2.843                   Wall time [min]:     0.128
 
 Fitting and assembly step of exchange...
 CPU time [min]:     2.845                   Wall time [min]:     0.128
 
 Gradient norm:      1.0794E-06
 DIIS is running in this iteration step.
 RMS of alpha [F,P] :                                  0.00000000851174
 RMS of beta  [F,P] :                                  0.00000000819524
 RMS of alpha difference density:                      0.00000003355047
 RMS of beta  difference density:                      0.00000003641803
 Gap [au]:  0.27405126
 ALPHA OCC:  10
 BETA  OCC:   9
 
 ***HARTREE-FOCK ENERGY IN STEP  16 IS       -194.2590561653031216 [AU]
 
 Step comparison  Energy Drift [au]  DIIS error drift  Gradient drift
       15            6.4603E-11         3.1148E-08       3.9542E-06
 ======================================================================
 
 SUCCESS...
 THE SCF ITERATION HAS CONVERGED!
 
                   A   
 FINAL ALPHA OCC:  10
 FINAL BETA  OCC:   9
 
 ***FINAL HARTREE-FOCK ENERGY:       -194.2590561653031216 [AU]
 
 Expectation value of S^2:  0.7511
 Average multiplicity:      2.0011
 
 Orbital energies [au]:
      Irrep         Alpha          Beta
    1   A         -4.981200      -4.977638
    2   A         -3.196176      -3.199273
    3   A         -3.196150      -3.199229
    4   A         -3.195755      -3.199216
    5   A         -0.467562      -0.468220
    6   A         -0.467126      -0.467945
    7   A         -0.466601      -0.467879
    8   A         -0.465102      -0.466707
    9   A         -0.464685      -0.466614
 
   10   A         -0.235906       0.013031
 
   11   A          0.038146       0.056427
   12   A          0.048231       0.063116
   13   A          0.052920       0.065440
   14   A          0.106254       0.143700
   15   A          0.196254       0.230314
   16   A          0.212926       0.244967
   17   A          0.220286       0.252831
   18   A          0.285110       0.309894
   19   A          0.286771       0.316654
   20   A          0.323772       0.348601
   21   A          0.360230       0.369965
   22   A          0.383624       0.393922
   23   A          0.412508       0.420229
   24   A          0.507448       0.517916
   25   A          0.510715       0.522557
   26   A          0.537967       0.542304
   27   A          0.653775       0.665714
   28   A          0.679529       0.692973
   29   A          0.695508       0.701235
   30   A          1.106874       1.117223
   31   A          1.171721       1.181418
   32   A          1.181540       1.194065
   33   A          1.190503       1.195065
   34   A          1.257706       1.265189
   35   A          1.295745       1.303507
   36   A          1.347347       1.355049
   37   A          1.353670       1.359989
   38   A          1.399602       1.406880
   39   A          1.437720       1.444156
   40   A          1.487320       1.493709
   41   A          1.493144       1.499804
   42   A          1.535036       1.541181
   43   A          1.622955       1.628460
   44   A          1.665442       1.671365
   45   A          1.785090       1.788562
   46   A          1.786944       1.793643
   47   A          1.824559       1.831961
   48   A          1.988628       1.990597
   49   A          2.012203       2.019561
   50   A          2.789684       2.791804
   51   A          2.958930       2.961405
   52   A          2.982782       2.984192
   53   A          5.911743       5.912919
   54   A          5.914425       5.915448
   55   A          5.957595       5.958353
   56   A          5.975195       5.976014
   57   A          5.980298       5.981644
   58   A          6.007250       6.008091
   59   A          6.074105       6.075239
   60   A          6.158059       6.158767
   61   A          6.190803       6.191722
   62   A          6.315751       6.314435
   63   A          6.315780       6.314452
   64   A          6.316451       6.314918
   65   A          6.318090       6.316576
   66   A          6.319630       6.318030
   67   A          6.324571       6.322998
   68   A          6.340777       6.339223
   69   A         10.036254      10.037109
   70   A         10.036273      10.037150
   71   A         10.036766      10.037571
   72   A         10.037020      10.037798
   73   A         10.038918      10.039558
   74   A         10.040116      10.040756
   75   A         10.043376      10.043853
   76   A         10.043600      10.044073
   77   A         10.044083      10.044484
   78   A         10.044201      10.044599
   79   A         10.044352      10.044717
   80   A         10.044409      10.044843
   81   A         10.044577      10.045024
   82   A         10.044795      10.045190
   83   A         10.045618      10.045992
   84   A         10.046138      10.046503
   85   A         10.046195      10.046541
   86   A         10.047186      10.047501
   87   A         10.047983      10.048358
   88   A         10.049544      10.050143
   89   A         10.061223      10.061575
   90   A         13.514605      13.515118
   91   A         13.580490      13.580937
   92   A         13.595451      13.596055
   93   A         13.606739      13.607379
   94   A         13.689838      13.690572
   95   A         13.708520      13.708950
   96   A         13.722088      13.722677
   97   A         13.752945      13.753489
   98   A         13.809585      13.810122
   99   A         13.841274      13.841684
  100   A         13.938671      13.939135
  101   A         14.001826      14.002644
  102   A         14.060968      14.061645
  103   A         14.099096      14.099598
  104   A         14.332886      14.333225
  105   A         25.706547      25.706856
  106   A         25.867650      25.867867
  107   A         25.875288      25.875647
  108   A         85.476631      85.476759
  109   A         85.479777      85.479908
  110   A         85.539064      85.539153
  111   A         85.567061      85.567157
  112   A         85.578727      85.578887
  113   A         85.617131      85.617234
  114   A         85.701540      85.701672
  115   A         85.824008      85.824095
  116   A         85.871464      85.871599
  117   A        100.349553     100.350661
  118   A        108.890876     108.889883
  119   A        108.929095     108.928088
  120   A        109.206795     109.205708
  121   A        315.990271     315.990499
  122   A        473.287586     473.287614
  123   A        473.503780     473.503800
  124   A        473.513767     473.513801
 
 RETURNING FROM SCF ALGORITHM
 ======================================================================

 ************************ 2022-11-12 15:22:24 *************************
 Executing integ...

 Allocation of 150.0 Gbytes of memory...
 
 
 Number of atoms:                  4
 Charge:                           0
 Number of electrons:             19
 Number of core electrons:         8
 Spin multiplicity:                2
 
                 Cartesian coordinates [bohr]      Atomic mass [AMU]  Z
   1  Cu    2.20563686    0.73520736    2.03716040     0.000000       0
   2  Cu    0.04119457   -0.24516386   -2.22578601    62.929599      29
   3  Cu   -0.80986997   -2.14415441    2.22578601     0.000000       0
   4  Cu   -2.20563686    2.14415441    0.35400640     0.000000       0
 
 This molecule is an asymmetric top.
 
 Point group: C1  
 Computational point group: C1  
 
 Cartesian coordinates in standard orientation [bohr]
   1  Cu    3.45132611   -1.08079839   -2.04778014
   2  Cu   -0.86987875   -0.12635209    0.01010009
   3  Cu    3.52035147   -0.79064617    2.11522748
   4  Cu    1.72710995    3.13496549   -0.16844820
 
 Nuclear repulsion energy [au]:          0.000000000000
 
 
 Basis set information:
 
 Maximum angular momentum: k
 Maximum number of contracted Gaussians:   16
 Maximum number of primitive Gaussians:    19
 Spherical harmonic GTOs are used.
 
 
 Conventional basis set:
 
   1  Cu bse_acvqz [ 17s 14p 14d 5f 4g 3h | 9s 9p 8d 5f 4g 3h ]
   2  Cu bse_acvqz [ 17s 14p 14d 5f 4g 3h | 9s 9p 8d 5f 4g 3h ]
   3  Cu bse_acvqz [ 17s 14p 14d 5f 4g 3h | 9s 9p 8d 5f 4g 3h ]
   4  Cu bse_acvqz [ 17s 14p 14d 5f 4g 3h | 9s 9p 8d 5f 4g 3h ]
 
 Basis functions:
            1             2             3             4             5             6             7             8             9            10
    0    1Cu1s         1Cu2s         1Cu3s         1Cu4s         1Cu5s         1Cu6s         1Cu7s         1Cu8s         1Cu9s         1Cu1pz    
    1    1Cu1py        1Cu1px        1Cu2pz        1Cu2py        1Cu2px        1Cu3pz        1Cu3py        1Cu3px        1Cu4pz        1Cu4py    
    2    1Cu4px        1Cu5pz        1Cu5py        1Cu5px        1Cu6pz        1Cu6py        1Cu6px        1Cu7pz        1Cu7py        1Cu7px    
    3    1Cu8pz        1Cu8py        1Cu8px        1Cu9pz        1Cu9py        1Cu9px        1Cu1d-2       1Cu1d-1       1Cu1d0        1Cu1d+1   
    4    1Cu1d+2       1Cu2d-2       1Cu2d-1       1Cu2d0        1Cu2d+1       1Cu2d+2       1Cu3d-2       1Cu3d-1       1Cu3d0        1Cu3d+1   
    5    1Cu3d+2       1Cu4d-2       1Cu4d-1       1Cu4d0        1Cu4d+1       1Cu4d+2       1Cu5d-2       1Cu5d-1       1Cu5d0        1Cu5d+1   
    6    1Cu5d+2       1Cu6d-2       1Cu6d-1       1Cu6d0        1Cu6d+1       1Cu6d+2       1Cu7d-2       1Cu7d-1       1Cu7d0        1Cu7d+1   
    7    1Cu7d+2       1Cu8d-2       1Cu8d-1       1Cu8d0        1Cu8d+1       1Cu8d+2       1Cu1f-3       1Cu1f-2       1Cu1f-1       1Cu1f0    
    8    1Cu1f+1       1Cu1f+2       1Cu1f+3       1Cu2f-3       1Cu2f-2       1Cu2f-1       1Cu2f0        1Cu2f+1       1Cu2f+2       1Cu2f+3   
    9    1Cu3f-3       1Cu3f-2       1Cu3f-1       1Cu3f0        1Cu3f+1       1Cu3f+2       1Cu3f+3       1Cu4f-3       1Cu4f-2       1Cu4f-1   
   10    1Cu4f0        1Cu4f+1       1Cu4f+2       1Cu4f+3       1Cu5f-3       1Cu5f-2       1Cu5f-1       1Cu5f0        1Cu5f+1       1Cu5f+2   
   11    1Cu5f+3       1Cu1g-4       1Cu1g-3       1Cu1g-2       1Cu1g-1       1Cu1g0        1Cu1g+1       1Cu1g+2       1Cu1g+3       1Cu1g+4   
   12    1Cu2g-4       1Cu2g-3       1Cu2g-2       1Cu2g-1       1Cu2g0        1Cu2g+1       1Cu2g+2       1Cu2g+3       1Cu2g+4       1Cu3g-4   
   13    1Cu3g-3       1Cu3g-2       1Cu3g-1       1Cu3g0        1Cu3g+1       1Cu3g+2       1Cu3g+3       1Cu3g+4       1Cu4g-4       1Cu4g-3   
   14    1Cu4g-2       1Cu4g-1       1Cu4g0        1Cu4g+1       1Cu4g+2       1Cu4g+3       1Cu4g+4       1Cu1h-5       1Cu1h-4       1Cu1h-3   
   15    1Cu1h-2       1Cu1h-1       1Cu1h0        1Cu1h+1       1Cu1h+2       1Cu1h+3       1Cu1h+4       1Cu1h+5       1Cu2h-5       1Cu2h-4   
   16    1Cu2h-3       1Cu2h-2       1Cu2h-1       1Cu2h0        1Cu2h+1       1Cu2h+2       1Cu2h+3       1Cu2h+4       1Cu2h+5       1Cu3h-5   
   17    1Cu3h-4       1Cu3h-3       1Cu3h-2       1Cu3h-1       1Cu3h0        1Cu3h+1       1Cu3h+2       1Cu3h+3       1Cu3h+4       1Cu3h+5   
   18    2Cu1s         2Cu2s         2Cu3s         2Cu4s         2Cu5s         2Cu6s         2Cu7s         2Cu8s         2Cu9s         2Cu1pz    
   19    2Cu1py        2Cu1px        2Cu2pz        2Cu2py        2Cu2px        2Cu3pz        2Cu3py        2Cu3px        2Cu4pz        2Cu4py    
   20    2Cu4px        2Cu5pz        2Cu5py        2Cu5px        2Cu6pz        2Cu6py        2Cu6px        2Cu7pz        2Cu7py        2Cu7px    
   21    2Cu8pz        2Cu8py        2Cu8px        2Cu9pz        2Cu9py        2Cu9px        2Cu1d-2       2Cu1d-1       2Cu1d0        2Cu1d+1   
[...]
  144    4Cu2px        4Cu3pz        4Cu3py        4Cu3px        4Cu4pz        4Cu4py        4Cu4px        4Cu5pz        4Cu5py        4Cu5px    
  145    4Cu6pz        4Cu6py        4Cu6px        4Cu7pz        4Cu7py        4Cu7px        4Cu8pz        4Cu8py        4Cu8px        4Cu9pz    
  146    4Cu9py        4Cu9px        4Cu10pz       4Cu10py       4Cu10px       4Cu11pz       4Cu11py       4Cu11px       4Cu12pz       4Cu12py   
  147    4Cu12px       4Cu13pz       4Cu13py       4Cu13px       4Cu1d-2       4Cu1d-1       4Cu1d0        4Cu1d+1       4Cu1d+2       4Cu2d-2   
  148    4Cu2d-1       4Cu2d0        4Cu2d+1       4Cu2d+2       4Cu3d-2       4Cu3d-1       4Cu3d0        4Cu3d+1       4Cu3d+2       4Cu4d-2   
  149    4Cu4d-1       4Cu4d0        4Cu4d+1       4Cu4d+2       4Cu5d-2       4Cu5d-1       4Cu5d0        4Cu5d+1       4Cu5d+2       4Cu6d-2   
  150    4Cu6d-1       4Cu6d0        4Cu6d+1       4Cu6d+2       4Cu7d-2       4Cu7d-1       4Cu7d0        4Cu7d+1       4Cu7d+2       4Cu8d-2   
  151    4Cu8d-1       4Cu8d0        4Cu8d+1       4Cu8d+2       4Cu9d-2       4Cu9d-1       4Cu9d0        4Cu9d+1       4Cu9d+2       4Cu10d-2  
  152    4Cu10d-1      4Cu10d0       4Cu10d+1      4Cu10d+2      4Cu11d-2      4Cu11d-1      4Cu11d0       4Cu11d+1      4Cu11d+2      4Cu12d-2  
  153    4Cu12d-1      4Cu12d0       4Cu12d+1      4Cu12d+2      4Cu1f-3       4Cu1f-2       4Cu1f-1       4Cu1f0        4Cu1f+1       4Cu1f+2   
  154    4Cu1f+3       4Cu2f-3       4Cu2f-2       4Cu2f-1       4Cu2f0        4Cu2f+1       4Cu2f+2       4Cu2f+3       4Cu3f-3       4Cu3f-2   
  155    4Cu3f-1       4Cu3f0        4Cu3f+1       4Cu3f+2       4Cu3f+3       4Cu4f-3       4Cu4f-2       4Cu4f-1       4Cu4f0        4Cu4f+1   
  156    4Cu4f+2       4Cu4f+3       4Cu5f-3       4Cu5f-2       4Cu5f-1       4Cu5f0        4Cu5f+1       4Cu5f+2       4Cu5f+3       4Cu6f-3   
  157    4Cu6f-2       4Cu6f-1       4Cu6f0        4Cu6f+1       4Cu6f+2       4Cu6f+3       4Cu7f-3       4Cu7f-2       4Cu7f-1       4Cu7f0    
  158    4Cu7f+1       4Cu7f+2       4Cu7f+3       4Cu8f-3       4Cu8f-2       4Cu8f-1       4Cu8f0        4Cu8f+1       4Cu8f+2       4Cu8f+3   
  159    4Cu9f-3       4Cu9f-2       4Cu9f-1       4Cu9f0        4Cu9f+1       4Cu9f+2       4Cu9f+3       4Cu10f-3      4Cu10f-2      4Cu10f-1  
  160    4Cu10f0       4Cu10f+1      4Cu10f+2      4Cu10f+3      4Cu1g-4       4Cu1g-3       4Cu1g-2       4Cu1g-1       4Cu1g0        4Cu1g+1   
  161    4Cu1g+2       4Cu1g+3       4Cu1g+4       4Cu2g-4       4Cu2g-3       4Cu2g-2       4Cu2g-1       4Cu2g0        4Cu2g+1       4Cu2g+2   
  162    4Cu2g+3       4Cu2g+4       4Cu3g-4       4Cu3g-3       4Cu3g-2       4Cu3g-1       4Cu3g0        4Cu3g+1       4Cu3g+2       4Cu3g+3   
  163    4Cu3g+4       4Cu4g-4       4Cu4g-3       4Cu4g-2       4Cu4g-1       4Cu4g0        4Cu4g+1       4Cu4g+2       4Cu4g+3       4Cu4g+4   
  164    4Cu5g-4       4Cu5g-3       4Cu5g-2       4Cu5g-1       4Cu5g0        4Cu5g+1       4Cu5g+2       4Cu5g+3       4Cu5g+4       4Cu6g-4   
  165    4Cu6g-3       4Cu6g-2       4Cu6g-1       4Cu6g0        4Cu6g+1       4Cu6g+2       4Cu6g+3       4Cu6g+4       4Cu7g-4       4Cu7g-3   
  166    4Cu7g-2       4Cu7g-1       4Cu7g0        4Cu7g+1       4Cu7g+2       4Cu7g+3       4Cu7g+4       4Cu8g-4       4Cu8g-3       4Cu8g-2   
  167    4Cu8g-1       4Cu8g0        4Cu8g+1       4Cu8g+2       4Cu8g+3       4Cu8g+4       4Cu9g-4       4Cu9g-3       4Cu9g-2       4Cu9g-1   
  168    4Cu9g0        4Cu9g+1       4Cu9g+2       4Cu9g+3       4Cu9g+4       4Cu10g-4      4Cu10g-3      4Cu10g-2      4Cu10g-1      4Cu10g0   
  169    4Cu10g+1      4Cu10g+2      4Cu10g+3      4Cu10g+4      4Cu1h-5       4Cu1h-4       4Cu1h-3       4Cu1h-2       4Cu1h-1       4Cu1h0    
  170    4Cu1h+1       4Cu1h+2       4Cu1h+3       4Cu1h+4       4Cu1h+5       4Cu2h-5       4Cu2h-4       4Cu2h-3       4Cu2h-2       4Cu2h-1   
  171    4Cu2h0        4Cu2h+1       4Cu2h+2       4Cu2h+3       4Cu2h+4       4Cu2h+5       4Cu3h-5       4Cu3h-4       4Cu3h-3       4Cu3h-2   
  172    4Cu3h-1       4Cu3h0        4Cu3h+1       4Cu3h+2       4Cu3h+3       4Cu3h+4       4Cu3h+5       4Cu4h-5       4Cu4h-4       4Cu4h-3   
  173    4Cu4h-2       4Cu4h-1       4Cu4h0        4Cu4h+1       4Cu4h+2       4Cu4h+3       4Cu4h+4       4Cu4h+5       4Cu5h-5       4Cu5h-4   
  174    4Cu5h-3       4Cu5h-2       4Cu5h-1       4Cu5h0        4Cu5h+1       4Cu5h+2       4Cu5h+3       4Cu5h+4       4Cu5h+5       4Cu6h-5   
  175    4Cu6h-4       4Cu6h-3       4Cu6h-2       4Cu6h-1       4Cu6h0        4Cu6h+1       4Cu6h+2       4Cu6h+3       4Cu6h+4       4Cu6h+5   
  176    4Cu7h-5       4Cu7h-4       4Cu7h-3       4Cu7h-2       4Cu7h-1       4Cu7h0        4Cu7h+1       4Cu7h+2       4Cu7h+3       4Cu7h+4   
  177    4Cu7h+5       4Cu1i-6       4Cu1i-5       4Cu1i-4       4Cu1i-3       4Cu1i-2       4Cu1i-1       4Cu1i0        4Cu1i+1       4Cu1i+2   
  178    4Cu1i+3       4Cu1i+4       4Cu1i+5       4Cu1i+6       4Cu2i-6       4Cu2i-5       4Cu2i-4       4Cu2i-3       4Cu2i-2       4Cu2i-1   
  179    4Cu2i0        4Cu2i+1       4Cu2i+2       4Cu2i+3       4Cu2i+4       4Cu2i+5       4Cu2i+6       4Cu3i-6       4Cu3i-5       4Cu3i-4   
  180    4Cu3i-3       4Cu3i-2       4Cu3i-1       4Cu3i0        4Cu3i+1       4Cu3i+2       4Cu3i+3       4Cu3i+4       4Cu3i+5       4Cu3i+6   
  181    4Cu4i-6       4Cu4i-5       4Cu4i-4       4Cu4i-3       4Cu4i-2       4Cu4i-1       4Cu4i0        4Cu4i+1       4Cu4i+2       4Cu4i+3   
  182    4Cu4i+4       4Cu4i+5       4Cu4i+6       4Cu5i-6       4Cu5i-5       4Cu5i-4       4Cu5i-3       4Cu5i-2       4Cu5i-1       4Cu5i0    
  183    4Cu5i+1       4Cu5i+2       4Cu5i+3       4Cu5i+4       4Cu5i+5       4Cu5i+6       4Cu1k-7       4Cu1k-6       4Cu1k-5       4Cu1k-4   
  184    4Cu1k-3       4Cu1k-2       4Cu1k-1       4Cu1k0        4Cu1k+1       4Cu1k+2       4Cu1k+3       4Cu1k+4       4Cu1k+5       4Cu1k+6   
  185    4Cu1k+7       4Cu2k-7       4Cu2k-6       4Cu2k-5       4Cu2k-4       4Cu2k-3       4Cu2k-2       4Cu2k-1       4Cu2k0        4Cu2k+1   
  186    4Cu2k+2       4Cu2k+3       4Cu2k+4       4Cu2k+5       4Cu2k+6       4Cu2k+7       4Cu3k-7       4Cu3k-6       4Cu3k-5       4Cu3k-4   
  187    4Cu3k-3       4Cu3k-2       4Cu3k-1       4Cu3k0        4Cu3k+1       4Cu3k+2       4Cu3k+3       4Cu3k+4       4Cu3k+5       4Cu3k+6   
  188    4Cu3k+7       4Cu4k-7       4Cu4k-6       4Cu4k-5       4Cu4k-4       4Cu4k-3       4Cu4k-2       4Cu4k-1       4Cu4k0        4Cu4k+1   
  189    4Cu4k+2       4Cu4k+3       4Cu4k+4       4Cu4k+5       4Cu4k+6       4Cu4k+7   
 
 Maximum number of basis functions per shell:   90
 Total number of basis functions:   1896
 
 
 Old basis set for SCF restart
 
   1  Cu def2-svp [ 14s 9p 5d 1f | 5s 3p 2d 1f ]
   2  Cu def2-svp [ 14s 9p 5d 1f | 5s 3p 2d 1f ]
   3  Cu def2-svp [ 14s 9p 5d 1f | 5s 3p 2d 1f ]
   4  Cu def2-svp [ 14s 9p 5d 1f | 5s 3p 2d 1f ]
 
 Basis functions:
            1             2             3             4             5             6             7             8             9            10
    0    1Cu1s         1Cu2s         1Cu3s         1Cu4s         1Cu5s         1Cu1pz        1Cu1py        1Cu1px        1Cu2pz        1Cu2py    
    1    1Cu2px        1Cu3pz        1Cu3py        1Cu3px        1Cu1d-2       1Cu1d-1       1Cu1d0        1Cu1d+1       1Cu1d+2       1Cu2d-2   
    2    1Cu2d-1       1Cu2d0        1Cu2d+1       1Cu2d+2       1Cu1f-3       1Cu1f-2       1Cu1f-1       1Cu1f0        1Cu1f+1       1Cu1f+2   
    3    1Cu1f+3       2Cu1s         2Cu2s         2Cu3s         2Cu4s         2Cu5s         2Cu1pz        2Cu1py        2Cu1px        2Cu2pz    
    4    2Cu2py        2Cu2px        2Cu3pz        2Cu3py        2Cu3px        2Cu1d-2       2Cu1d-1       2Cu1d0        2Cu1d+1       2Cu1d+2   
    5    2Cu2d-2       2Cu2d-1       2Cu2d0        2Cu2d+1       2Cu2d+2       2Cu1f-3       2Cu1f-2       2Cu1f-1       2Cu1f0        2Cu1f+1   
    6    2Cu1f+2       2Cu1f+3       3Cu1s         3Cu2s         3Cu3s         3Cu4s         3Cu5s         3Cu1pz        3Cu1py        3Cu1px    
    7    3Cu2pz        3Cu2py        3Cu2px        3Cu3pz        3Cu3py        3Cu3px        3Cu1d-2       3Cu1d-1       3Cu1d0        3Cu1d+1   
    8    3Cu1d+2       3Cu2d-2       3Cu2d-1       3Cu2d0        3Cu2d+1       3Cu2d+2       3Cu1f-3       3Cu1f-2       3Cu1f-1       3Cu1f0    
    9    3Cu1f+1       3Cu1f+2       3Cu1f+3       4Cu1s         4Cu2s         4Cu3s         4Cu4s         4Cu5s         4Cu1pz        4Cu1py    
   10    4Cu1px        4Cu2pz        4Cu2py        4Cu2px        4Cu3pz        4Cu3py        4Cu3px        4Cu1d-2       4Cu1d-1       4Cu1d0    
   11    4Cu1d+1       4Cu1d+2       4Cu2d-2       4Cu2d-1       4Cu2d0        4Cu2d+1       4Cu2d+2       4Cu1f-3       4Cu1f-2       4Cu1f-1   
   12    4Cu1f0        4Cu1f+1       4Cu1f+2       4Cu1f+3   
 
 Maximum number of basis functions per shell:   90
 Total number of basis functions:    124
 
 
 Effective core potentials:
 
   2  Cu mcdhf-ecp-10        
 
 Calculation of prescreening integrals...
 CPU time [min]:    15.414                   Wall time [min]:     1.030
 
 Calculation of two-center Coulomb integrals...
   1% done.
  12% done.
  25% done.
  36% done.
  47% done.
  60% done.
  72% done.
  87% done.
 100% done.
 CPU time [min]:    15.449                   Wall time [min]:     1.031
 
 Cholesky decomposition of the inverse of the two-center matrix...
 CPU time [min]:    15.503                   Wall time [min]:     1.033
 
 Calculation of three-center Coulomb integrals...
   1% done.
  13% done.
  25% done.
  37% done.
  50% done.
  64% done.
  82% done.
 100% done.
 CPU time [min]:    20.988                   Wall time [min]:     1.525

 ************************ 2022-11-12 15:26:20 *************************
 Executing drpa...

 Three-index integral transformation
 
 Allocation of 150.0 Gbytes of memory...

 Alpha-alpha contribution
 Minimal memory requirement for (ai|P) and (ij|P) integrals:      115.5 MB

 Calculating (ai|P) and (ij|P) integrals...
 Number of integral batches:    1
 Occupied indices per batch:   10
 
 Transforming integrals of batch 1...
 CPU time [min]:     4.825                   Wall time [min]:     0.290


 Beta-beta and alpha-beta contribution
 Minimal memory requirement for (ai|P) and (ij|P) integrals:      284.6 MB

 Calculating (ai|P) and (ij|P) integrals...
 Number of integral batches:    1
 Occupied indices per batch:    9
 
 Transforming integrals of batch 1...
 CPU time [min]:    17.059                   Wall time [min]:     1.359



 Alpha-alpha contribution

 Constructing MP2 natural orbitals...

 Threshold for individual occupations:     5.0000E-06
 Corresponding cummulative occupation threshold:  0.99914853  0.99910126
 Total number of virtual orbitals:     710
 Number of virtual natural orbitals:   128  (18.03%)
 
 Transforming (ai|P) integrals to the NO basis...
 Number of integral batches:    1
 Occupied indices per batch:   10
 
 Transforming integrals of batch 1 to the NO basis...
 CPU time [min]:    17.233                   Wall time [min]:     1.368

 Calculating (ab|P) integrals...
 Minimal memory requirement for (ab|P) integrals:       69.2 MB
 Number of integral batches:    1
 Virtual indices per batch:   128

 Transforming integrals of batch 1...
 CPU time [min]:    19.429                   Wall time [min]:     1.881


 Beta-beta and alpha-beta contribution

 Constructing MP2 natural orbitals...

 Threshold for individual occupations:     5.0000E-06
 Corresponding cummulative occupation threshold:  0.99898102  0.99894047
 Total number of virtual orbitals:     711
 Number of virtual natural orbitals:   126  (17.72%)
 
 Transforming (ai|P) integrals to the NO basis...
 Number of integral batches:    1
 Occupied indices per batch:    9
 
 Transforming integrals of batch 1 to the NO basis...
 CPU time [min]:    19.690                   Wall time [min]:     1.894

 Calculating (ab|P) integrals...
 Minimal memory requirement for (ab|P) integrals:       69.2 MB
 Number of integral batches:    1
 Virtual indices per batch:   126

 Transforming integrals of batch 1...
 CPU time [min]:    21.303                   Wall time [min]:     3.326



 Alpha-alpha contribution

 Constructing natural auxiliary functions...

 Threshold for eigenvalues:     2.0000E-02
 Total number of auxiliary functions:    1896
 Number of natural auxiliary functions:   440  (23.21%)

 Transforming (ai|P) and (ij|P) integrals to the NAF basis...
 Number of integral batches:    1
 Occupied indices per batch:   10
 
 Transforming integrals of batch 1 to the NAF basis...
 CPU time [min]:    21.568                   Wall time [min]:     3.340

 Transforming (ab|P) integrals to the NAF basis...
 Number of integral batches:    1
 Virtual indices per batch:   128

 Transforming integrals of batch 1 to the NAF basis...
 CPU time [min]:    21.669                   Wall time [min]:     3.344


 Beta-beta and alpha-beta contribution

 Transforming (ai|P) and (ij|P) integrals to the NAF basis...
 Number of integral batches:    1
 Occupied indices per batch:    9
 
 Transforming integrals of batch 1 to the NAF basis...
 CPU time [min]:    21.851                   Wall time [min]:     3.354

 Transforming (ab|P) integrals to the NAF basis...
 Number of integral batches:    1
 Virtual indices per batch:   126

 Transforming integrals of batch 1 to the NAF basis...
 CPU time [min]:    21.954                   Wall time [min]:     3.360
 

 Results in full basis:
 
 
 Reference energy [au]:                      -196.176955180432
 DF-MP2 singlet pair energy [au]:              -0.746785630073
 DF-MP2 triplet pair energy [au]:              -0.338124774226
 DF-SCS-MP2 correlation energy [au]:           -1.008851014163
 DF-SCS-MP2 energy [au]:                     -197.185806194595
 DF-SOS-MP2 correlation energy [au]:           -0.970821319095
 DF-SOS-MP2 energy [au]:                     -197.147776499527
 DF-MP2 correlation energy [au]:               -1.084910404300
 DF-MP2 energy [au]:                         -197.261865584731

 Results in FNO basis:
 
 
 Reference energy [au]:                      -196.176955180432
 DF-MP2 singlet pair energy [au]:              -0.738843102552
 DF-MP2 triplet pair energy [au]:              -0.337088495620
 DF-SCS-MP2 correlation energy [au]:           -0.998974554935
 DF-SCS-MP2 energy [au]:                     -197.175929735367
 DF-SOS-MP2 correlation energy [au]:           -0.960496033317
 DF-SOS-MP2 energy [au]:                     -197.137451213749
 DF-MP2 correlation energy [au]:               -1.075931598171
 DF-MP2 energy [au]:                         -197.252886778603

 Results in NAF basis:
 
 
 Reference energy [au]:                      -196.176955180432
 DF-MP2 singlet pair energy [au]:              -0.738826649861
 DF-MP2 triplet pair energy [au]:              -0.337083718393
 DF-SCS-MP2 correlation energy [au]:           -0.998953219297
 DF-SCS-MP2 energy [au]:                     -197.175908399729
 DF-SOS-MP2 correlation energy [au]:           -0.960474644819
 DF-SOS-MP2 energy [au]:                     -197.137429825251
 DF-MP2 correlation energy [au]:               -1.075910368254
 DF-MP2 energy [au]:                         -197.252865548686

 ************************ 2022-11-12 15:29:43 *************************
 Executing uccsd...

 Allocation of 150.0 Gbytes of memory...
 
 UHF reference wavefunction.
 Canonical DF-CCSD(T) calculation.
 Number of correlated alpha electrons:       10
 Number of correlated beta electrons:         9
 Number of virtual alpha orbitals:          128
 Number of virtual beta orbitals:           126
 Number of auxiliary basis functions:       440
 Minimal memory requirement for CCSD: 129.84 MB
 Disk space requirement for CCSD:       0.56 GB
 Minimal memory requirement for (T):  149.20 MB
 Disk space requirement for (T):        0.74 GB
 
 Assembling four center integrals... Done!
 CPU time [min]:     0.535                   Wall time [min]:     0.041
 
 Reference energy [au]:                     -196.176955180432
 T1 contributions [au]:                       -0.000000000000
 Same spin MP2 energy [au]:                   -0.337086106196
 Opposite spin MP2 energy [au]:               -0.738834875307
 MP2 correlation energy [au]:                 -1.075920981504
 Total MP2 energy [au]:                     -197.252876161936
 MP2 correction [au]:                         -0.008989422796
 
 Projected  S^2 /   T1,    T2, total/   -0.000000   0.000000   0.752154
 
 Starting CCSD iterations...
 
                     Residual norm     Correlation energy [au]
 -------------------------------------------------------------
 Iteration  1       0.193200878583        -0.897659696267
 Iteration  2       0.139527745795        -0.952375347535
 Iteration  3       0.023381771839        -0.963036209949
 Iteration  4       0.008940503837        -0.960843613942
 Iteration  5       0.001420439228        -0.960840426221
 Iteration  6       0.000298425692        -0.960853368604
 Iteration  7       0.000114333803        -0.960832352678
 Iteration  8       0.000055448339        -0.960827372263
 Iteration  9       0.000021108421        -0.960831430556
 Iteration 10       0.000008490240        -0.960833033653
 Iteration 11       0.000003834754        -0.960832735829
 
 CCSD iteration has converged in 11 steps.
 
 T1 contribution [au]:                                  0.000000000000
 PPL energy contribution [au]:                          0.126742240210
 Scaled PPL energy contribution [au]:                   0.127773930961
 
 OS-PPL energy contribution [au]:                       0.096167295216
 Scaled OS-PPL energy contribution [au]:                0.097177264651
 SS-PPL energy contribution [au]:                       0.030574944993
 Scaled SS-PPL energy contribution [au]:                0.030667734599
 
 Opposite spin CCSD energy [au]:                       -0.688659867953
 Same spin CCSD energy [au]:                           -0.272181628183
 CCSD correlation energy [au]:                         -0.960841496136
 CCSD correlation energy + MP2 correction [au]:        -0.969830918932
 CCSD correlation energy + MP2 + PPL corr. [au]:       -0.968799228181
 Total CCSD energy [au]:                             -197.137796676568
 Total CCSD energy + MP2 correction [au]:            -197.146786099364
 Total CCSD energy + MP2 + PPL corr. [au]:           -197.145754408613
 
 Projected  S^2 /   T1,    T2, total/    0.000011   0.000000   0.752164
 
 Alpha T1 diagnostic:      2.895E-02      D1 diagnostic:      6.866E-02
 Beta  T1 diagnostic:      2.437E-02      D1 diagnostic:      3.263E-02
 CPU time [min]:    24.395                   Wall time [min]:     1.776
 
 Calculation of (T) correction...
   1% done.
  12% done.
  24% done.
  35% done.
  47% done.
  58% done.
  72% done.
  86% done.
 100% done.
 
 (T) correction [au]:                                 -0.034462953462
 (T*) correction [au]:                                -0.034750894737
 (T+) correction [au]:                                -0.034731201512
 CCSD(T) correlation energy [au]:                     -0.995304449598
 CCSD(T) correlation energy + MP2 correction [au]:    -1.004293872394
 CCSD(T+) correlation en. + MP2 + PPL corr. [au]:     -1.003530429692
 Total CCSD(T) energy [au]:                         -197.172259630030
 Total CCSD(T) energy + MP2 correction [au]:        -197.181249052826
 Total CCSD(T+) energy + MP2 + PPL corr. [au]:      -197.180485610124
 
 CPU time [min]:    28.195                   Wall time [min]:     2.129
 
 ************************ 2022-11-12 15:31:51 *************************
                      Normal termination of mrcc.
 **********************************************************************
