 vasp.6.3.0 20Jan22 (build Apr  1 2022 16:44:48) complex                         
 executed on        HPECrayEX_GCC date 2022.11.18  15:34:07
 running 2048 mpi-ranks, with    1 threads/rank
 distrk:  each k-point on 1024 cores,    2 groups
 distr:  one band on NCORE=   4 cores,  256 groups


--------------------------------------------------------------------------------------------------------


 INCAR:
   SYSTEM = MgO-rocksalt
   ISMEAR = 0
   SIGMA = 0.05
   EDIFF = 1E-6
   ALGO = ALL
   ISTART = 0
   IBRION = -1
   NSW = 0
   ISYM = 2
   DIPOL = 0.5 0.5 0.5
   IDIPOL = 3
   LDIPOL = .TRUE.
   METAGGA = R2SCAN
   IVDW = 13
   VDW_S8 = 0.6019
   VDW_A1 = 0.5156
   VDW_A2 = 5.7734
   ENCUT = 520
   PREC = Accurate
   LASPH = .TRUE.
   LREAL = Auto
   ISPIN = 1
   NELM = 200
   NELMIN = 8
   NCORE = 4
   KPAR = 2
   LWAVE = .FALSE.
   LCHARG = .FALSE.

 POTCAR:    PAW_PBE Cu 22Jun2005                  
 POTCAR:    PAW_PBE Cu 22Jun2005                  
   SHA256 =  0e71e558f37a4e8407882b4609ceaae59938afaad9ced71dfe8490308a0ab630 Cu/POTCAR             
   COPYR  = (c) Copyright 22Jun2005 Georg Kresse                                                    
   COPYR  = This file is part of the software VASP. Any use, copying, and all other rights are regul
   COPYR  = If you do not have a valid VASP license, you may not use, copy or distribute this file. 
   VRHFIN =Cu: d10 p1                                                                               
   LEXCH  = PE                                                                                      
   EATOM  =  1390.9808 eV,  102.2342 Ry                                                             
                                                                                                    
   TITEL  = PAW_PBE Cu 22Jun2005                                                                    
   LULTRA =        F    use ultrasoft PP ?                                                          
   IUNSCR =        1    unscreen: 0-lin 1-nonlin 2-no                                               
   RPACOR =    2.000    partial core radius                                                         
   POMASS =   63.546; ZVAL   =   11.000    mass and valenz                                          
   RCORE  =    2.300    outmost cutoff radius                                                       
   RWIGS  =    2.200; RWIGS  =    1.164    wigner-seitz radius (au A)                               
   ENMAX  =  295.446; ENMIN  =  221.585 eV                                                          
   ICORE  =        3    local potential                                                             
   LCOR   =        T    correct aug charges                                                         
   LPAW   =        T    paw PP                                                                      
   EAUG   =  586.980                                                                                
   DEXC   =    0.000                                                                                
   RMAX   =    2.344    core radius for proj-oper                                                   
   RAUG   =    1.300    factor for augmentation sphere                                              
   RDEP   =    2.302    radius for radial grids                                                     
   RDEPT  =    1.771    core radius for aug-charge                                                  
                                                                                                    
   Atomic configuration                                                                             
    9 entries                                                                                       
     n  l   j            E        occ.                                                              
     1  0  0.50     -8850.2468   2.0000                                                             
     2  0  0.50     -1062.3498   2.0000                                                             
     2  1  1.50      -916.8226   6.0000                                                             
     3  0  0.50      -114.6929   2.0000                                                             
     3  1  1.50       -72.1325   6.0000                                                             
     3  2  2.50        -5.0394  10.0000                                                             
     4  0  0.50        -4.6097   1.0000                                                             
     4  1  0.50        -4.0817   0.0000                                                             
     4  3  2.50        -1.3606   0.0000                                                             
   Description                                                                                      
     l       E           TYP  RCUT    TYP  RCUT                                                     
     2     -5.0393973     23  2.200                                                                 
     2     10.8846608     23  2.200                                                                 
     0     -4.6097109     23  2.200                                                                 
     0      8.2520465     23  2.200                                                                 
     1     -2.7211652     23  2.200                                                                 
     1     21.7055443     23  2.200                                                                 
     3      2.7211652     23  2.300                                                                 
  local pseudopotential read in
  partial core-charges read in
  partial kinetic energy density read in
  atomic valenz-charges read in
  non local Contribution for L=           2  read in
    real space projection operators read in
  non local Contribution for L=           2  read in
    real space projection operators read in
  non local Contribution for L=           0  read in
    real space projection operators read in
  non local Contribution for L=           0  read in
    real space projection operators read in
  non local Contribution for L=           1  read in
    real space projection operators read in
  non local Contribution for L=           1  read in
    real space projection operators read in
    PAW grid and wavefunctions read in

   number of l-projection  operators is LMAX  =           6
   number of lm-projection operators is LMMAX =          18

 -----------------------------------------------------------------------------
|                                                                             |
|               ----> ADVICE to this user running VASP <----                  |
|                                                                             |
|     You have a (more or less) 'small supercell' and for smaller cells       |
|     it is recommended to use the reciprocal-space projection scheme!        |
|     The real-space optimization is not efficient for small cells and it     |
|     is also less accurate ...                                               |
|     Therefore, set LREAL=.FALSE. in the INCAR file.                         |
|                                                                             |
 -----------------------------------------------------------------------------

 Optimization of the real space projectors (new method)

 maximal supplied QI-value         = 16.25
 optimisation between [QCUT,QGAM] = [ 11.54, 23.24] = [ 37.28,151.24] Ry 
 Optimized for a Real-space Cutoff    1.53 Angstroem

   l    n(q)    QCUT    max X(q) W(low)/X(q) W(high)/X(q)  e(spline) 
   2     10    11.539     4.610    0.96E-04    0.13E-03    0.19E-06
   2     10    11.539     8.522    0.16E-03    0.21E-03    0.28E-06
   0     11    11.539    51.609    0.45E-04    0.31E-04    0.11E-06
   0     11    11.539    27.747    0.39E-04    0.29E-04    0.10E-06
   1     10    11.539    20.408    0.70E-05    0.38E-04    0.18E-06
   1     10    11.539    13.425    0.66E-05    0.34E-04    0.17E-06
  PAW_PBE Cu 22Jun2005                  :
 energy of atom  1       EATOM=-1390.9808
 kinetic energy error for atom=    0.0037 (will be added to EATOM!!)


 POSCAR: Cu
  positions in direct lattice
  No initial velocities read in

 METAGGA = R2SCA    LMAXTAU =  6    LMIXTAU =  F

 WARNING: Using user supplied parameters
     VDW_S8 = 0.602
     VDW_A1 = 0.516
     VDW_A2 = 5.773
     because the xc functional is not supported. Required parameters not
     defined in the INCAR file will be replaced with PBE defaults ones.

 exchange correlation table for  LEXCH =        8
   RHO(1)=    0.500       N(1)  =     2000
   RHO(2)=  100.500       N(2)  =     4000



--------------------------------------------------------------------------------------------------------


 ion  position               nearest neighbor table
   1  0.538  0.462  0.618-   2 2.25
   2  0.462  0.538  0.618-   1 2.25

  LATTYP: Found a simple tetragonal cell.
 ALAT       =    21.1388521970
 C/A-ratio  =     1.0461251639
  
  Lattice vectors:
  
 A1 = (  21.1388521970,   0.0000000000,   0.0000000000)
 A2 = (   0.0000000000,  21.1388521970,   0.0000000000)
 A3 = (   0.0000000000,   0.0000000000,  22.1138852197)


Analysis of symmetry for initial positions (statically):
=====================================================================
 Subroutine PRICEL returns:
 Original cell was already a primitive cell.
 

 Routine SETGRP: Setting up the symmetry group for a 
 simple tetragonal supercell.


 Subroutine GETGRP returns: Found  8 space group operations
 (whereof  4 operations were pure point group operations)
 out of a pool of 16 trial point group operations.


The static configuration has the point symmetry C_2v.
 The point group associated with its full space group is D_2h.


Analysis of symmetry for dynamics (positions and initial velocities):
=====================================================================
 Subroutine PRICEL returns:
 Original cell was already a primitive cell.
 

 Routine SETGRP: Setting up the symmetry group for a 
 simple tetragonal supercell.


 Subroutine GETGRP returns: Found  8 space group operations
 (whereof  4 operations were pure point group operations)
 out of a pool of 16 trial point group operations.


The dynamic configuration has the point symmetry C_2v.
 The point group associated with its full space group is D_2h.


 Subroutine INISYM returns: Found  8 space group operations
 (whereof  4 operations are pure point group operations),
 and found     1 'primitive' translations


----------------------------------------------------------------------------------------

                                     Primitive cell                                     

  volume of cell :    9881.6133

  direct lattice vectors                    reciprocal lattice vectors
    21.138852197  0.000000000  0.000000000     0.047306258  0.000000000  0.000000000
     0.000000000 21.138852197  0.000000000     0.000000000  0.047306258  0.000000000
     0.000000000  0.000000000 22.113885220     0.000000000  0.000000000  0.045220457

  length of vectors
    21.138852197 21.138852197 22.113885220     0.047306258  0.047306258  0.045220457

  position of ions in fractional coordinates (direct lattice)
     0.537549167  0.462450833  0.617673691
     0.462450833  0.537549167  0.617673691

  ion indices of the primitive-cell ions
   primitive index   ion index
                 1           1
                 2           2

----------------------------------------------------------------------------------------



 KPOINTS: KPOINTS created by Atomic Simulation Env

Automatic generation of k-mesh.
 Grid dimensions read from file:
 generate k-points for:    1    1    1

 Generating k-lattice:

  Cartesian coordinates                     Fractional coordinates (reciprocal lattice)
     0.047306258  0.000000000  0.000000000     1.000000000  0.000000000  0.000000000
     0.000000000  0.047306258  0.000000000     0.000000000  1.000000000  0.000000000
     0.000000000  0.000000000  0.045220457     0.000000000  0.000000000  1.000000000

  Length of vectors
     0.047306258  0.047306258  0.045220457

  Shift w.r.t. Gamma in fractional coordinates (k-lattice)
     0.000000000  0.000000000  0.000000000

 
 Subroutine IBZKPT returns following result:
 ===========================================
 
 Found      1 irreducible k-points:
 
 Following reciprocal coordinates:
            Coordinates               Weight
  0.000000  0.000000  0.000000      1.000000
 
 Following cartesian coordinates:
            Coordinates               Weight
  0.000000  0.000000  0.000000      1.000000
 


--------------------------------------------------------------------------------------------------------




 Dimension of arrays:
   k-points           NKPTS =      1   k-points in BZ     NKDIM =      1   number of bands    NBANDS=    256
   number of dos      NEDOS =    301   number of ions     NIONS =      2
   non local maximal  LDIM  =      6   non local SUM 2l+1 LMDIM =     18
   total plane-waves  NPLWV = ******
   max r-space proj   IRMAX =   6628   max aug-charges    IRDMAX=  12805
   dimension x,y,z NGX =   160 NGY =  160 NGZ =  168
   dimension x,y,z NGXF=   320 NGYF=  320 NGZF=  336
   support grid    NGXF=   320 NGYF=  320 NGZF=  336
   ions per type =               2
   NGX,Y,Z   is equivalent  to a cutoff of  12.58, 12.58, 12.63 a.u.
   NGXF,Y,Z  is equivalent  to a cutoff of  25.17, 25.17, 25.26 a.u.

 SYSTEM =  MgO-rocksalt                            
 POSCAR =  Cu                                      

 Startparameter for this run:
   NWRITE =      2    write-flag & timer
   PREC   = accura    normal or accurate (medium, high low for compatibility)
   ISTART =      0    job   : 0-new  1-cont  2-samecut
   ICHARG =      2    charge: 1-file 2-atom 10-const
   ISPIN  =      1    spin polarized calculation?
   LNONCOLLINEAR =      F non collinear calculations
   LSORBIT =      F    spin-orbit coupling
   INIWAV =      1    electr: 0-lowe 1-rand  2-diag
   LASPH  =      T    aspherical Exc in radial PAW
 Electronic Relaxation 1
   ENCUT  =  520.0 eV  38.22 Ry    6.18 a.u.  39.30 39.30 41.12*2*pi/ulx,y,z
   ENINI  =  520.0     initial cutoff
   ENAUG  =  587.0 eV  augmentation charge cutoff
   NELM   =    200;   NELMIN=  8; NELMDL= -5     # of ELM steps 
   EDIFF  = 0.1E-05   stopping-criterion for ELM
   LREAL  =      T    real-space projection
   NLSPLINE    = F    spline interpolate recip. space projectors
   LCOMPAT=      F    compatible to vasp.4.4
   GGA_COMPAT  = T    GGA compatible to vasp.4.4-vasp.4.6
   LMAXPAW     = -100 max onsite density
   LMAXMIX     =    2 max onsite mixed and CHGCAR
   VOSKOWN=      0    Vosko Wilk Nusair interpolation
   ROPT   =   -0.00025
 Ionic relaxation
   EDIFFG = 0.1E-04   stopping-criterion for IOM
   NSW    =      0    number of steps for IOM
   NBLOCK =      1;   KBLOCK =      1    inner block; outer block 
   IBRION =     -1    ionic relax: 0-MD 1-quasi-New 2-CG
   NFREE  =      0    steps in history (QN), initial steepest desc. (CG)
   ISIF   =      2    stress and relaxation
   IWAVPR =     10    prediction:  0-non 1-charg 2-wave 3-comb
   ISYM   =      2    0-nonsym 1-usesym 2-fastsym
   LCORR  =      T    Harris-Foulkes like correction to forces

   POTIM  = 0.5000    time-step for ionic-motion
   TEIN   =    0.0    initial temperature
   TEBEG  =    0.0;   TEEND  =   0.0 temperature during run
   SMASS  =  -3.00    Nose mass-parameter (am)
   estimated Nose-frequenzy (Omega)   =  0.10E-29 period in steps = 0.13E+47 mass=  -0.102E-25a.u.
   SCALEE = 1.0000    scale energy and forces
   NPACO  =    256;   APACO  = 10.0  distance and # of slots for P.C.
   PSTRESS=    0.0 pullay stress

  Mass of Ions in am
   POMASS =  63.55
  Ionic Valenz
   ZVAL   =  11.00
  Atomic Wigner-Seitz radii
   RWIGS  =  -1.00
  virtual crystal weights 
   VCA    =   1.00
   NELECT =      22.0000    total number of electrons
   NUPDOWN=      -1.0000    fix difference up-down

 DOS related values:
   EMIN   =  10.00;   EMAX   =-10.00  energy-range for DOS
   EFERMI =   0.00
   ISMEAR =     0;   SIGMA  =   0.05  broadening in eV -4-tet -1-fermi 0-gaus

 Electronic relaxation 2 (details)
   IALGO  =     58    algorithm
   LDIAG  =      T    sub-space diagonalisation (order eigenvalues)
   LSUBROT=      F    optimize rotation matrix (better conditioning)
   TURBO    =      0    0=normal 1=particle mesh
   IRESTART =      0    0=no restart 2=restart with 2 vectors
   NREBOOT  =      0    no. of reboots
   NMIN     =      0    reboot dimension
   EREF     =   0.00    reference energy to select bands
   IMIX   =      4    mixing-type and parameters
     AMIX     =   0.40;   BMIX     =  1.00
     AMIX_MAG =   1.60;   BMIX_MAG =  1.00
     AMIN     =   0.10
     WC   =   100.;   INIMIX=   1;  MIXPRE=   1;  MAXMIX= -45

 Intra band minimization:
   WEIMIN = 0.0000     energy-eigenvalue tresh-hold
   EBREAK =  0.98E-09  absolut break condition
   DEPER  =   0.30     relativ break condition  

   TIME   =   0.40     timestep for ELM

  volume/ion in A,a.u.               =    4940.81     33342.21
  Fermi-wavevector in a.u.,A,eV,Ry     =   0.213767  0.403960  0.621734  0.045696
  Thomas-Fermi vector in A             =   0.985879

 Write flags
   LWAVE        =      F    write WAVECAR
   LDOWNSAMPLE  =      F    k-point downsampling of WAVECAR
   LCHARG       =      F    write CHGCAR
   LVTOT        =      F    write LOCPOT, total local potential
   LVHAR        =      F    write LOCPOT, Hartree potential only
   LELF         =      F    write electronic localiz. function (ELF)
   LORBIT       =      0    0 simple, 1 ext, 2 COOP (PROOUT), +10 PAW based schemes


 Dipole corrections
   LMONO  =      F    monopole corrections only (constant potential shift)
   LDIPOL =      T    correct potential (dipole corrections)
   IDIPOL =      3    1-x, 2-y, 3-z, 4-all directions 
   EPSILON=  1.0000000 bulk dielectric constant

 Exchange correlation treatment:
   GGA     =    --    GGA type
   LEXCH   =     8    internal setting for exchange type
   LIBXC   =     F    Libxc                    
   VOSKOWN =     0    Vosko Wilk Nusair interpolation
   LHFCALC =     F    Hartree Fock is set to
   LHFONE  =     F    Hartree Fock one center treatment
   AEXX    =    0.0000 exact exchange contribution

 Linear response parameters
   LEPSILON=     F    determine dielectric tensor
   LRPA    =     F    only Hartree local field effects (RPA)
   LNABLA  =     F    use nabla operator in PAW spheres
   LVEL    =     F    velocity operator in full k-point grid
   CSHIFT  =0.1000    complex shift for real part using Kramers Kronig
   OMEGAMAX=  -1.0    maximum frequency
   DEG_THRESHOLD= 0.2000000E-02 threshold for treating states as degnerate
   RTIME   =   -0.100 relaxation time in fs
  (WPLASMAI=    0.000 imaginary part of plasma frequency in eV, 0.658/RTIME)
   DFIELD  = 0.0000000 0.0000000 0.0000000 field for delta impulse in time

  Optional k-point grid parameters
   LKPOINTS_OPT  =     F    use optional k-point grid
   KPOINTS_OPT_MODE=     1    mode for optional k-point grid

 Orbital magnetization related:
   ORBITALMAG=     F  switch on orbital magnetization
   LCHIMAG   =     F  perturbation theory with respect to B field
   DQ        =  0.001000  dq finite difference perturbation B field
   LLRAUG    =     F  two centre corrections for induced B field



--------------------------------------------------------------------------------------------------------


 Static calculation
 charge density and potential will be updated during run
 non-spin polarized calculation
 Conjugate gradient for all bands (Freysoldt, et al. PRB 79, 241103 (2009))
 preconditioned conjugated gradient                                        
 perform sub-space diagonalisation
    before iterative eigenvector-optimisation
 modified Broyden-mixing scheme, WC =      100.0
 initial mixing is a Kerker type mixing with AMIX =  0.4000 and BMIX =      1.0000
 Hartree-type preconditioning will be used
 using additional bands          245
 real space projection scheme for non local part
 use partial core corrections
 no Harris-corrections to forces 
 use gradient corrections 
 use of overlap-Matrix (Vanderbilt PP)
 Gauss-broadening in eV      SIGMA  =   0.05


--------------------------------------------------------------------------------------------------------


  energy-cutoff  :      520.00
  volume of cell :     9881.61
      direct lattice vectors                 reciprocal lattice vectors
    21.138852197  0.000000000  0.000000000     0.047306258  0.000000000  0.000000000
     0.000000000 21.138852197  0.000000000     0.000000000  0.047306258  0.000000000
     0.000000000  0.000000000 22.113885220     0.000000000  0.000000000  0.045220457

  length of vectors
    21.138852197 21.138852197 22.113885220     0.047306258  0.047306258  0.045220457



 k-points in units of 2pi/SCALE and weight: KPOINTS created by Atomic Simulation Env
   0.00000000  0.00000000  0.00000000       1.000

 k-points in reciprocal lattice and weights: KPOINTS created by Atomic Simulation Env
   0.00000000  0.00000000  0.00000000       1.000

 position of ions in fractional coordinates (direct lattice) 
   0.53754917  0.46245083  0.61767369
   0.46245083  0.53754917  0.61767369

 position of ions in cartesian coordinates  (Angst):
  11.36317238  9.77567981 13.65916511
   9.77567981 11.36317238 13.65916511



--------------------------------------------------------------------------------------------------------


 k-point   1 :   0.0000 0.0000 0.0000  plane waves:  265979

 maximum and minimum number of plane-waves per node :     66495    66494

 maximum number of plane-waves:    265979
 maximum index in each direction: 
   IXMAX=   39   IYMAX=   39   IZMAX=   41
   IXMIN=  -39   IYMIN=  -39   IZMIN=  -41


 real space projection operators:
  total allocation   :       1798.88 KBytes
  max/ min on nodes  :        455.34        444.38


 parallel 3D FFT for wavefunctions:
    minimum data exchange during FFTs selected (reduces bandwidth)
 parallel 3D FFT for charge:
    minimum data exchange during FFTs selected (reduces bandwidth)


 total amount of memory used by VASP MPI-rank0   152745. kBytes
=======================================================================

   base      :      30000. kBytes
   nonlr-proj:        784. kBytes
   fftplans  :      35177. kBytes
   grid      :      83562. kBytes
   one-center:         15. kBytes
   wavefun   :       3207. kBytes

     INWAV:  cpu time      0.0001: real time      0.0005
 Broyden mixing: mesh for mixing (old mesh)
   NGX = 79   NGY = 79   NGZ = 83
  (NGX  =320   NGY  =320   NGZ  =336)
  gives a total of 518003 points

 initial charge density was supplied:
 charge density of overlapping atoms calculated
 number of electron      22.0000000 magnetization 
 keeping initial charge density in first step


--------------------------------------------------------------------------------------------------------


 Maximum index for non-local projection operator         1619
 Maximum index for augmentation-charges            0 (set IRDMAX)


--------------------------------------------------------------------------------------------------------


 First call to EWALD:  gamma=   0.083
 Maximum number of real-space cells 3x 3x 3
 Maximum number of reciprocal cells 3x 3x 3

    FEWALD:  cpu time      0.0007: real time      0.0007


--------------------------------------- Iteration      1(   1)  ---------------------------------------


    POTLOK:  cpu time      0.7885: real time      0.7896
    SETDIJ:  cpu time      0.4292: real time      0.4294
    TRIAL :  cpu time      3.7169: real time      3.7173
    CORREC:  cpu time      0.0013: real time      0.0013
    --------------------------------------------
      LOOP:  cpu time      4.9383: real time      4.9401

 eigenvalue-minimisations  :   512
 total energy-change (2. order) : 0.9927822E+02  (-0.5617952E+03)
 number of electron      22.0000000 magnetization 
 augmentation part       22.0000000 magnetization 

 DIPCOR: dipole corrections for dipol
 direction  3 min pos     1,
 dipolmoment           0.000000      0.000000     -0.000041 electrons x Angstroem
 Tr[quadrupol]     -4204.209430

 energy correction for charged system         0.000000 eV
 dipol+quadrupol energy correction           -0.000000 eV
 added-field ion interaction          0.000046 eV  (added to PSCEN)


 Free energy of the ion-electron system (eV)
  ---------------------------------------------------
  alpha Z        PSCENC =         0.29608183
  Ewald energy   TEWEN  =       317.63889590
  -Hartree energ DENC   =     -2860.09153796
  -exchange      EXHF   =         0.00000000
  -V(xc)+E(xc)   XCENC  =       108.36541663
  PAW double counting   =      2435.34765495    -2668.56901033
  entropy T*S    EENTRO =        -0.11757292
  eigenvalues    EBANDS =       -15.54582055
  atomic energy  EATOM  =      2781.95410799
  ---------------------------------------------------
  free energy    TOTEN  =        99.27821554 eV

  energy without entropy =       99.39578845  energy(sigma->0) =       99.33700199


--------------------------------------------------------------------------------------------------------




--------------------------------------- Iteration      1(   2)  ---------------------------------------


    TRIAL :  cpu time      3.9007: real time      3.9011
    CORREC:  cpu time      0.0003: real time      0.0003
    --------------------------------------------
      LOOP:  cpu time      3.9071: real time      3.9215

 eigenvalue-minimisations  :   512
 total energy-change (2. order) :-0.1193495E+03  (-0.1150994E+03)
 number of electron      22.0000000 magnetization 
 augmentation part       22.0000000 magnetization 

 DIPCOR: dipole corrections for dipol
 direction  3 min pos     1,
 dipolmoment           0.000000      0.000000     -0.000041 electrons x Angstroem
 Tr[quadrupol]     -4204.209430

 energy correction for charged system         0.000000 eV
 dipol+quadrupol energy correction           -0.000000 eV
 added-field ion interaction          0.000046 eV  (added to PSCEN)


 Free energy of the ion-electron system (eV)
  ---------------------------------------------------
  alpha Z        PSCENC =         0.29608183
  Ewald energy   TEWEN  =       317.63889590
  -Hartree energ DENC   =     -2860.09153796
  -exchange      EXHF   =         0.00000000
  -V(xc)+E(xc)   XCENC  =       108.36541663
  PAW double counting   =      2435.34765495    -2668.56901033
  entropy T*S    EENTRO =        -0.00000000
  eigenvalues    EBANDS =      -135.01284500
  atomic energy  EATOM  =      2781.95410799
  ---------------------------------------------------
  free energy    TOTEN  =       -20.07123600 eV

  energy without entropy =      -20.07123600  energy(sigma->0) =      -20.07123600


--------------------------------------------------------------------------------------------------------




--------------------------------------- Iteration      1(   3)  ---------------------------------------


    TRIAL :  cpu time      3.8815: real time      3.8818
    CORREC:  cpu time      0.0007: real time      0.0007
    --------------------------------------------
      LOOP:  cpu time      3.8874: real time      3.8976

 eigenvalue-minimisations  :   512
 total energy-change (2. order) :-0.6886501E+00  (-0.6886501E+00)
 number of electron      22.0000000 magnetization 
 augmentation part       22.0000000 magnetization 

 DIPCOR: dipole corrections for dipol
 direction  3 min pos     1,
 dipolmoment           0.000000      0.000000     -0.000041 electrons x Angstroem
 Tr[quadrupol]     -4204.209430

 energy correction for charged system         0.000000 eV
 dipol+quadrupol energy correction           -0.000000 eV
 added-field ion interaction          0.000046 eV  (added to PSCEN)


 Free energy of the ion-electron system (eV)
  ---------------------------------------------------
  alpha Z        PSCENC =         0.29608183
  Ewald energy   TEWEN  =       317.63889590
  -Hartree energ DENC   =     -2860.09153796
  -exchange      EXHF   =         0.00000000
  -V(xc)+E(xc)   XCENC  =       108.36541663
  PAW double counting   =      2435.34765495    -2668.56901033
  entropy T*S    EENTRO =        -0.00000000
  eigenvalues    EBANDS =      -135.70149515
  atomic energy  EATOM  =      2781.95410799
  ---------------------------------------------------
  free energy    TOTEN  =       -20.75988615 eV

  energy without entropy =      -20.75988615  energy(sigma->0) =      -20.75988615


--------------------------------------------------------------------------------------------------------




--------------------------------------- Iteration      1(   4)  ---------------------------------------


    TRIAL :  cpu time     16.8190: real time     16.8202
    CORREC:  cpu time      0.0003: real time      0.0003
    --------------------------------------------
      LOOP:  cpu time     16.8395: real time     16.8412

 eigenvalue-minimisations  :  1024
 total energy-change (2. order) :-0.4218568E-02  (-0.4218568E-02)
 number of electron      22.0000000 magnetization 
 augmentation part       22.0000000 magnetization 

 DIPCOR: dipole corrections for dipol
 direction  3 min pos     1,
 dipolmoment           0.000000      0.000000     -0.000041 electrons x Angstroem
 Tr[quadrupol]     -4204.209430

 energy correction for charged system         0.000000 eV
 dipol+quadrupol energy correction           -0.000000 eV
 added-field ion interaction          0.000046 eV  (added to PSCEN)


 Free energy of the ion-electron system (eV)
  ---------------------------------------------------
  alpha Z        PSCENC =         0.29608183
  Ewald energy   TEWEN  =       317.63889590
  -Hartree energ DENC   =     -2860.09153796
  -exchange      EXHF   =         0.00000000
  -V(xc)+E(xc)   XCENC  =       108.36541663
  PAW double counting   =      2435.34765495    -2668.56901033
  entropy T*S    EENTRO =        -0.00000000
  eigenvalues    EBANDS =      -135.70571372
  atomic energy  EATOM  =      2781.95410799
  ---------------------------------------------------
  free energy    TOTEN  =       -20.76410471 eV

  energy without entropy =      -20.76410471  energy(sigma->0) =      -20.76410471


--------------------------------------------------------------------------------------------------------




--------------------------------------- Iteration      1(   5)  ---------------------------------------


    TRIAL :  cpu time      3.8602: real time      3.8605
    CORREC:  cpu time      0.0003: real time      0.0003
    CHARGE:  cpu time      4.3727: real time      4.3745
    --------------------------------------------
      LOOP:  cpu time      8.2396: real time      8.2560

 eigenvalue-minimisations  :   512
 total energy-change (2. order) :-0.6081655E-07  (-0.6024991E-07)
 number of electron      22.0000019 magnetization 
 augmentation part       13.9828891 magnetization 

 DIPCOR: dipole corrections for dipol
 direction  3 min pos     1,
 dipolmoment           0.000000      0.000000     -0.000041 electrons x Angstroem
 Tr[quadrupol]     -4204.209430

 energy correction for charged system         0.000000 eV
 dipol+quadrupol energy correction           -0.000000 eV
 added-field ion interaction          0.000046 eV  (added to PSCEN)


 Free energy of the ion-electron system (eV)
  ---------------------------------------------------
  alpha Z        PSCENC =         0.29608183
  Ewald energy   TEWEN  =       317.63889590
  -Hartree energ DENC   =     -2860.09153796
  -exchange      EXHF   =         0.00000000
  -V(xc)+E(xc)   XCENC  =       108.36541663
  PAW double counting   =      2435.34765495    -2668.56901033
  entropy T*S    EENTRO =        -0.00000000
  eigenvalues    EBANDS =      -135.70571378
  atomic energy  EATOM  =      2781.95410799
  ---------------------------------------------------
  free energy    TOTEN  =       -20.76410477 eV

  energy without entropy =      -20.76410477  energy(sigma->0) =      -20.76410477


--------------------------------------------------------------------------------------------------------




--------------------------------------- Iteration      1(   6)  ---------------------------------------


    POTLOK:  cpu time      0.5477: real time      0.5477
    SETDIJ:  cpu time      0.3540: real time      0.3540
    TRIAL :  cpu time     27.2069: real time     27.2089
    CORREC:  cpu time      5.6247: real time      5.6259
    CHARGE:  cpu time      4.2398: real time      4.2400
    --------------------------------------------
      LOOP:  cpu time     37.9870: real time     37.9908

 eigenvalue-minimisations  :     0
 total energy-change (2. order) : 0.5688041E+01  (-0.7887717E+00)
 number of electron      22.0000019 magnetization 
 augmentation part       14.3303798 magnetization 

 DIPCOR: dipole corrections for dipol
 direction  3 min pos     1,
 dipolmoment           0.000000      0.000000     -0.004695 electrons x Angstroem
 Tr[quadrupol]     -4204.533638

 energy correction for charged system         0.000000 eV
 dipol+quadrupol energy correction           -0.000000 eV
 added-field ion interaction          0.005319 eV  (added to PSCEN)


 Free energy of the ion-electron system (eV)
  ---------------------------------------------------
  alpha Z        PSCENC =         0.29603052
  Ewald energy   TEWEN  =       317.63889590
  -Hartree energ DENC   =     -2845.67328901
  -exchange      EXHF   =         0.00000000
  -V(xc)+E(xc)   XCENC  =       107.75627122
  PAW double counting   =      2544.94799516    -2770.31093604
  entropy T*S    EENTRO =        -0.00000000
  eigenvalues    EBANDS =      -151.68513955
  atomic energy  EATOM  =      2781.95410799
  ---------------------------------------------------
  free energy    TOTEN  =       -15.07606383 eV

  energy without entropy =      -15.07606383  energy(sigma->0) =      -15.07606383


--------------------------------------------------------------------------------------------------------




--------------------------------------- Iteration      1(   7)  ---------------------------------------


    POTLOK:  cpu time      0.5380: real time      0.5381
    SETDIJ:  cpu time      0.3639: real time      0.3639
    TRIAL :  cpu time      1.3133: real time      1.3134
    CORREC:  cpu time      5.5082: real time      5.5088
    CHARGE:  cpu time      4.2818: real time      4.2820
    --------------------------------------------
      LOOP:  cpu time     12.0098: real time     12.0210

 eigenvalue-minimisations  :     0
 total energy-change (2. order) :-0.7479093E+00  (-0.2337355E+00)
 number of electron      22.0000019 magnetization 
 augmentation part       14.2775687 magnetization 

 DIPCOR: dipole corrections for dipol
 direction  3 min pos     1,
 dipolmoment           0.000000      0.000000     -0.000634 electrons x Angstroem
 Tr[quadrupol]     -4204.271578

 energy correction for charged system         0.000000 eV
 dipol+quadrupol energy correction           -0.000000 eV
 added-field ion interaction          0.000719 eV  (added to PSCEN)


 Free energy of the ion-electron system (eV)
  ---------------------------------------------------
  alpha Z        PSCENC =         0.29653109
  Ewald energy   TEWEN  =       317.63889590
  -Hartree energ DENC   =     -2887.11149884
  -exchange      EXHF   =         0.00000000
  -V(xc)+E(xc)   XCENC  =       109.70776069
  PAW double counting   =      2565.18551684    -2803.82380154
  entropy T*S    EENTRO =        -0.00000000
  eigenvalues    EBANDS =       -99.67148524
  atomic energy  EATOM  =      2781.95410799
  ---------------------------------------------------
  free energy    TOTEN  =       -15.82397312 eV

  energy without entropy =      -15.82397312  energy(sigma->0) =      -15.82397312


--------------------------------------------------------------------------------------------------------




--------------------------------------- Iteration      1(   8)  ---------------------------------------


    POTLOK:  cpu time      0.5258: real time      0.5258
    SETDIJ:  cpu time      0.3734: real time      0.3734
    TRIAL :  cpu time      1.3118: real time      1.3119
    CORREC:  cpu time      5.5319: real time      5.5332
    CHARGE:  cpu time      4.2927: real time      4.2929
    --------------------------------------------
      LOOP:  cpu time     12.0502: real time     12.0524

 eigenvalue-minimisations  :     0
 total energy-change (2. order) :-0.2332948E+00  (-0.3425469E-01)
 number of electron      22.0000019 magnetization 
 augmentation part       14.3448585 magnetization 

 DIPCOR: dipole corrections for dipol
 direction  3 min pos     1,
 dipolmoment           0.000000      0.000000     -0.000671 electrons x Angstroem
 Tr[quadrupol]     -4204.297655

 energy correction for charged system         0.000000 eV
 dipol+quadrupol energy correction           -0.000000 eV
 added-field ion interaction          0.000761 eV  (added to PSCEN)


 Free energy of the ion-electron system (eV)
  ---------------------------------------------------
  alpha Z        PSCENC =         0.29704284
  Ewald energy   TEWEN  =       317.63889590
  -Hartree energ DENC   =     -2869.62449936
  -exchange      EXHF   =         0.00000000
  -V(xc)+E(xc)   XCENC  =       109.13699049
  PAW double counting   =      2545.90582466    -2781.33318058
  entropy T*S    EENTRO =        -0.00000000
  eigenvalues    EBANDS =      -120.03244988
  atomic energy  EATOM  =      2781.95410799
  ---------------------------------------------------
  free energy    TOTEN  =       -16.05726795 eV

  energy without entropy =      -16.05726795  energy(sigma->0) =      -16.05726795


--------------------------------------------------------------------------------------------------------




--------------------------------------- Iteration      1(   9)  ---------------------------------------


    POTLOK:  cpu time      0.5281: real time      0.5281
    SETDIJ:  cpu time      0.3700: real time      0.3705
    TRIAL :  cpu time      1.3128: real time      1.3129
    CORREC:  cpu time      5.5209: real time      5.5212
    CHARGE:  cpu time      4.2967: real time      4.2974
    --------------------------------------------
      LOOP:  cpu time     12.0327: real time     12.0452

 eigenvalue-minimisations  :     0
 total energy-change (2. order) :-0.3395296E-01  (-0.2975738E-01)
 number of electron      22.0000019 magnetization 
 augmentation part       14.3184764 magnetization 

 DIPCOR: dipole corrections for dipol
 direction  3 min pos     1,
 dipolmoment           0.000000      0.000000     -0.000269 electrons x Angstroem
 Tr[quadrupol]     -4204.281953

 energy correction for charged system         0.000000 eV
 dipol+quadrupol energy correction           -0.000000 eV
 added-field ion interaction          0.000305 eV  (added to PSCEN)


 Free energy of the ion-electron system (eV)
  ---------------------------------------------------
  alpha Z        PSCENC =         0.29688726
  Ewald energy   TEWEN  =       317.63889590
  -Hartree energ DENC   =     -2877.53383306
  -exchange      EXHF   =         0.00000000
  -V(xc)+E(xc)   XCENC  =       109.51891485
  PAW double counting   =      2549.99205163    -2787.82367482
  entropy T*S    EENTRO =        -0.00000000
  eigenvalues    EBANDS =      -110.13457066
  atomic energy  EATOM  =      2781.95410799
  ---------------------------------------------------
  free energy    TOTEN  =       -16.09122091 eV

  energy without entropy =      -16.09122091  energy(sigma->0) =      -16.09122091


--------------------------------------------------------------------------------------------------------




--------------------------------------- Iteration      1(  10)  ---------------------------------------


    POTLOK:  cpu time      0.5364: real time      0.5364
    SETDIJ:  cpu time      0.3652: real time      0.3652
    TRIAL :  cpu time      1.3126: real time      1.3128
    CORREC:  cpu time      5.5341: real time      5.5346
    CHARGE:  cpu time      4.2872: real time      4.2880
    --------------------------------------------
      LOOP:  cpu time     12.0402: real time     12.0510

 eigenvalue-minimisations  :     0
 total energy-change (2. order) :-0.2986317E-01  (-0.1004852E-01)
 number of electron      22.0000019 magnetization 
 augmentation part       14.3467158 magnetization 

 DIPCOR: dipole corrections for dipol
 direction  3 min pos     1,
 dipolmoment           0.000000      0.000000     -0.000075 electrons x Angstroem
 Tr[quadrupol]     -4204.289037

 energy correction for charged system         0.000000 eV
 dipol+quadrupol energy correction           -0.000000 eV
 added-field ion interaction          0.000085 eV  (added to PSCEN)


 Free energy of the ion-electron system (eV)
  ---------------------------------------------------
  alpha Z        PSCENC =         0.29626537
  Ewald energy   TEWEN  =       317.63889590
  -Hartree energ DENC   =     -2874.08916810
  -exchange      EXHF   =         0.00000000
  -V(xc)+E(xc)   XCENC  =       109.36413293
  PAW double counting   =      2548.18569371    -2784.58697902
  entropy T*S    EENTRO =        -0.00000000
  eigenvalues    EBANDS =      -114.88403286
  atomic energy  EATOM  =      2781.95410799
  ---------------------------------------------------
  free energy    TOTEN  =       -16.12108409 eV

  energy without entropy =      -16.12108409  energy(sigma->0) =      -16.12108409


--------------------------------------------------------------------------------------------------------




--------------------------------------- Iteration      1(  11)  ---------------------------------------


    POTLOK:  cpu time      0.5383: real time      0.5383
    SETDIJ:  cpu time      0.3671: real time      0.3671
    TRIAL :  cpu time      1.3107: real time      1.3108
    CORREC:  cpu time      5.5318: real time      5.5325
    CHARGE:  cpu time      4.2914: real time      4.2916
    --------------------------------------------
      LOOP:  cpu time     12.0445: real time     12.0547

 eigenvalue-minimisations  :     0
 total energy-change (2. order) :-0.1014166E-01  (-0.3418274E-02)
 number of electron      22.0000019 magnetization 
 augmentation part       14.3303207 magnetization 

 DIPCOR: dipole corrections for dipol
 direction  3 min pos     1,
 dipolmoment           0.000000      0.000000     -0.000004 electrons x Angstroem
 Tr[quadrupol]     -4204.269245

 energy correction for charged system         0.000000 eV
 dipol+quadrupol energy correction           -0.000000 eV
 added-field ion interaction          0.000004 eV  (added to PSCEN)


 Free energy of the ion-electron system (eV)
  ---------------------------------------------------
  alpha Z        PSCENC =         0.29608228
  Ewald energy   TEWEN  =       317.63889590
  -Hartree energ DENC   =     -2877.16099640
  -exchange      EXHF   =         0.00000000
  -V(xc)+E(xc)   XCENC  =       109.51426538
  PAW double counting   =      2549.07324771    -2786.31605226
  entropy T*S    EENTRO =        -0.00000000
  eigenvalues    EBANDS =      -111.13077635
  atomic energy  EATOM  =      2781.95410799
  ---------------------------------------------------
  free energy    TOTEN  =       -16.13122575 eV

  energy without entropy =      -16.13122575  energy(sigma->0) =      -16.13122575


--------------------------------------------------------------------------------------------------------




--------------------------------------- Iteration      1(  12)  ---------------------------------------


    POTLOK:  cpu time      0.5409: real time      0.5409
    SETDIJ:  cpu time      0.3632: real time      0.3632
    TRIAL :  cpu time      1.3080: real time      1.3081
    CORREC:  cpu time      5.6700: real time      5.6714
    CHARGE:  cpu time      4.2953: real time      4.2955
    --------------------------------------------
      LOOP:  cpu time     12.1823: real time     12.1936

 eigenvalue-minimisations  :     0
 total energy-change (2. order) :-0.3438777E-02  (-0.1762104E-02)
 number of electron      22.0000019 magnetization 
 augmentation part       14.3409456 magnetization 

 DIPCOR: dipole corrections for dipol
 direction  3 min pos     1,
 dipolmoment           0.000000      0.000000     -0.000002 electrons x Angstroem
 Tr[quadrupol]     -4204.276033

 energy correction for charged system         0.000000 eV
 dipol+quadrupol energy correction           -0.000000 eV
 added-field ion interaction          0.000002 eV  (added to PSCEN)


 Free energy of the ion-electron system (eV)
  ---------------------------------------------------
  alpha Z        PSCENC =         0.29604485
  Ewald energy   TEWEN  =       317.63889590
  -Hartree energ DENC   =     -2874.52678999
  -exchange      EXHF   =         0.00000000
  -V(xc)+E(xc)   XCENC  =       109.40055888
  PAW double counting   =      2546.97454247    -2783.45704293
  entropy T*S    EENTRO =        -0.00000000
  eigenvalues    EBANDS =      -114.41498169
  atomic energy  EATOM  =      2781.95410799
  ---------------------------------------------------
  free energy    TOTEN  =       -16.13466453 eV

  energy without entropy =      -16.13466453  energy(sigma->0) =      -16.13466453


--------------------------------------------------------------------------------------------------------




--------------------------------------- Iteration      1(  13)  ---------------------------------------


    POTLOK:  cpu time      0.5379: real time      0.5380
    SETDIJ:  cpu time      0.3634: real time      0.3634
    TRIAL :  cpu time      1.3084: real time      1.3088
    CORREC:  cpu time      5.5221: real time      5.5224
    CHARGE:  cpu time      4.2857: real time      4.2859
    --------------------------------------------
      LOOP:  cpu time     12.0836: real time     12.0943

 eigenvalue-minimisations  :     0
 total energy-change (2. order) :-0.1735279E-02  (-0.3379525E-03)
 number of electron      22.0000019 magnetization 
 augmentation part       14.3348828 magnetization 

 DIPCOR: dipole corrections for dipol
 direction  3 min pos     1,
 dipolmoment           0.000000      0.000000      0.000004 electrons x Angstroem
 Tr[quadrupol]     -4204.264334

 energy correction for charged system         0.000000 eV
 dipol+quadrupol energy correction           -0.000000 eV
 added-field ion interaction         -0.000004 eV  (added to PSCEN)


 Free energy of the ion-electron system (eV)
  ---------------------------------------------------
  alpha Z        PSCENC =         0.29603386
  Ewald energy   TEWEN  =       317.63889590
  -Hartree energ DENC   =     -2875.27685819
  -exchange      EXHF   =         0.00000000
  -V(xc)+E(xc)   XCENC  =       109.43950333
  PAW double counting   =      2547.15863850    -2784.00037334
  entropy T*S    EENTRO =        -0.00000000
  eigenvalues    EBANDS =      -113.34634786
  atomic energy  EATOM  =      2781.95410799
  ---------------------------------------------------
  free energy    TOTEN  =       -16.13639981 eV

  energy without entropy =      -16.13639981  energy(sigma->0) =      -16.13639981


--------------------------------------------------------------------------------------------------------




--------------------------------------- Iteration      1(  14)  ---------------------------------------


    POTLOK:  cpu time      0.5408: real time      0.5412
    SETDIJ:  cpu time      0.3582: real time      0.3582
    TRIAL :  cpu time      1.3061: real time      1.3062
    CORREC:  cpu time      5.5178: real time      5.5180
    CHARGE:  cpu time      4.2618: real time      4.2625
    --------------------------------------------
      LOOP:  cpu time     11.9985: real time     12.0002

 eigenvalue-minimisations  :     0
 total energy-change (2. order) :-0.3497362E-03  (-0.2289060E-03)
 number of electron      22.0000019 magnetization 
 augmentation part       14.3388795 magnetization 

 DIPCOR: dipole corrections for dipol
 direction  3 min pos     1,
 dipolmoment           0.000000      0.000000      0.000004 electrons x Angstroem
 Tr[quadrupol]     -4204.268104

 energy correction for charged system         0.000000 eV
 dipol+quadrupol energy correction           -0.000000 eV
 added-field ion interaction         -0.000004 eV  (added to PSCEN)


 Free energy of the ion-electron system (eV)
  ---------------------------------------------------
  alpha Z        PSCENC =         0.29603210
  Ewald energy   TEWEN  =       317.63889590
  -Hartree energ DENC   =     -2874.32609484
  -exchange      EXHF   =         0.00000000
  -V(xc)+E(xc)   XCENC  =       109.39735485
  PAW double counting   =      2546.61041845    -2783.19763211
  entropy T*S    EENTRO =        -0.00000000
  eigenvalues    EBANDS =      -114.50983189
  atomic energy  EATOM  =      2781.95410799
  ---------------------------------------------------
  free energy    TOTEN  =       -16.13674954 eV

  energy without entropy =      -16.13674954  energy(sigma->0) =      -16.13674954


--------------------------------------------------------------------------------------------------------




--------------------------------------- Iteration      1(  15)  ---------------------------------------


    POTLOK:  cpu time      0.5385: real time      0.5385
    SETDIJ:  cpu time      0.3642: real time      0.3642
    TRIAL :  cpu time      1.3072: real time      1.3072
    CORREC:  cpu time      5.5049: real time      5.5052
    CHARGE:  cpu time      4.2596: real time      4.2603
    --------------------------------------------
      LOOP:  cpu time     11.9884: real time     11.9898

 eigenvalue-minimisations  :     0
 total energy-change (2. order) :-0.1822819E-03  (-0.4147468E-04)
 number of electron      22.0000019 magnetization 
 augmentation part       14.3366573 magnetization 

 DIPCOR: dipole corrections for dipol
 direction  3 min pos     1,
 dipolmoment           0.000000      0.000000      0.000004 electrons x Angstroem
 Tr[quadrupol]     -4204.263147

 energy correction for charged system         0.000000 eV
 dipol+quadrupol energy correction           -0.000000 eV
 added-field ion interaction         -0.000005 eV  (added to PSCEN)


 Free energy of the ion-electron system (eV)
  ---------------------------------------------------
  alpha Z        PSCENC =         0.29603103
  Ewald energy   TEWEN  =       317.63889590
  -Hartree energ DENC   =     -2874.78547692
  -exchange      EXHF   =         0.00000000
  -V(xc)+E(xc)   XCENC  =       109.41870635
  PAW double counting   =      2547.31359113    -2784.03334853
  entropy T*S    EENTRO =        -0.00000000
  eigenvalues    EBANDS =      -113.93943876
  atomic energy  EATOM  =      2781.95410799
  ---------------------------------------------------
  free energy    TOTEN  =       -16.13693183 eV

  energy without entropy =      -16.13693183  energy(sigma->0) =      -16.13693183


--------------------------------------------------------------------------------------------------------




--------------------------------------- Iteration      1(  16)  ---------------------------------------


    POTLOK:  cpu time      0.5337: real time      0.5337
    SETDIJ:  cpu time      0.3854: real time      0.3854
    TRIAL :  cpu time      1.3044: real time      1.3045
    CORREC:  cpu time      5.5107: real time      5.5113
    CHARGE:  cpu time      4.2628: real time      4.2630
    --------------------------------------------
      LOOP:  cpu time     12.0028: real time     12.0127

 eigenvalue-minimisations  :     0
 total energy-change (2. order) :-0.4839082E-04  (-0.2667565E-04)
 number of electron      22.0000019 magnetization 
 augmentation part       14.3351773 magnetization 

 DIPCOR: dipole corrections for dipol
 direction  3 min pos     1,
 dipolmoment           0.000000      0.000000      0.000004 electrons x Angstroem
 Tr[quadrupol]     -4204.264303

 energy correction for charged system         0.000000 eV
 dipol+quadrupol energy correction           -0.000000 eV
 added-field ion interaction         -0.000005 eV  (added to PSCEN)


 Free energy of the ion-electron system (eV)
  ---------------------------------------------------
  alpha Z        PSCENC =         0.29603101
  Ewald energy   TEWEN  =       317.63889590
  -Hartree energ DENC   =     -2874.46678917
  -exchange      EXHF   =         0.00000000
  -V(xc)+E(xc)   XCENC  =       109.40445811
  PAW double counting   =      2547.23512776    -2783.86016940
  entropy T*S    EENTRO =        -0.00000000
  eigenvalues    EBANDS =      -114.33864242
  atomic energy  EATOM  =      2781.95410799
  ---------------------------------------------------
  free energy    TOTEN  =       -16.13698022 eV

  energy without entropy =      -16.13698022  energy(sigma->0) =      -16.13698022


--------------------------------------------------------------------------------------------------------




--------------------------------------- Iteration      1(  17)  ---------------------------------------


    POTLOK:  cpu time      0.5302: real time      0.5302
    SETDIJ:  cpu time      0.3629: real time      0.3629
    TRIAL :  cpu time      1.3088: real time      1.3088
    CORREC:  cpu time      5.5156: real time      5.5166
    CHARGE:  cpu time      4.2665: real time      4.2667
    --------------------------------------------
      LOOP:  cpu time     11.9985: real time     12.0004

 eigenvalue-minimisations  :     0
 total energy-change (2. order) :-0.2246872E-04  (-0.1111706E-04)
 number of electron      22.0000019 magnetization 
 augmentation part       14.3359189 magnetization 

 DIPCOR: dipole corrections for dipol
 direction  3 min pos     1,
 dipolmoment           0.000000      0.000000      0.000004 electrons x Angstroem
 Tr[quadrupol]     -4204.263379

 energy correction for charged system         0.000000 eV
 dipol+quadrupol energy correction           -0.000000 eV
 added-field ion interaction         -0.000005 eV  (added to PSCEN)


 Free energy of the ion-electron system (eV)
  ---------------------------------------------------
  alpha Z        PSCENC =         0.29603091
  Ewald energy   TEWEN  =       317.63889590
  -Hartree energ DENC   =     -2874.24721810
  -exchange      EXHF   =         0.00000000
  -V(xc)+E(xc)   XCENC  =       109.39473623
  PAW double counting   =      2547.14376117    -2783.70747158
  entropy T*S    EENTRO =        -0.00000000
  eigenvalues    EBANDS =      -114.60984519
  atomic energy  EATOM  =      2781.95410799
  ---------------------------------------------------
  free energy    TOTEN  =       -16.13700268 eV

  energy without entropy =      -16.13700268  energy(sigma->0) =      -16.13700268


--------------------------------------------------------------------------------------------------------




--------------------------------------- Iteration      1(  18)  ---------------------------------------


    POTLOK:  cpu time      0.5570: real time      0.5570
    SETDIJ:  cpu time      0.3365: real time      0.3365
    TRIAL :  cpu time      1.3049: real time      1.3050
    CORREC:  cpu time      5.5071: real time      5.5074
    CHARGE:  cpu time      4.2651: real time      4.2653
    --------------------------------------------
      LOOP:  cpu time     11.9749: real time     11.9860

 eigenvalue-minimisations  :     0
 total energy-change (2. order) :-0.1165490E-04  (-0.4968082E-05)
 number of electron      22.0000019 magnetization 
 augmentation part       14.3367023 magnetization 

 DIPCOR: dipole corrections for dipol
 direction  3 min pos     1,
 dipolmoment           0.000000      0.000000      0.000004 electrons x Angstroem
 Tr[quadrupol]     -4204.264446

 energy correction for charged system         0.000000 eV
 dipol+quadrupol energy correction           -0.000000 eV
 added-field ion interaction         -0.000005 eV  (added to PSCEN)


 Free energy of the ion-electron system (eV)
  ---------------------------------------------------
  alpha Z        PSCENC =         0.29603098
  Ewald energy   TEWEN  =       317.63889590
  -Hartree energ DENC   =     -2874.33532426
  -exchange      EXHF   =         0.00000000
  -V(xc)+E(xc)   XCENC  =       109.39881432
  PAW double counting   =      2547.22098173    -2783.81265174
  entropy T*S    EENTRO =        -0.00000000
  eigenvalues    EBANDS =      -114.49786925
  atomic energy  EATOM  =      2781.95410799
  ---------------------------------------------------
  free energy    TOTEN  =       -16.13701434 eV

  energy without entropy =      -16.13701434  energy(sigma->0) =      -16.13701434


--------------------------------------------------------------------------------------------------------




--------------------------------------- Iteration      1(  19)  ---------------------------------------


    POTLOK:  cpu time      0.5323: real time      0.5323
    SETDIJ:  cpu time      0.3690: real time      0.3690
    TRIAL :  cpu time      1.3095: real time      1.3096
    CORREC:  cpu time      5.5120: real time      5.5122
    CHARGE:  cpu time      4.2741: real time      4.2743
    --------------------------------------------
      LOOP:  cpu time     12.0103: real time     12.0115

 eigenvalue-minimisations  :     0
 total energy-change (2. order) :-0.4053744E-05  (-0.3217116E-05)
 number of electron      22.0000019 magnetization 
 augmentation part       14.3371158 magnetization 

 DIPCOR: dipole corrections for dipol
 direction  3 min pos     1,
 dipolmoment           0.000000      0.000000      0.000004 electrons x Angstroem
 Tr[quadrupol]     -4204.264219

 energy correction for charged system         0.000000 eV
 dipol+quadrupol energy correction           -0.000000 eV
 added-field ion interaction         -0.000005 eV  (added to PSCEN)


 Free energy of the ion-electron system (eV)
  ---------------------------------------------------
  alpha Z        PSCENC =         0.29603099
  Ewald energy   TEWEN  =       317.63889590
  -Hartree energ DENC   =     -2874.44011546
  -exchange      EXHF   =         0.00000000
  -V(xc)+E(xc)   XCENC  =       109.40352899
  PAW double counting   =      2547.29024513    -2783.91284625
  entropy T*S    EENTRO =        -0.00000000
  eigenvalues    EBANDS =      -114.36686568
  atomic energy  EATOM  =      2781.95410799
  ---------------------------------------------------
  free energy    TOTEN  =       -16.13701839 eV

  energy without entropy =      -16.13701839  energy(sigma->0) =      -16.13701839


--------------------------------------------------------------------------------------------------------




--------------------------------------- Iteration      1(  20)  ---------------------------------------


    POTLOK:  cpu time      0.5380: real time      0.5380
    SETDIJ:  cpu time      0.3563: real time      0.3563
    TRIAL :  cpu time      1.3158: real time      1.3159
    CORREC:  cpu time      5.5056: real time      5.5059
    CHARGE:  cpu time      4.2760: real time      4.2762
    --------------------------------------------
      LOOP:  cpu time     11.9986: real time     12.0067

 eigenvalue-minimisations  :     0
 total energy-change (2. order) :-0.2358388E-05  (-0.4130182E-05)
 number of electron      22.0000019 magnetization 
 augmentation part       14.3370076 magnetization 

 DIPCOR: dipole corrections for dipol
 direction  3 min pos     1,
 dipolmoment           0.000000      0.000000      0.000004 electrons x Angstroem
 Tr[quadrupol]     -4204.263963

 energy correction for charged system         0.000000 eV
 dipol+quadrupol energy correction           -0.000000 eV
 added-field ion interaction         -0.000005 eV  (added to PSCEN)


 Free energy of the ion-electron system (eV)
  ---------------------------------------------------
  alpha Z        PSCENC =         0.29603097
  Ewald energy   TEWEN  =       317.63889590
  -Hartree energ DENC   =     -2874.49995087
  -exchange      EXHF   =         0.00000000
  -V(xc)+E(xc)   XCENC  =       109.40614859
  PAW double counting   =      2547.32655352    -2783.96608361
  entropy T*S    EENTRO =        -0.00000000
  eigenvalues    EBANDS =      -114.29272324
  atomic energy  EATOM  =      2781.95410799
  ---------------------------------------------------
  free energy    TOTEN  =       -16.13702075 eV

  energy without entropy =      -16.13702075  energy(sigma->0) =      -16.13702075


--------------------------------------------------------------------------------------------------------




--------------------------------------- Iteration      1(  21)  ---------------------------------------


    POTLOK:  cpu time      0.5305: real time      0.5306
    SETDIJ:  cpu time      0.3727: real time      0.3727
    TRIAL :  cpu time      1.3059: real time      1.3060
    CORREC:  cpu time      5.4943: real time      5.4950
    CHARGE:  cpu time      4.2575: real time      4.2577
    --------------------------------------------
      LOOP:  cpu time     11.9740: real time     11.9754

 eigenvalue-minimisations  :     0
 total energy-change (2. order) :-0.3332186E-05  (-0.1511208E-05)
 number of electron      22.0000019 magnetization 
 augmentation part       14.3366380 magnetization 

 DIPCOR: dipole corrections for dipol
 direction  3 min pos     1,
 dipolmoment           0.000000      0.000000      0.000004 electrons x Angstroem
 Tr[quadrupol]     -4204.263641

 energy correction for charged system         0.000000 eV
 dipol+quadrupol energy correction           -0.000000 eV
 added-field ion interaction         -0.000005 eV  (added to PSCEN)


 Free energy of the ion-electron system (eV)
  ---------------------------------------------------
  alpha Z        PSCENC =         0.29603093
  Ewald energy   TEWEN  =       317.63889590
  -Hartree energ DENC   =     -2874.49343423
  -exchange      EXHF   =         0.00000000
  -V(xc)+E(xc)   XCENC  =       109.40571795
  PAW double counting   =      2547.31752692    -2783.95397138
  entropy T*S    EENTRO =        -0.00000000
  eigenvalues    EBANDS =      -114.30189817
  atomic energy  EATOM  =      2781.95410799
  ---------------------------------------------------
  free energy    TOTEN  =       -16.13702408 eV

  energy without entropy =      -16.13702408  energy(sigma->0) =      -16.13702408


--------------------------------------------------------------------------------------------------------




--------------------------------------- Iteration      1(  22)  ---------------------------------------


    POTLOK:  cpu time      0.5526: real time      0.5527
    SETDIJ:  cpu time      0.3434: real time      0.3434
    TRIAL :  cpu time      1.3078: real time      1.3078
    CORREC:  cpu time      5.5168: real time      5.5175
    CHARGE:  cpu time      4.2647: real time      4.2650
    --------------------------------------------
      LOOP:  cpu time     11.9900: real time     12.0019

 eigenvalue-minimisations  :     0
 total energy-change (2. order) :-0.1270372E-05  (-0.5409858E-06)
 number of electron      22.0000019 magnetization 
 augmentation part       14.3364939 magnetization 

 DIPCOR: dipole corrections for dipol
 direction  3 min pos     1,
 dipolmoment           0.000000      0.000000      0.000004 electrons x Angstroem
 Tr[quadrupol]     -4204.263799

 energy correction for charged system         0.000000 eV
 dipol+quadrupol energy correction           -0.000000 eV
 added-field ion interaction         -0.000005 eV  (added to PSCEN)


 Free energy of the ion-electron system (eV)
  ---------------------------------------------------
  alpha Z        PSCENC =         0.29603091
  Ewald energy   TEWEN  =       317.63889590
  -Hartree energ DENC   =     -2874.44739818
  -exchange      EXHF   =         0.00000000
  -V(xc)+E(xc)   XCENC  =       109.40359427
  PAW double counting   =      2547.28396295    -2783.90639830
  entropy T*S    EENTRO =        -0.00000000
  eigenvalues    EBANDS =      -114.35982089
  atomic energy  EATOM  =      2781.95410799
  ---------------------------------------------------
  free energy    TOTEN  =       -16.13702535 eV

  energy without entropy =      -16.13702535  energy(sigma->0) =      -16.13702535


--------------------------------------------------------------------------------------------------------




--------------------------------------- Iteration      1(  23)  ---------------------------------------


    POTLOK:  cpu time      0.5364: real time      0.5365
    SETDIJ:  cpu time      0.3668: real time      0.3668
    TRIAL :  cpu time      1.3038: real time      1.3039
    CORREC:  cpu time      5.5097: real time      5.5109
    EDDIAG:  cpu time      0.3806: real time      0.3806
    CHARGE:  cpu time      4.2745: real time      4.2751
    --------------------------------------------
      LOOP:  cpu time     12.3764: real time     12.3878

 eigenvalue-minimisations  :     0
 total energy-change (2. order) :-0.3774121E-06  (-0.3590199E-06)
 number of electron      22.0000019 magnetization 
 augmentation part       14.3366297 magnetization 

 DIPCOR: dipole corrections for dipol
 direction  3 min pos     1,
 dipolmoment           0.000000      0.000000      0.000004 electrons x Angstroem
 Tr[quadrupol]     -4204.264013

 energy correction for charged system         0.000000 eV
 dipol+quadrupol energy correction           -0.000000 eV
 added-field ion interaction         -0.000005 eV  (added to PSCEN)


 Free energy of the ion-electron system (eV)
  ---------------------------------------------------
  alpha Z        PSCENC =         0.29603090
  Ewald energy   TEWEN  =       317.63889590
  -Hartree energ DENC   =     -2874.42972412
  -exchange      EXHF   =         0.00000000
  -V(xc)+E(xc)   XCENC  =       109.40280028
  PAW double counting   =      2547.26728843    -2783.88431452
  entropy T*S    EENTRO =        -0.00000000
  eigenvalues    EBANDS =      -114.38211058
  atomic energy  EATOM  =      2781.95410799
  ---------------------------------------------------
  free energy    TOTEN  =       -16.13702573 eV

  energy without entropy =      -16.13702573  energy(sigma->0) =      -16.13702573


--------------------------------------------------------------------------------------------------------


  average scaling for gradient   0.9781


 average (electrostatic) potential at core
  the test charge radii are     0.9430
  (the norm of the test charge is              1.0000)
       1 -79.0155       2 -79.0155



 E-fermi :  -4.4370     XC(G=0):  -0.0976     alpha+bet : -0.0321

 Fermi energy:        -4.4369818671

 k-point     1 :       0.0000    0.0000    0.0000
  band No.  band energies     occupation 
      1      -6.4331      2.00000
      2      -5.6498      2.00000
      3      -5.6490      2.00000
      4      -5.1831      2.00000
      5      -5.1373      2.00000
      6      -5.1368      2.00000
      7      -4.9118      2.00000
      8      -4.9113      2.00000
      9      -4.7283      2.00000
     10      -4.7279      2.00000
     11      -4.6994      2.00000
     12      -2.8725      0.00000
     13      -0.8921      0.00000
     14      -0.8901      0.00000
     15      -0.2771      0.00000
     16       0.0734      0.00000
     17       0.3444      0.00000
     18       0.3449      0.00000
     19       0.3476      0.00000
     20       0.3516      0.00000
     21       0.3878      0.00000
     22       0.4476      0.00000
     23       0.5991      0.00000
     24       0.6370      0.00000
     25       0.6530      0.00000
     26       0.6652      0.00000
     27       0.6664      0.00000
     28       0.6824      0.00000
     29       0.6845      0.00000
     30       0.6965      0.00000
     31       0.7033      0.00000
     32       0.7251      0.00000
     33       0.7439      0.00000
     34       0.8301      0.00000
     35       0.9070      0.00000
     36       0.9859      0.00000
     37       0.9958      0.00000
     38       0.9998      0.00000
     39       1.0146      0.00000
     40       1.0404      0.00000
     41       1.0427      0.00000
     42       1.0466      0.00000
     43       1.1078      0.00000
     44       1.2572      0.00000
     45       1.2789      0.00000
     46       1.2845      0.00000
     47       1.3718      0.00000
     48       1.3827      0.00000
     49       1.3924      0.00000
     50       1.4615      0.00000
     51       1.5591      0.00000
     52       1.5602      0.00000
     53       1.5760      0.00000
     54       1.5830      0.00000
     55       1.5944      0.00000
     56       1.5983      0.00000
     57       1.6224      0.00000
     58       1.6340      0.00000
     59       1.6560      0.00000
     60       1.6612      0.00000
     61       1.6637      0.00000
     62       1.6720      0.00000
     63       1.6830      0.00000
     64       1.6955      0.00000
     65       1.6959      0.00000
     66       1.7027      0.00000
     67       1.7029      0.00000
     68       1.7215      0.00000
     69       1.7286      0.00000
     70       1.7501      0.00000
     71       1.7564      0.00000
     72       1.7884      0.00000
     73       1.7951      0.00000
     74       1.8682      0.00000
     75       1.8891      0.00000
     76       1.8969      0.00000
     77       1.9118      0.00000
     78       1.9156      0.00000
     79       1.9337      0.00000
     80       1.9438      0.00000
     81       1.9638      0.00000
     82       1.9703      0.00000
     83       1.9832      0.00000
     84       1.9920      0.00000
     85       1.9967      0.00000
     86       1.9967      0.00000
     87       1.9988      0.00000
     88       2.0047      0.00000
     89       2.0056      0.00000
     90       2.0149      0.00000
     91       2.0153      0.00000
     92       2.0381      0.00000
     93       2.1040      0.00000
     94       2.1366      0.00000
     95       2.1961      0.00000
     96       2.2409      0.00000
     97       2.2540      0.00000
     98       2.2990      0.00000
     99       2.5380      0.00000
    100       2.5587      0.00000
    101       2.5619      0.00000
    102       2.6077      0.00000
    103       2.6126      0.00000
    104       2.6344      0.00000
    105       2.6506      0.00000
    106       2.6713      0.00000
    107       2.6752      0.00000
    108       2.7276      0.00000
    109       2.7301      0.00000
    110       2.7312      0.00000
    111       2.7775      0.00000
    112       2.8042      0.00000
    113       2.8167      0.00000
    114       2.8541      0.00000
    115       2.8981      0.00000
    116       2.9014      0.00000
    117       2.9015      0.00000
    118       2.9054      0.00000
    119       2.9180      0.00000
    120       2.9210      0.00000
    121       2.9276      0.00000
    122       2.9310      0.00000
    123       2.9339      0.00000
    124       2.9517      0.00000
    125       2.9564      0.00000
    126       2.9643      0.00000
    127       2.9834      0.00000
    128       2.9852      0.00000
    129       2.9983      0.00000
    130       3.0002      0.00000
    131       3.0032      0.00000
    132       3.0083      0.00000
    133       3.0125      0.00000
    134       3.0149      0.00000
    135       3.0156      0.00000
    136       3.0645      0.00000
    137       3.0725      0.00000
    138       3.0785      0.00000
    139       3.1116      0.00000
    140       3.1151      0.00000
    141       3.1165      0.00000
    142       3.1228      0.00000
    143       3.1297      0.00000
    144       3.1326      0.00000
    145       3.1497      0.00000
    146       3.2274      0.00000
    147       3.2523      0.00000
    148       3.2599      0.00000
    149       3.3106      0.00000
    150       3.3329      0.00000
    151       3.3350      0.00000
    152       3.3361      0.00000
    153       3.3561      0.00000
    154       3.3605      0.00000
    155       3.3630      0.00000
    156       3.3686      0.00000
    157       3.3733      0.00000
    158       3.3768      0.00000
    159       3.3768      0.00000
    160       3.3804      0.00000
    161       3.3956      0.00000
    162       3.4146      0.00000
    163       3.4167      0.00000
    164       3.4190      0.00000
    165       3.4419      0.00000
    166       3.4534      0.00000
    167       3.4879      0.00000
    168       3.5196      0.00000
    169       3.5265      0.00000
    170       3.5410      0.00000
    171       3.5777      0.00000
    172       3.5783      0.00000
    173       3.6236      0.00000
    174       3.6429      0.00000
    175       3.6578      0.00000
    176       3.6595      0.00000
    177       3.6610      0.00000
    178       3.6732      0.00000
    179       3.6830      0.00000
    180       3.6883      0.00000
    181       3.6908      0.00000
    182       3.7398      0.00000
    183       3.7474      0.00000
    184       3.7550      0.00000
    185       3.7852      0.00000
    186       3.7934      0.00000
    187       3.8213      0.00000
    188       3.8673      0.00000
    189       3.8783      0.00000
    190       3.9539      0.00000
    191       3.9579      0.00000
    192       3.9662      0.00000
    193       3.9776      0.00000
    194       3.9829      0.00000
    195       3.9966      0.00000
    196       4.0095      0.00000
    197       4.0582      0.00000
    198       4.0671      0.00000
    199       4.0706      0.00000
    200       4.1458      0.00000
    201       4.1470      0.00000
    202       4.1767      0.00000
    203       4.1799      0.00000
    204       4.1970      0.00000
    205       4.2249      0.00000
    206       4.2264      0.00000
    207       4.2316      0.00000
    208       4.2479      0.00000
    209       4.2696      0.00000
    210       4.2916      0.00000
    211       4.3208      0.00000
    212       4.3419      0.00000
    213       4.3424      0.00000
    214       4.3561      0.00000
    215       4.3640      0.00000
    216       4.3669      0.00000
    217       4.3757      0.00000
    218       4.3800      0.00000
    219       4.3808      0.00000
    220       4.3954      0.00000
    221       4.4017      0.00000
    222       4.4245      0.00000
    223       4.4337      0.00000
    224       4.4518      0.00000
    225       4.4534      0.00000
    226       4.4636      0.00000
    227       4.4663      0.00000
    228       4.4679      0.00000
    229       4.4683      0.00000
    230       4.4713      0.00000
    231       4.4894      0.00000
    232       4.4902      0.00000
    233       4.5123      0.00000
    234       4.5214      0.00000
    235       4.5409      0.00000
    236       4.5409      0.00000
    237       4.5555      0.00000
    238       4.5641      0.00000
    239       4.5686      0.00000
    240       4.5713      0.00000
    241       4.5771      0.00000
    242       4.5867      0.00000
    243       4.5896      0.00000
    244       4.5977      0.00000
    245       4.6034      0.00000
    246       4.6196      0.00000
    247       4.6272      0.00000
    248       4.6370      0.00000
    249       4.6376      0.00000
    250       4.6740      0.00000
    251       4.6773      0.00000
    252       4.6809      0.00000
    253       4.6868      0.00000
    254       4.6891      0.00000
    255       4.7346      0.00000
    256       4.8052      0.00000


--------------------------------------------------------------------------------------------------------


 soft charge-density along one line, spin component           1
         0         1         2         3         4         5         6         7         8         9
 total charge-density along one line

 pseudopotential strength for first ion, spin component:           1
-10.148   0.000  -0.035  -0.000  -0.000   0.637  -0.000   0.031
  0.000 -10.117  -0.000   0.030  -0.000  -0.000   0.610   0.000
 -0.035  -0.000 -10.107   0.000  -0.000   0.031   0.000   0.601
 -0.000   0.030   0.000 -10.117  -0.000   0.000  -0.027  -0.000
 -0.000  -0.000  -0.000  -0.000 -10.146  -0.000   0.000   0.000
  0.637  -0.000   0.031   0.000  -0.000   6.787   0.000  -0.025
 -0.000   0.610   0.000  -0.027   0.000   0.000   6.807  -0.000
  0.031   0.000   0.601  -0.000   0.000  -0.025  -0.000   6.816
  0.000  -0.027  -0.000   0.610   0.000  -0.000   0.023   0.000
 -0.000   0.000   0.000   0.000   0.637   0.000  -0.000  -0.000
 -0.021   0.000  -0.012  -0.000   0.000   0.004   0.000   0.002
 -0.039   0.000  -0.022  -0.000   0.000   0.003   0.000   0.002
  0.027  -0.000   0.016  -0.000   0.023  -0.009   0.000  -0.005
 -0.000  -0.023  -0.000   0.023  -0.000  -0.000  -0.001  -0.000
 -0.027  -0.000  -0.016  -0.000   0.023   0.009  -0.000   0.005
  0.031  -0.000   0.018   0.000   0.024  -0.007   0.000  -0.004
  0.000  -0.024  -0.000   0.024   0.000  -0.000  -0.005  -0.000
 -0.031   0.000  -0.018  -0.000   0.024   0.007  -0.000   0.004
 total augmentation occupancy for first ion, spin component:           1
  1.972  -0.000  -0.010   0.000   0.000   0.001   0.000   0.013   0.000  -0.000   0.114   0.001  -0.086   0.000   0.086   0.036
 -0.000   1.983   0.000   0.006   0.000  -0.000  -0.016  -0.000  -0.006  -0.000   0.000   0.000   0.000   0.045   0.000  -0.000
 -0.010   0.000   1.983   0.000  -0.000   0.013  -0.000  -0.014  -0.000   0.000   0.065   0.001  -0.049  -0.000   0.049   0.021
  0.000   0.006   0.000   1.983   0.000   0.000  -0.006   0.000  -0.016  -0.000   0.000   0.000   0.000  -0.045  -0.000   0.000
  0.000   0.000  -0.000   0.000   1.977  -0.000  -0.000   0.000  -0.000  -0.010  -0.000  -0.000  -0.045   0.000  -0.045   0.037
  0.001  -0.000   0.013   0.000  -0.000   0.006  -0.000   0.003  -0.000  -0.000  -0.080   0.008  -0.014   0.000   0.014   0.002
  0.000  -0.016  -0.000  -0.006  -0.000  -0.000   0.002  -0.000  -0.001   0.000   0.000  -0.000  -0.000   0.005  -0.000   0.000
  0.013  -0.000  -0.014   0.000   0.000   0.003  -0.000   0.002   0.000  -0.000  -0.046   0.004  -0.008   0.000   0.008   0.001
  0.000  -0.006  -0.000  -0.016  -0.000  -0.000  -0.001   0.000   0.002   0.000   0.000   0.000   0.000  -0.005  -0.000   0.000
 -0.000  -0.000   0.000  -0.000  -0.010  -0.000   0.000  -0.000  -0.000   0.003   0.000  -0.000  -0.005  -0.000  -0.005   0.000
  0.114   0.000   0.065   0.000  -0.000  -0.080   0.000  -0.046  -0.000   0.000   1.742  -0.152   0.223   0.000  -0.223  -0.032
  0.001   0.000   0.001   0.000  -0.000   0.008   0.000   0.004   0.000  -0.000  -0.152   0.014  -0.021   0.000   0.021   0.003
 -0.086   0.000  -0.049   0.000  -0.045  -0.014  -0.000  -0.008   0.000  -0.005   0.223  -0.021   0.048   0.000  -0.032  -0.009
  0.000   0.045  -0.000  -0.045  -0.000   0.000   0.005   0.000  -0.005  -0.000   0.000   0.000   0.000   0.016  -0.000   0.000
  0.086   0.000   0.049  -0.000  -0.045   0.014   0.000   0.008  -0.000  -0.005  -0.223   0.021  -0.032  -0.000   0.048   0.006
  0.036  -0.000   0.021  -0.000   0.037   0.002   0.000   0.001   0.000   0.000  -0.032   0.003  -0.009  -0.000   0.006   0.002
  0.000  -0.037   0.000   0.037  -0.000   0.000  -0.000  -0.000   0.000   0.000   0.000  -0.000   0.000  -0.003   0.000   0.000
 -0.036  -0.000  -0.021   0.000   0.037  -0.002   0.000  -0.001   0.000   0.000   0.032  -0.003   0.006   0.000  -0.009  -0.001


------------------------ aborting loop because EDIFF is reached ----------------------------------------


    FORLOC:  cpu time      0.0010: real time      0.0010
    FORNL :  cpu time      0.1184: real time      0.1185
    STRESS:  cpu time      7.8888: real time      7.8892
    FORCOR:  cpu time      0.3564: real time      0.3566
    OFIELD:  cpu time      0.0001: real time      0.0001
    FORVDW:  cpu time      0.0007: real time      0.0007

  FORCE on cell =-STRESS in cart. coord.  units (eV):
  Direction    XX          YY          ZZ          XY          YZ          ZX
  --------------------------------------------------------------------------------------
  Alpha Z     0.29604     0.29604     0.29604
  Ewald     243.00724   243.00724  -168.37560  -385.08921    -0.00000    -0.00000
  Hartree  1061.98452  1061.98452   750.47919  -285.66007    -0.00000    -0.00000
  E(xc)    -141.94823  -141.94823  -142.07077    -0.12421     0.00000     0.00000
  Local   -1484.67721 -1484.67721  -768.58563   663.94153    -0.00000     0.00000
  n-local   -53.09517   -53.09517   -51.17166     1.92379    -0.00000    -0.00000
  augment   193.02664   193.02664   195.70470     2.73285     0.00000    -0.00000
  Kinetic   180.81987   180.81987   183.67993     2.85885     0.00000     0.00000
  Fock        0.00000     0.00000     0.00000     0.00000     0.00000     0.00000
  vdW        -0.00001    -0.00001    -0.00003    -0.00003     0.00000    -0.00000
  -------------------------------------------------------------------------------------
  Total      -0.58632    -0.58632    -0.04384     0.58350     0.00000     0.00000
  in kB      -0.09506    -0.09506    -0.00711     0.09461     0.00000     0.00000
  external pressure =       -0.07 kB  Pullay stress =        0.00 kB


 VOLUME and BASIS-vectors are now :
 -----------------------------------------------------------------------------
  energy-cutoff  :      520.00
  volume of cell :     9881.61
      direct lattice vectors                 reciprocal lattice vectors
    21.138852197  0.000000000  0.000000000     0.047306258  0.000000000  0.000000000
     0.000000000 21.138852197  0.000000000     0.000000000  0.047306258  0.000000000
     0.000000000  0.000000000 22.113885220     0.000000000  0.000000000  0.045220457

  length of vectors
    21.138852197 21.138852197 22.113885220     0.047306258  0.047306258  0.045220457


 FORCES acting on ions:
    Electron-Ion                     Ewald-Force                    Non-Local-Force
 -----------------------------------------------------------------------------------------------
   -.254E+03 0.254E+03 0.159E-04   0.243E+03 -.243E+03 0.308E-17   0.104E+02 -.104E+02 0.751E-19
   0.254E+03 -.254E+03 0.159E-04   -.243E+03 0.243E+03 -.451E-16   -.104E+02 0.104E+02 0.696E-19
 -----------------------------------------------------------------------------------------------
   0.125E-06 0.589E-06 0.132E-02   0.000E+00 0.000E+00 -.421E-16   0.000E+00 0.000E+00 0.145E-18


 POSITION                                       TOTAL-FORCE (eV/Angst)
 -----------------------------------------------------------------------------------
     11.36317      9.77568     13.65917        -0.382016      0.382016      0.000000
      9.77568     11.36317     13.65917         0.382016     -0.382016     -0.000000
 -----------------------------------------------------------------------------------
    total drift:                                0.000000      0.000001      0.001316


--------------------------------------------------------------------------------------------------------



  FREE ENERGIE OF THE ION-ELECTRON SYSTEM (eV)
  ---------------------------------------------------
  free  energy   TOTEN  =       -16.14225906 eV

  energy  without entropy=      -16.14225906  energy(sigma->0) =      -16.14225906



--------------------------------------------------------------------------------------------------------


    POTLOK:  cpu time      0.9085: real time      0.9086


--------------------------------------------------------------------------------------------------------


     LOOP+:  cpu time    290.2121: real time    290.4052
    4ORBIT:  cpu time      0.0000: real time      0.0000

 total amount of memory used by VASP MPI-rank0   152745. kBytes
=======================================================================

   base      :      30000. kBytes
   nonlr-proj:        784. kBytes
   fftplans  :      35177. kBytes
   grid      :      83562. kBytes
   one-center:         15. kBytes
   wavefun   :       3207. kBytes

  
  
 General timing and accounting informations for this job:
 ========================================================
  
                  Total CPU time used (sec):      358.498
                            User time (sec):      321.572
                          System time (sec):       36.926
                         Elapsed time (sec):      385.313
  
                   Maximum memory used (kb):     1329764.
                   Average memory used (kb):          N/A
  
                          Minor page faults:      5306091
                          Major page faults:            0
                 Voluntary context switches:        24795
