 vasp.6.3.0 20Jan22 (build Apr  1 2022 16:44:48) complex                         
 executed on        HPECrayEX_GCC date 2023.02.09  21:25:42
 running 3072 mpi-ranks, with    1 threads/rank
 distrk:  each k-point on 1536 cores,    2 groups
 distr:  one band on NCORE=   4 cores,  384 groups


--------------------------------------------------------------------------------------------------------


 INCAR:
   SYSTEM = MgO-rocksalt
   ISMEAR = 0
   SIGMA = 0.05
   EDIFF = 1E-6
   ALGO = ALL
   ISTART = 0
   IBRION = -1
   NSW = 0
   ISYM = 2
   DIPOL = 0.5 0.5 0.5
   IDIPOL = 3
   LDIPOL = .TRUE.
   LHFCALC = .TRUE.
   GGA = B5
   AEXX = 0.2
   AGGAX = 0.72
   AGGAC = 0.81
   ALDAC = 0.19
   ENCUT = 520
   PREC = Accurate
   LASPH = .TRUE.
   LREAL = Auto
   ISPIN = 1
   NELM = 200
   NELMIN = 8
   NCORE = 4
   KPAR = 2
   LWAVE = .FALSE.
   LCHARG = .FALSE.

 POTCAR:    PAW_PBE Ag 02Apr2005                  
 -----------------------------------------------------------------------------
|                                                                             |
|           W    W    AA    RRRRR   N    N  II  N    N   GGGG   !!!           |
|           W    W   A  A   R    R  NN   N  II  NN   N  G    G  !!!           |
|           W    W  A    A  R    R  N N  N  II  N N  N  G       !!!           |
|           W WW W  AAAAAA  RRRRR   N  N N  II  N  N N  G  GGG   !            |
|           WW  WW  A    A  R   R   N   NN  II  N   NN  G    G                |
|           W    W  A    A  R    R  N    N  II  N    N   GGGG   !!!           |
|                                                                             |
|     You have selected ISYM=2 for a HF type calculation. This will           |
|     symmetrize the charge density but not the exchange potential. I         |
|     suggest to use ISYM=3 instead. This uses symmetry to obtain the         |
|     orbitals at all k-points in the Brillouin zone, but does not apply      |
|     symmetry to the Hartree potential directly. The resultant charge        |
|     might have lower symmetry than the crystal but, at least, Hartree       |
|     and exchange are fully compatible.                                      |
|                                                                             |
 -----------------------------------------------------------------------------

 POTCAR:    PAW_PBE Ag 02Apr2005                  
   SHA256 =  6550cfa3543261e132c169e1b98a529204624d72be14e2da2e0242bcb74a174d Ag/POTCAR             
   COPYR  = (c) Copyright 02Apr2005 Georg Kresse                                                    
   COPYR  = This file is part of the software VASP. Any use, copying, and all other rights are regul
   COPYR  = If you do not have a valid VASP license, you may not use, copy or distribute this file. 
   VRHFIN =Ag : s1 d10                                                                              
   LEXCH  = PE                                                                                      
   EATOM  =  1037.2675 eV,   76.2370 Ry                                                             
                                                                                                    
   TITEL  = PAW_PBE Ag 02Apr2005                                                                    
   LULTRA =        F    use ultrasoft PP ?                                                          
   IUNSCR =        1    unscreen: 0-lin 1-nonlin 2-no                                               
   RPACOR =    2.000    partial core radius                                                         
   POMASS =  107.868; ZVAL   =   11.000    mass and valenz                                          
   RCORE  =    2.500    outmost cutoff radius                                                       
   RWIGS  =    2.840; RWIGS  =    1.503    wigner-seitz radius (au A)                               
   ENMAX  =  249.844; ENMIN  =  187.383 eV                                                          
   ICORE  =        3    local potential                                                             
   LCOR   =        T    correct aug charges                                                         
   LPAW   =        T    paw PP                                                                      
   EAUG   =  412.496                                                                                
   DEXC   =    0.000                                                                                
   RMAX   =    2.560    core radius for proj-oper                                                   
   RAUG   =    1.300    factor for augmentation sphere                                              
   RDEP   =    2.576    radius for radial grids                                                     
   RDEPT  =    2.072    core radius for aug-charge                                                  
                                                                                                    
   Atomic configuration                                                                             
   12 entries                                                                                       
     n  l   j            E        occ.                                                              
     1  0  0.50    -25324.9161   2.0000                                                             
     2  0  0.50     -3728.5341   2.0000                                                             
     2  1  1.50     -3344.0404   6.0000                                                             
     3  0  0.50      -683.5581   2.0000                                                             
     3  1  1.50      -557.3225   6.0000                                                             
     3  2  2.50      -358.3853  10.0000                                                             
     4  0  0.50       -95.0341   2.0000                                                             
     4  1  1.50       -58.5511   6.0000                                                             
     4  2  2.50        -7.4440  10.0000                                                             
     5  0  0.50        -4.4045   1.0000                                                             
     5  1  0.50        -1.3606   0.0000                                                             
     4  3  2.50        -1.3606   0.0000                                                             
   Description                                                                                      
     l       E           TYP  RCUT    TYP  RCUT                                                     
     2     -7.4439781     23  2.400                                                                 
     2     -8.8045607     23  2.400                                                                 
     0     -4.4044681     23  2.400                                                                 
     0      1.9520038     23  2.400                                                                 
     1     -1.3605826     23  2.500                                                                 
     1     27.2116520     23  2.500                                                                 
     3     -4.0817478     23  2.400                                                                 
  local pseudopotential read in
  partial core-charges read in
  partial kinetic energy density read in
  atomic valenz-charges read in
  non local Contribution for L=           2  read in
    real space projection operators read in
  non local Contribution for L=           2  read in
    real space projection operators read in
  non local Contribution for L=           0  read in
    real space projection operators read in
  non local Contribution for L=           0  read in
    real space projection operators read in
  non local Contribution for L=           1  read in
    real space projection operators read in
  non local Contribution for L=           1  read in
    real space projection operators read in
    PAW grid and wavefunctions read in

   number of l-projection  operators is LMAX  =           6
   number of lm-projection operators is LMMAX =          18

 -----------------------------------------------------------------------------
|                                                                             |
|               ----> ADVICE to this user running VASP <----                  |
|                                                                             |
|     You have a (more or less) 'small supercell' and for smaller cells       |
|     it is recommended to use the reciprocal-space projection scheme!        |
|     The real-space optimization is not efficient for small cells and it     |
|     is also less accurate ...                                               |
|     Therefore, set LREAL=.FALSE. in the INCAR file.                         |
|                                                                             |
 -----------------------------------------------------------------------------

 Optimization of the real space projectors (new method)

 maximal supplied QI-value         = 15.12
 optimisation between [QCUT,QGAM] = [ 11.64, 23.28] = [ 37.95,151.78] Ry 
 Optimized for a Real-space Cutoff    1.45 Angstroem

   l    n(q)    QCUT    max X(q) W(low)/X(q) W(high)/X(q)  e(spline) 
   2      9    11.641    53.897    0.22E-03    0.42E-04    0.28E-06
   2      9    11.641    52.416    0.23E-03    0.44E-04    0.29E-06
   0     10    11.641   122.045    0.51E-04    0.25E-04    0.16E-06
   0     10    11.641    73.629    0.49E-04    0.24E-04    0.16E-06
   1     10    11.641    15.255    0.99E-04    0.55E-04    0.11E-06
   1     10    11.641     9.562    0.81E-04    0.47E-04    0.95E-07
 -----------------------------------------------------------------------------
|                                                                             |
|               ----> ADVICE to this user running VASP <----                  |
|                                                                             |
|     You enforced a specific xc type in the INCAR file but a different       |
|     type was found in the POTCAR file.                                      |
|     I HOPE YOU KNOW WHAT YOU ARE DOING!                                     |
|                                                                             |
 -----------------------------------------------------------------------------

  PAW_PBE Ag 02Apr2005                  :
 energy of atom  1       EATOM=-1037.2675
 kinetic energy error for atom=    0.0047 (will be added to EATOM!!)


 POSCAR: Ag
  positions in direct lattice
  No initial velocities read in
 exchange correlation table for  LEXCH =       12
   RHO(1)=    0.500       N(1)  =     2000
   RHO(2)=  100.500       N(2)  =     4000



--------------------------------------------------------------------------------------------------------


 ion  position               nearest neighbor table
   1  0.543  0.457  0.625-   2 2.59
   2  0.457  0.543  0.625-   1 2.59

  LATTYP: Found a simple tetragonal cell.
 ALAT       =    21.1388521970
 C/A-ratio  =     1.0461251639
  
  Lattice vectors:
  
 A1 = (  21.1388521970,   0.0000000000,   0.0000000000)
 A2 = (   0.0000000000,  21.1388521970,   0.0000000000)
 A3 = (   0.0000000000,   0.0000000000,  22.1138852197)


Analysis of symmetry for initial positions (statically):
=====================================================================
 Subroutine PRICEL returns:
 Original cell was already a primitive cell.
 

 Routine SETGRP: Setting up the symmetry group for a 
 simple tetragonal supercell.


 Subroutine GETGRP returns: Found  8 space group operations
 (whereof  4 operations were pure point group operations)
 out of a pool of 16 trial point group operations.


The static configuration has the point symmetry C_2v.
 The point group associated with its full space group is D_2h.


Analysis of symmetry for dynamics (positions and initial velocities):
=====================================================================
 Subroutine PRICEL returns:
 Original cell was already a primitive cell.
 

 Routine SETGRP: Setting up the symmetry group for a 
 simple tetragonal supercell.


 Subroutine GETGRP returns: Found  8 space group operations
 (whereof  4 operations were pure point group operations)
 out of a pool of 16 trial point group operations.


The dynamic configuration has the point symmetry C_2v.
 The point group associated with its full space group is D_2h.


 Subroutine INISYM returns: Found  8 space group operations
 (whereof  4 operations are pure point group operations),
 and found     1 'primitive' translations


----------------------------------------------------------------------------------------

                                     Primitive cell                                     

  volume of cell :    9881.6133

  direct lattice vectors                    reciprocal lattice vectors
    21.138852197  0.000000000  0.000000000     0.047306258  0.000000000  0.000000000
     0.000000000 21.138852197  0.000000000     0.000000000  0.047306258  0.000000000
     0.000000000  0.000000000 22.113885220     0.000000000  0.000000000  0.045220457

  length of vectors
    21.138852197 21.138852197 22.113885220     0.047306258  0.047306258  0.045220457

  position of ions in fractional coordinates (direct lattice)
     0.543282734  0.456717266  0.625334806
     0.456717266  0.543282734  0.625334806

  ion indices of the primitive-cell ions
   primitive index   ion index
                 1           1
                 2           2

----------------------------------------------------------------------------------------



 KPOINTS: KPOINTS created by Atomic Simulation Env

Automatic generation of k-mesh.
 Grid dimensions read from file:
 generate k-points for:    1    1    1

 Generating k-lattice:

  Cartesian coordinates                     Fractional coordinates (reciprocal lattice)
     0.047306258  0.000000000  0.000000000     1.000000000  0.000000000  0.000000000
     0.000000000  0.047306258  0.000000000     0.000000000  1.000000000  0.000000000
     0.000000000  0.000000000  0.045220457     0.000000000  0.000000000  1.000000000

  Length of vectors
     0.047306258  0.047306258  0.045220457

  Shift w.r.t. Gamma in fractional coordinates (k-lattice)
     0.000000000  0.000000000  0.000000000

 
 Subroutine IBZKPT returns following result:
 ===========================================
 
 Found      1 irreducible k-points:
 
 Following reciprocal coordinates:
            Coordinates               Weight
  0.000000  0.000000  0.000000      1.000000
 
 Following cartesian coordinates:
            Coordinates               Weight
  0.000000  0.000000  0.000000      1.000000
 
 
 Subroutine IBZKPT_HF returns following result:
 ==============================================
 
 Found      1 k-points in 1st BZ
 the following      1 k-points will be used (e.g. in the exchange kernel)
 Following reciprocal coordinates:   # in IRBZ
  0.000000  0.000000  0.000000    1.00000000   1 t-inv F


--------------------------------------------------------------------------------------------------------




 Dimension of arrays:
   k-points           NKPTS =      1   k-points in BZ     NKDIM =      1   number of bands    NBANDS=    384
   number of dos      NEDOS =    301   number of ions     NIONS =      2
   non local maximal  LDIM  =      6   non local SUM 2l+1 LMDIM =     18
   total plane-waves  NPLWV = ******
   max r-space proj   IRMAX =   5559   max aug-charges    IRDMAX=  21597
   dimension x,y,z NGX =   160 NGY =  160 NGZ =  168
   dimension x,y,z NGXF=   320 NGYF=  320 NGZF=  336
   support grid    NGXF=   320 NGYF=  320 NGZF=  336
   ions per type =               2
   NGX,Y,Z   is equivalent  to a cutoff of  12.58, 12.58, 12.63 a.u.
   NGXF,Y,Z  is equivalent  to a cutoff of  25.17, 25.17, 25.26 a.u.

 SYSTEM =  MgO-rocksalt                            
 POSCAR =  Ag                                      

 Startparameter for this run:
   NWRITE =      2    write-flag & timer
   PREC   = accura    normal or accurate (medium, high low for compatibility)
   ISTART =      0    job   : 0-new  1-cont  2-samecut
   ICHARG =      2    charge: 1-file 2-atom 10-const
   ISPIN  =      1    spin polarized calculation?
   LNONCOLLINEAR =      F non collinear calculations
   LSORBIT =      F    spin-orbit coupling
   INIWAV =      1    electr: 0-lowe 1-rand  2-diag
   LASPH  =      T    aspherical Exc in radial PAW
 Electronic Relaxation 1
   ENCUT  =  520.0 eV  38.22 Ry    6.18 a.u.  39.30 39.30 41.12*2*pi/ulx,y,z
   ENINI  =  520.0     initial cutoff
   ENAUG  =  412.5 eV  augmentation charge cutoff
   NELM   =    200;   NELMIN=  8; NELMDL= -5     # of ELM steps 
   EDIFF  = 0.1E-05   stopping-criterion for ELM
   LREAL  =      T    real-space projection
   NLSPLINE    = F    spline interpolate recip. space projectors
   LCOMPAT=      F    compatible to vasp.4.4
   GGA_COMPAT  = T    GGA compatible to vasp.4.4-vasp.4.6
   LMAXPAW     = -100 max onsite density
   LMAXMIX     =    2 max onsite mixed and CHGCAR
   VOSKOWN=      0    Vosko Wilk Nusair interpolation
   ROPT   =   -0.00025
 Ionic relaxation
   EDIFFG = 0.1E-04   stopping-criterion for IOM
   NSW    =      0    number of steps for IOM
   NBLOCK =      1;   KBLOCK =      1    inner block; outer block 
   IBRION =     -1    ionic relax: 0-MD 1-quasi-New 2-CG
   NFREE  =      0    steps in history (QN), initial steepest desc. (CG)
   ISIF   =      0    stress and relaxation
   IWAVPR =     10    prediction:  0-non 1-charg 2-wave 3-comb
   ISYM   =      2    0-nonsym 1-usesym 2-fastsym
   LCORR  =      T    Harris-Foulkes like correction to forces

   POTIM  = 0.5000    time-step for ionic-motion
   TEIN   =    0.0    initial temperature
   TEBEG  =    0.0;   TEEND  =   0.0 temperature during run
   SMASS  =  -3.00    Nose mass-parameter (am)
   estimated Nose-frequenzy (Omega)   =  0.10E-29 period in steps = 0.13E+47 mass=  -0.102E-25a.u.
   SCALEE = 1.0000    scale energy and forces
   NPACO  =    256;   APACO  = 10.0  distance and # of slots for P.C.
   PSTRESS=    0.0 pullay stress

  Mass of Ions in am
   POMASS = 107.87
  Ionic Valenz
   ZVAL   =  11.00
  Atomic Wigner-Seitz radii
   RWIGS  =  -1.00
  virtual crystal weights 
   VCA    =   1.00
   NELECT =      22.0000    total number of electrons
   NUPDOWN=      -1.0000    fix difference up-down

 DOS related values:
   EMIN   =  10.00;   EMAX   =-10.00  energy-range for DOS
   EFERMI =   0.00
   ISMEAR =     0;   SIGMA  =   0.05  broadening in eV -4-tet -1-fermi 0-gaus

 Electronic relaxation 2 (details)
   IALGO  =     58    algorithm
   LDIAG  =      T    sub-space diagonalisation (order eigenvalues)
   LSUBROT=      F    optimize rotation matrix (better conditioning)
   TURBO    =      0    0=normal 1=particle mesh
   IRESTART =      0    0=no restart 2=restart with 2 vectors
   NREBOOT  =      0    no. of reboots
   NMIN     =      0    reboot dimension
   EREF     =   0.00    reference energy to select bands
   IMIX   =      4    mixing-type and parameters
     AMIX     =   0.40;   BMIX     =  1.00
     AMIX_MAG =   1.60;   BMIX_MAG =  1.00
     AMIN     =   0.10
     WC   =   100.;   INIMIX=   1;  MIXPRE=   1;  MAXMIX= -45

 Intra band minimization:
   WEIMIN = 0.0000     energy-eigenvalue tresh-hold
   EBREAK =  0.65E-09  absolut break condition
   DEPER  =   0.30     relativ break condition  

   TIME   =   0.40     timestep for ELM

  volume/ion in A,a.u.               =    4940.81     33342.21
  Fermi-wavevector in a.u.,A,eV,Ry     =   0.213767  0.403960  0.621734  0.045696
  Thomas-Fermi vector in A             =   0.985879

 Write flags
   LWAVE        =      F    write WAVECAR
   LDOWNSAMPLE  =      F    k-point downsampling of WAVECAR
   LCHARG       =      F    write CHGCAR
   LVTOT        =      F    write LOCPOT, total local potential
   LVHAR        =      F    write LOCPOT, Hartree potential only
   LELF         =      F    write electronic localiz. function (ELF)
   LORBIT       =      0    0 simple, 1 ext, 2 COOP (PROOUT), +10 PAW based schemes


 Dipole corrections
   LMONO  =      F    monopole corrections only (constant potential shift)
   LDIPOL =      T    correct potential (dipole corrections)
   IDIPOL =      3    1-x, 2-y, 3-z, 4-all directions 
   EPSILON=  1.0000000 bulk dielectric constant

 Exchange correlation treatment:
   GGA     =    B5    GGA type
   LEXCH   =    12    internal setting for exchange type
   LIBXC   =     F    Libxc                    
   VOSKOWN =     0    Vosko Wilk Nusair interpolation
   EXXOEP  =     0    0=HF, 1=EXX-LHF (local Hartree Fock) 2=EXX OEP
   LHFCALC =     T    Hartree Fock is set to
   LSYMGRAD=     F    symmetrize gradient (conserves proper symmetry)
   PRECFOCK=normal    Normal, Fast or Accurate (Low or Medium for compatibility)
   LRHFCALC=     F    long range Hartree Fock
   LRSCOR  =     F    long range correlation only (use DFT for short range part)
   LTHOMAS =     F    Thomas Fermi screening in HF
   LMODELHF=     F    short range full HF, long range fraction AEXX
   LFOCKACE=     T    use Adeptively-Compressed-Exchange operator
   ENCUT4O =  -1.0   cutoff for four orbital integrals eV
   LMAXFOCK=     4    L truncation for augmentation on plane wave grid
   LMAXFOCKAE=  -1    L truncation for all-electron charge restoration on plane wave grid
   NMAXFOCKAE=   1    number of basis functions for all-electron charge restoration
   LFOCKAEDFT=     F  apply the AE augmentation even for DFT
   NKREDX  =     1    reduce k-point grid by
   NKREDY  =     1    reduce k-point grid by
   NKREDZ  =     1    reduce k-point grid by
   SHIFTRED=     F    shift reduced grid of Gamma
   HFKIDENT=     F    idential grid for each k-point
   ODDONLY =     F    use only odd q-grid points
   EVENONLY=     F    use only even q-grid points
   HFALPHA =   -1.0000 decay constant for conv. correction
   MCALPHA =    0.0000 extent of test-charge in conv. correction in multipole expansion
   AEXX    =    0.2000 exact exchange contribution
   HFSCREEN=    0.0000 screening length (either q_TF or 0.3 A-1)
   HFSCREENC=   0.0000 screening length for correlation (either q_TF or 0.3 A-1)
   HFRCUT  =    0.0000 spherical cutoff for potential kernel
   ALDAX   =    0.8000 LDA exchange part
   AGGAX   =    0.7200 GGA exchange part
   ALDAC   =    0.1900 LDA correlation
   AGGAC   =    0.8100 GGA correlation
   ENCUTFOCK=  -1.0 apply spherical cutoff to Coloumb kernel
   NBANDSGWLOW=     1    first orbital included in HF term
   NBLOCK_FOCK=    64    blocking factor in FOCK_ACC

 Linear response parameters
   LEPSILON=     F    determine dielectric tensor
   LRPA    =     F    only Hartree local field effects (RPA)
   LNABLA  =     F    use nabla operator in PAW spheres
   LVEL    =     F    velocity operator in full k-point grid
   CSHIFT  =0.1000    complex shift for real part using Kramers Kronig
   OMEGAMAX=  -1.0    maximum frequency
   DEG_THRESHOLD= 0.2000000E-02 threshold for treating states as degnerate
   RTIME   =   -0.100 relaxation time in fs
  (WPLASMAI=    0.000 imaginary part of plasma frequency in eV, 0.658/RTIME)
   DFIELD  = 0.0000000 0.0000000 0.0000000 field for delta impulse in time

  Optional k-point grid parameters
   LKPOINTS_OPT  =     F    use optional k-point grid
   KPOINTS_OPT_MODE=     1    mode for optional k-point grid

 Orbital magnetization related:
   ORBITALMAG=     F  switch on orbital magnetization
   LCHIMAG   =     F  perturbation theory with respect to B field
   DQ        =  0.001000  dq finite difference perturbation B field
   LLRAUG    =     F  two centre corrections for induced B field



--------------------------------------------------------------------------------------------------------


 Static calculation
 charge density and potential will be updated during run
 non-spin polarized calculation
 Conjugate gradient for all bands (Freysoldt, et al. PRB 79, 241103 (2009))
 preconditioned conjugated gradient                                        
 perform sub-space diagonalisation
    before iterative eigenvector-optimisation
 modified Broyden-mixing scheme, WC =      100.0
 initial mixing is a Kerker type mixing with AMIX =  0.4000 and BMIX =      1.0000
 Hartree-type preconditioning will be used
 using additional bands          373
 real space projection scheme for non local part
 use partial core corrections
 no Harris-corrections to forces 
 use gradient corrections 
 use of overlap-Matrix (Vanderbilt PP)
 Gauss-broadening in eV      SIGMA  =   0.05


--------------------------------------------------------------------------------------------------------


  energy-cutoff  :      520.00
  volume of cell :     9881.61
      direct lattice vectors                 reciprocal lattice vectors
    21.138852197  0.000000000  0.000000000     0.047306258  0.000000000  0.000000000
     0.000000000 21.138852197  0.000000000     0.000000000  0.047306258  0.000000000
     0.000000000  0.000000000 22.113885220     0.000000000  0.000000000  0.045220457

  length of vectors
    21.138852197 21.138852197 22.113885220     0.047306258  0.047306258  0.045220457



 k-points in units of 2pi/SCALE and weight: KPOINTS created by Atomic Simulation Env
   0.00000000  0.00000000  0.00000000       1.000

 k-points in reciprocal lattice and weights: KPOINTS created by Atomic Simulation Env
   0.00000000  0.00000000  0.00000000       1.000

 position of ions in fractional coordinates (direct lattice) 
   0.54328273  0.45671727  0.62533481
   0.45671727  0.54328273  0.62533481

 position of ions in cartesian coordinates  (Angst):
  11.48437342  9.65447878 13.82858213
   9.65447878 11.48437342 13.82858213



--------------------------------------------------------------------------------------------------------


 k-point   1 :   0.0000 0.0000 0.0000  plane waves:  265979

 maximum and minimum number of plane-waves per node :     66495    66494

 maximum number of plane-waves:    265979
 maximum index in each direction: 
   IXMAX=   39   IYMAX=   39   IZMAX=   41
   IXMIN=  -39   IYMIN=  -39   IZMIN=  -41


 real space projection operators:
  total allocation   :       1504.97 KBytes
  max/ min on nodes  :        376.88        374.34


 parallel 3D FFT for wavefunctions:
    minimum data exchange during FFTs selected (reduces bandwidth)
 parallel 3D FFT for charge:
    minimum data exchange during FFTs selected (reduces bandwidth)


 FFT grid for exact exchange (Hartree Fock) 
  NGX =120; NGY =120; NGZ =126


 Radii for the augmentation spheres in the non-local exchange
 for species   1 augmentation radius   1.406 (default was   1.125)
       energy cutoff for augmentation   2080.0

 real space projection operators:
  total allocation   :        832.03 KBytes
  max/ min on nodes  :        210.94        205.86

 Maximum index for augmentation-charges in exchange          540
  SETUP_FOCK is finished

 total amount of memory used by VASP MPI-rank0   144416. kBytes
=======================================================================

   base      :      30000. kBytes
   nonlr-proj:        980. kBytes
   fftplans  :      61841. kBytes
   grid      :      48291. kBytes
   one-center:         15. kBytes
   HF        :         64. kBytes
   wavefun   :       3225. kBytes

     INWAV:  cpu time      0.0000: real time      0.0000
 Broyden mixing: mesh for mixing (old mesh)
   NGX = 79   NGY = 79   NGZ = 83
  (NGX  =320   NGY  =320   NGZ  =336)
  gives a total of 518003 points

 initial charge density was supplied:
 charge density of overlapping atoms calculated
 number of electron      22.0000000 magnetization 
 keeping initial charge density in first step


--------------------------------------------------------------------------------------------------------


 Maximum index for non-local projection operator         1331
 Maximum index for augmentation-charges            0 (set IRDMAX)


--------------------------------------------------------------------------------------------------------


    FEWALD:  cpu time      0.0005: real time      0.0006


--------------------------------------- Iteration      1(   1)  ---------------------------------------


    POTLOK:  cpu time      0.4201: real time      0.4213
    SETDIJ:  cpu time      0.1936: real time      0.1936
    TRIAL :  cpu time     11.8497: real time     11.8518
    CORREC:  cpu time      0.0006: real time      0.0006
    --------------------------------------------
      LOOP:  cpu time     12.4661: real time     12.4700

 eigenvalue-minimisations  :   768
 total energy-change (2. order) :-0.1723103E+04  (-0.6446636E+03)
 number of electron      22.0000000 magnetization 
 augmentation part       22.0000000 magnetization 

 DIPCOR: dipole corrections for dipol
 direction  3 min pos     1,
 dipolmoment           0.000000      0.000000     -0.000013 electrons x Angstroem
 Tr[quadrupol]     -4099.495593

 energy correction for charged system         0.000000 eV
 dipol+quadrupol energy correction           -0.000000 eV
 added-field ion interaction          0.000016 eV  (added to PSCEN)


 Free energy of the ion-electron system (eV)
  ---------------------------------------------------
  alpha Z        PSCENC =         0.34432352
  Ewald energy   TEWEN  =       215.47733292
  -Hartree energ DENC   =     -2197.73572706
  -exchange      EXHF   =         0.00000000
  -V(xc)+E(xc)   XCENC  =       -23.77555904
  PAW double counting   =      2006.92429865    -3696.04365804
  entropy T*S    EENTRO =        -0.00000000
  eigenvalues    EBANDS =       -97.86298415
  atomic energy  EATOM  =      2069.56939783
  ---------------------------------------------------
  free energy    TOTEN  =     -1723.10257537 eV

  energy without entropy =    -1723.10257537  energy(sigma->0) =    -1723.10257537
  exchange ACFDT corr.  =         0.00000000  see jH, gK, PRB 81, 115126


--------------------------------------------------------------------------------------------------------




--------------------------------------- Iteration      1(   2)  ---------------------------------------


    TRIAL :  cpu time     13.9133: real time     13.9155
    CORREC:  cpu time      0.0004: real time      0.0004
    --------------------------------------------
      LOOP:  cpu time     13.9220: real time     13.9370

 eigenvalue-minimisations  :   768
 total energy-change (2. order) :-0.1183401E+03  (-0.1183401E+03)
 number of electron      22.0000000 magnetization 
 augmentation part       22.0000000 magnetization 

 DIPCOR: dipole corrections for dipol
 direction  3 min pos     1,
 dipolmoment           0.000000      0.000000     -0.000013 electrons x Angstroem
 Tr[quadrupol]     -4099.495593

 energy correction for charged system         0.000000 eV
 dipol+quadrupol energy correction           -0.000000 eV
 added-field ion interaction          0.000016 eV  (added to PSCEN)


 Free energy of the ion-electron system (eV)
  ---------------------------------------------------
  alpha Z        PSCENC =         0.34432352
  Ewald energy   TEWEN  =       215.47733292
  -Hartree energ DENC   =     -2197.73572706
  -exchange      EXHF   =         0.00000000
  -V(xc)+E(xc)   XCENC  =       -23.77555904
  PAW double counting   =      2006.92429865    -3696.04365804
  entropy T*S    EENTRO =        -0.00000000
  eigenvalues    EBANDS =      -216.20310417
  atomic energy  EATOM  =      2069.56939783
  ---------------------------------------------------
  free energy    TOTEN  =     -1841.44269538 eV

  energy without entropy =    -1841.44269538  energy(sigma->0) =    -1841.44269538
  exchange ACFDT corr.  =         0.00000000  see jH, gK, PRB 81, 115126


--------------------------------------------------------------------------------------------------------




--------------------------------------- Iteration      1(   3)  ---------------------------------------


    TRIAL :  cpu time     75.5389: real time     75.5462
    CORREC:  cpu time      0.0013: real time      0.0013
    --------------------------------------------
      LOOP:  cpu time     75.5486: real time     75.5687

 eigenvalue-minimisations  :  1536
 total energy-change (2. order) :-0.6992061E+03  (-0.6991497E+03)
 number of electron      22.0000000 magnetization 
 augmentation part       22.0000000 magnetization 

 DIPCOR: dipole corrections for dipol
 direction  3 min pos     1,
 dipolmoment           0.000000      0.000000     -0.000013 electrons x Angstroem
 Tr[quadrupol]     -4099.495593

 energy correction for charged system         0.000000 eV
 dipol+quadrupol energy correction           -0.000000 eV
 added-field ion interaction          0.000016 eV  (added to PSCEN)


 Free energy of the ion-electron system (eV)
  ---------------------------------------------------
  alpha Z        PSCENC =         0.34432352
  Ewald energy   TEWEN  =       215.47733292
  -Hartree energ DENC   =     -2197.73572706
  -exchange      EXHF   =         0.00000000
  -V(xc)+E(xc)   XCENC  =       -23.77555904
  PAW double counting   =      2006.92429865    -3696.04365804
  entropy T*S    EENTRO =        -0.05645562
  eigenvalues    EBANDS =      -915.35279180
  atomic energy  EATOM  =      2069.56939783
  ---------------------------------------------------
  free energy    TOTEN  =     -2540.64883864 eV

  energy without entropy =    -2540.59238302  energy(sigma->0) =    -2540.62061083
  exchange ACFDT corr.  =         0.00000000  see jH, gK, PRB 81, 115126


--------------------------------------------------------------------------------------------------------




--------------------------------------- Iteration      1(   4)  ---------------------------------------


    TRIAL :  cpu time     13.1917: real time     13.1929
    CORREC:  cpu time      0.0004: real time      0.0004
    --------------------------------------------
      LOOP:  cpu time     13.2127: real time     13.2141

 eigenvalue-minimisations  :   768
 total energy-change (2. order) : 0.6984181E+03  (-0.5065484E+03)
 number of electron      22.0000000 magnetization 
 augmentation part       22.0000000 magnetization 

 DIPCOR: dipole corrections for dipol
 direction  3 min pos     1,
 dipolmoment           0.000000      0.000000     -0.000013 electrons x Angstroem
 Tr[quadrupol]     -4099.495593

 energy correction for charged system         0.000000 eV
 dipol+quadrupol energy correction           -0.000000 eV
 added-field ion interaction          0.000016 eV  (added to PSCEN)


 Free energy of the ion-electron system (eV)
  ---------------------------------------------------
  alpha Z        PSCENC =         0.34432352
  Ewald energy   TEWEN  =       215.47733292
  -Hartree energ DENC   =     -2197.73572706
  -exchange      EXHF   =         0.00000000
  -V(xc)+E(xc)   XCENC  =       -23.77555904
  PAW double counting   =      2006.92429865    -3696.04365804
  entropy T*S    EENTRO =        -0.00000000
  eigenvalues    EBANDS =      -216.99117057
  atomic energy  EATOM  =      2069.56939783
  ---------------------------------------------------
  free energy    TOTEN  =     -1842.23076179 eV

  energy without entropy =    -1842.23076179  energy(sigma->0) =    -1842.23076179
  exchange ACFDT corr.  =         0.00000000  see jH, gK, PRB 81, 115126


--------------------------------------------------------------------------------------------------------




--------------------------------------- Iteration      1(   5)  ---------------------------------------


    POTLOK:  cpu time      0.3915: real time      0.3915
    SETDIJ:  cpu time      0.5888: real time      0.5888
    TRIAL :  cpu time    112.5536: real time    112.5711
    CORREC:  cpu time      0.0009: real time      0.0009
    CHARGE:  cpu time      0.9545: real time      0.9558
    --------------------------------------------
      LOOP:  cpu time    114.4993: real time    114.5292

 eigenvalue-minimisations  :  1536
 total energy-change (2. order) : 0.1734564E+04  (-0.1063653E+03)
 number of electron      22.0000008 magnetization 
 augmentation part       10.8649754 magnetization 

 DIPCOR: dipole corrections for dipol
 direction  3 min pos     1,
 dipolmoment           0.000000      0.000000     -0.000013 electrons x Angstroem
 Tr[quadrupol]     -4099.495593

 energy correction for charged system         0.000000 eV
 dipol+quadrupol energy correction           -0.000000 eV
 added-field ion interaction          0.000016 eV  (added to PSCEN)


 Free energy of the ion-electron system (eV)
  ---------------------------------------------------
  alpha Z        PSCENC =         0.34432352
  Ewald energy   TEWEN  =       215.47733292
  -Hartree energ DENC   =     -2197.73572706
  -exchange      EXHF   =        45.04989836
  -V(xc)+E(xc)   XCENC  =       -20.37279814
  PAW double counting   =      2003.32598793    -1923.86672274
  entropy T*S    EENTRO =        -0.00000401
  eigenvalues    EBANDS =      -299.45861902
  atomic energy  EATOM  =      2069.56939783
  ---------------------------------------------------
  free energy    TOTEN  =      -107.66693041 eV

  energy without entropy =     -107.66692640  energy(sigma->0) =     -107.66692840
  exchange ACFDT corr.  =        -0.00000000  see jH, gK, PRB 81, 115126


--------------------------------------------------------------------------------------------------------




--------------------------------------- Iteration      1(   6)  ---------------------------------------


    POTLOK:  cpu time      0.5328: real time      0.5328
    SETDIJ:  cpu time      0.6243: real time      0.6243
    TRIAL :  cpu time     95.5596: real time     95.6247
    CORREC:  cpu time     49.8991: real time     49.9091
    CHARGE:  cpu time      0.8577: real time      0.8577
    --------------------------------------------
      LOOP:  cpu time    147.4967: real time    147.5722

 eigenvalue-minimisations  :     0
 total energy-change (2. order) : 0.2040926E+03  (-0.5667583E+02)
 number of electron      22.0000006 magnetization 
 augmentation part       11.0264239 magnetization 

 DIPCOR: dipole corrections for dipol
 direction  3 min pos     1,
 dipolmoment           0.000000      0.000000     -6.877858 electrons x Angstroem
 Tr[quadrupol]     -4033.566747

 energy correction for charged system         0.000000 eV
 dipol+quadrupol energy correction           -0.468042 eV
 added-field ion interaction          8.299019 eV  (added to PSCEN)


 Free energy of the ion-electron system (eV)
  ---------------------------------------------------
  alpha Z        PSCENC =         7.51444222
  Ewald energy   TEWEN  =       215.47733292
  -Hartree energ DENC   =     -2003.53615551
  -exchange      EXHF   =        41.44290163
  -V(xc)+E(xc)   XCENC  =       -22.22303053
  PAW double counting   =      2059.52004951    -1975.88996835
  entropy T*S    EENTRO =        -0.00000000
  eigenvalues    EBANDS =      -295.44934204
  atomic energy  EATOM  =      2069.56939783
  ---------------------------------------------------
  free energy    TOTEN  =        96.42562366 eV

  energy without entropy =       96.42562366  energy(sigma->0) =       96.42562366
  exchange ACFDT corr.  =        -0.00001771  see jH, gK, PRB 81, 115126


--------------------------------------------------------------------------------------------------------




--------------------------------------- Iteration      1(   7)  ---------------------------------------


    POTLOK:  cpu time      0.5691: real time      0.5692
    SETDIJ:  cpu time      0.5987: real time      0.5988
    TRIAL :  cpu time     48.0351: real time     48.0461
    CORREC:  cpu time     49.7482: real time     49.7581
    CHARGE:  cpu time      0.8654: real time      0.8654
    --------------------------------------------
      LOOP:  cpu time     99.8241: real time     99.8594

 eigenvalue-minimisations  :     0
 total energy-change (2. order) :-0.5639875E+02  (-0.5754457E+01)
 number of electron      22.0000006 magnetization 
 augmentation part       10.7574136 magnetization 

 DIPCOR: dipole corrections for dipol
 direction  3 min pos     1,
 dipolmoment           0.000000      0.000000     -6.366011 electrons x Angstroem
 Tr[quadrupol]     -4036.212204

 energy correction for charged system         0.000000 eV
 dipol+quadrupol energy correction           -0.400972 eV
 added-field ion interaction          7.681410 eV  (added to PSCEN)


 Free energy of the ion-electron system (eV)
  ---------------------------------------------------
  alpha Z        PSCENC =         8.20199350
  Ewald energy   TEWEN  =       215.47733292
  -Hartree energ DENC   =     -1992.28769486
  -exchange      EXHF   =        41.90222832
  -V(xc)+E(xc)   XCENC  =       -22.02139634
  PAW double counting   =      1906.28015168    -1822.63810752
  entropy T*S    EENTRO =        -0.00000000
  eigenvalues    EBANDS =      -364.45703338
  atomic energy  EATOM  =      2069.56939783
  ---------------------------------------------------
  free energy    TOTEN  =        40.02687215 eV

  energy without entropy =       40.02687215  energy(sigma->0) =       40.02687215
  exchange ACFDT corr.  =        -0.50199346  see jH, gK, PRB 81, 115126


--------------------------------------------------------------------------------------------------------




--------------------------------------- Iteration      1(   8)  ---------------------------------------


    POTLOK:  cpu time      0.4016: real time      0.4017
    SETDIJ:  cpu time      0.5936: real time      0.5937
    TRIAL :  cpu time     48.2436: real time     48.2528
    CORREC:  cpu time     49.4791: real time     49.4887
    CHARGE:  cpu time      0.8612: real time      0.8613
    --------------------------------------------
      LOOP:  cpu time     99.6007: real time     99.6199

 eigenvalue-minimisations  :     0
 total energy-change (2. order) :-0.4063732E+02  (-0.1414757E+01)
 number of electron      22.0000006 magnetization 
 augmentation part       10.5762845 magnetization 

 DIPCOR: dipole corrections for dipol
 direction  3 min pos     1,
 dipolmoment           0.000000      0.000000     -0.001414 electrons x Angstroem
 Tr[quadrupol]     -4099.879490

 energy correction for charged system         0.000000 eV
 dipol+quadrupol energy correction           -0.000000 eV
 added-field ion interaction          0.001706 eV  (added to PSCEN)


 Free energy of the ion-electron system (eV)
  ---------------------------------------------------
  alpha Z        PSCENC =         0.38291852
  Ewald energy   TEWEN  =       215.47733292
  -Hartree energ DENC   =     -2252.62140809
  -exchange      EXHF   =        43.79422261
  -V(xc)+E(xc)   XCENC  =       -19.44583157
  PAW double counting   =      2281.45925796    -2204.00303639
  entropy T*S    EENTRO =        -0.00000000
  eigenvalues    EBANDS =      -135.22329717
  atomic energy  EATOM  =      2069.56939783
  ---------------------------------------------------
  free energy    TOTEN  =        -0.61044338 eV

  energy without entropy =       -0.61044338  energy(sigma->0) =       -0.61044338
  exchange ACFDT corr.  =        -0.38227047  see jH, gK, PRB 81, 115126


--------------------------------------------------------------------------------------------------------




--------------------------------------- Iteration      1(   9)  ---------------------------------------


    POTLOK:  cpu time      0.4030: real time      0.4030
    SETDIJ:  cpu time      0.5841: real time      0.5842
    TRIAL :  cpu time     47.8585: real time     47.8682
    CORREC:  cpu time     49.3447: real time     49.3549
    CHARGE:  cpu time      0.8593: real time      0.8593
    --------------------------------------------
      LOOP:  cpu time     99.0810: real time     99.1144

 eigenvalue-minimisations  :     0
 total energy-change (2. order) :-0.1367289E+01  (-0.3320917E+00)
 number of electron      22.0000006 magnetization 
 augmentation part       10.7189588 magnetization 

 DIPCOR: dipole corrections for dipol
 direction  3 min pos     1,
 dipolmoment           0.000000      0.000000     -0.006037 electrons x Angstroem
 Tr[quadrupol]     -4099.790047

 energy correction for charged system         0.000000 eV
 dipol+quadrupol energy correction           -0.000000 eV
 added-field ion interaction          0.007284 eV  (added to PSCEN)


 Free energy of the ion-electron system (eV)
  ---------------------------------------------------
  alpha Z        PSCENC =         0.34872526
  Ewald energy   TEWEN  =       215.47733292
  -Hartree energ DENC   =     -2209.96201855
  -exchange      EXHF   =        43.11260613
  -V(xc)+E(xc)   XCENC  =       -20.33212853
  PAW double counting   =      2257.56947389    -2179.24138220
  entropy T*S    EENTRO =        -0.00000000
  eigenvalues    EBANDS =      -178.51973903
  atomic energy  EATOM  =      2069.56939783
  ---------------------------------------------------
  free energy    TOTEN  =        -1.97773229 eV

  energy without entropy =       -1.97773229  energy(sigma->0) =       -1.97773229
  exchange ACFDT corr.  =        -0.00000000  see jH, gK, PRB 81, 115126


--------------------------------------------------------------------------------------------------------




--------------------------------------- Iteration      1(  10)  ---------------------------------------


    POTLOK:  cpu time      0.4304: real time      0.4305
    SETDIJ:  cpu time      0.5864: real time      0.5864
    TRIAL :  cpu time     47.8901: real time     47.9018
    CORREC:  cpu time     49.6576: real time     49.6850
    CHARGE:  cpu time      0.8595: real time      0.8598
    --------------------------------------------
      LOOP:  cpu time     99.4463: real time     99.4858

 eigenvalue-minimisations  :     0
 total energy-change (2. order) :-0.3345765E+00  (-0.2126359E+00)
 number of electron      22.0000006 magnetization 
 augmentation part       10.6958601 magnetization 

 DIPCOR: dipole corrections for dipol
 direction  3 min pos     1,
 dipolmoment           0.000000      0.000000     -0.002664 electrons x Angstroem
 Tr[quadrupol]     -4099.725076

 energy correction for charged system         0.000000 eV
 dipol+quadrupol energy correction           -0.000000 eV
 added-field ion interaction          0.003215 eV  (added to PSCEN)


 Free energy of the ion-electron system (eV)
  ---------------------------------------------------
  alpha Z        PSCENC =         0.35365775
  Ewald energy   TEWEN  =       215.47733292
  -Hartree energ DENC   =     -2219.80089766
  -exchange      EXHF   =        43.35104321
  -V(xc)+E(xc)   XCENC  =       -20.02131919
  PAW double counting   =      2245.37140472    -2167.15773297
  entropy T*S    EENTRO =        -0.00000000
  eigenvalues    EBANDS =      -169.45519537
  atomic energy  EATOM  =      2069.56939783
  ---------------------------------------------------
  free energy    TOTEN  =        -2.31230878 eV

  energy without entropy =       -2.31230878  energy(sigma->0) =       -2.31230878
  exchange ACFDT corr.  =         0.00000000  see jH, gK, PRB 81, 115126


--------------------------------------------------------------------------------------------------------




--------------------------------------- Iteration      1(  11)  ---------------------------------------


    POTLOK:  cpu time      0.4179: real time      0.4180
    SETDIJ:  cpu time      0.5995: real time      0.5998
    TRIAL :  cpu time     49.0380: real time     49.0641
    CORREC:  cpu time     59.7740: real time     59.7873
    CHARGE:  cpu time      0.8561: real time      0.8565
    --------------------------------------------
      LOOP:  cpu time    110.7048: real time    110.7559

 eigenvalue-minimisations  :     0
 total energy-change (2. order) :-0.1886973E+00  (-0.4988064E-01)
 number of electron      22.0000006 magnetization 
 augmentation part       10.7006101 magnetization 

 DIPCOR: dipole corrections for dipol
 direction  3 min pos     1,
 dipolmoment           0.000000      0.000000     -0.000277 electrons x Angstroem
 Tr[quadrupol]     -4099.519151

 energy correction for charged system         0.000000 eV
 dipol+quadrupol energy correction           -0.000000 eV
 added-field ion interaction          0.000334 eV  (added to PSCEN)


 Free energy of the ion-electron system (eV)
  ---------------------------------------------------
  alpha Z        PSCENC =         0.34528267
  Ewald energy   TEWEN  =       215.47733292
  -Hartree energ DENC   =     -2206.19287296
  -exchange      EXHF   =        43.09482822
  -V(xc)+E(xc)   XCENC  =       -20.32693373
  PAW double counting   =      2197.18675683    -2118.81042683
  entropy T*S    EENTRO =        -0.00000000
  eigenvalues    EBANDS =      -182.84437101
  atomic energy  EATOM  =      2069.56939783
  ---------------------------------------------------
  free energy    TOTEN  =        -2.50100606 eV

  energy without entropy =       -2.50100606  energy(sigma->0) =       -2.50100606
  exchange ACFDT corr.  =        -0.00000000  see jH, gK, PRB 81, 115126


--------------------------------------------------------------------------------------------------------




--------------------------------------- Iteration      1(  12)  ---------------------------------------


    POTLOK:  cpu time      0.4019: real time      0.4019
    SETDIJ:  cpu time      0.6091: real time      0.6092
    TRIAL :  cpu time     63.6152: real time     63.6283
    CORREC:  cpu time     64.8986: real time     64.9095
    CHARGE:  cpu time      0.8600: real time      0.8605
    --------------------------------------------
      LOOP:  cpu time    130.4073: real time    130.4320

 eigenvalue-minimisations  :     0
 total energy-change (2. order) :-0.4928091E-01  (-0.1312267E-01)
 number of electron      22.0000006 magnetization 
 augmentation part       10.7109259 magnetization 

 DIPCOR: dipole corrections for dipol
 direction  3 min pos     1,
 dipolmoment           0.000000      0.000000     -0.000258 electrons x Angstroem
 Tr[quadrupol]     -4099.490681

 energy correction for charged system         0.000000 eV
 dipol+quadrupol energy correction           -0.000000 eV
 added-field ion interaction          0.000311 eV  (added to PSCEN)


 Free energy of the ion-electron system (eV)
  ---------------------------------------------------
  alpha Z        PSCENC =         0.34466770
  Ewald energy   TEWEN  =       215.47733292
  -Hartree energ DENC   =     -2202.70664895
  -exchange      EXHF   =        43.05082779
  -V(xc)+E(xc)   XCENC  =       -20.38922940
  PAW double counting   =      2182.33254463    -2103.78627326
  entropy T*S    EENTRO =        -0.00000000
  eigenvalues    EBANDS =      -186.44290622
  atomic energy  EATOM  =      2069.56939783
  ---------------------------------------------------
  free energy    TOTEN  =        -2.55028697 eV

  energy without entropy =       -2.55028697  energy(sigma->0) =       -2.55028697
  exchange ACFDT corr.  =        -0.00000000  see jH, gK, PRB 81, 115126


--------------------------------------------------------------------------------------------------------




--------------------------------------- Iteration      1(  13)  ---------------------------------------


    POTLOK:  cpu time      0.4062: real time      0.4063
    SETDIJ:  cpu time      0.6044: real time      0.6044
    TRIAL :  cpu time     63.7244: real time     63.7360
    CORREC:  cpu time     65.8783: real time     65.8900
    CHARGE:  cpu time      0.8587: real time      0.8587
    --------------------------------------------
      LOOP:  cpu time    131.4806: real time    131.5173

 eigenvalue-minimisations  :     0
 total energy-change (2. order) :-0.1326632E-01  (-0.6841315E-02)
 number of electron      22.0000006 magnetization 
 augmentation part       10.7035249 magnetization 

 DIPCOR: dipole corrections for dipol
 direction  3 min pos     1,
 dipolmoment           0.000000      0.000000     -0.000123 electrons x Angstroem
 Tr[quadrupol]     -4099.490882

 energy correction for charged system         0.000000 eV
 dipol+quadrupol energy correction           -0.000000 eV
 added-field ion interaction          0.000148 eV  (added to PSCEN)


 Free energy of the ion-electron system (eV)
  ---------------------------------------------------
  alpha Z        PSCENC =         0.34463030
  Ewald energy   TEWEN  =       215.47733292
  -Hartree energ DENC   =     -2204.33437168
  -exchange      EXHF   =        43.08807909
  -V(xc)+E(xc)   XCENC  =       -20.34866563
  PAW double counting   =      2184.63631296    -2106.03073492
  entropy T*S    EENTRO =        -0.00000000
  eigenvalues    EBANDS =      -184.96553416
  atomic energy  EATOM  =      2069.56939783
  ---------------------------------------------------
  free energy    TOTEN  =        -2.56355329 eV

  energy without entropy =       -2.56355329  energy(sigma->0) =       -2.56355329
  exchange ACFDT corr.  =        -0.00000000  see jH, gK, PRB 81, 115126


--------------------------------------------------------------------------------------------------------




--------------------------------------- Iteration      1(  14)  ---------------------------------------


    POTLOK:  cpu time      0.4063: real time      0.4064
    SETDIJ:  cpu time      0.6101: real time      0.6101
    TRIAL :  cpu time     64.3822: real time     64.3941
    CORREC:  cpu time     65.1423: real time     65.1544
    CHARGE:  cpu time      0.8575: real time      0.8575
    --------------------------------------------
      LOOP:  cpu time    131.4206: real time    131.4450

 eigenvalue-minimisations  :     0
 total energy-change (2. order) :-0.6946949E-02  (-0.2613995E-02)
 number of electron      22.0000006 magnetization 
 augmentation part       10.7018974 magnetization 

 DIPCOR: dipole corrections for dipol
 direction  3 min pos     1,
 dipolmoment           0.000000      0.000000     -0.000045 electrons x Angstroem
 Tr[quadrupol]     -4099.496741

 energy correction for charged system         0.000000 eV
 dipol+quadrupol energy correction           -0.000000 eV
 added-field ion interaction          0.000054 eV  (added to PSCEN)


 Free energy of the ion-electron system (eV)
  ---------------------------------------------------
  alpha Z        PSCENC =         0.34443006
  Ewald energy   TEWEN  =       215.47733292
  -Hartree energ DENC   =     -2204.33833155
  -exchange      EXHF   =        43.08517323
  -V(xc)+E(xc)   XCENC  =       -20.35612412
  PAW double counting   =      2188.08069419    -2109.42940778
  entropy T*S    EENTRO =        -0.00000000
  eigenvalues    EBANDS =      -185.00366500
  atomic energy  EATOM  =      2069.56939783
  ---------------------------------------------------
  free energy    TOTEN  =        -2.57050024 eV

  energy without entropy =       -2.57050024  energy(sigma->0) =       -2.57050024
  exchange ACFDT corr.  =        -0.00000000  see jH, gK, PRB 81, 115126


--------------------------------------------------------------------------------------------------------




--------------------------------------- Iteration      1(  15)  ---------------------------------------


    POTLOK:  cpu time      0.4244: real time      0.4244
    SETDIJ:  cpu time      0.5879: real time      0.5879
    TRIAL :  cpu time     64.5701: real time     64.5804
    CORREC:  cpu time     66.0882: real time     66.1005
    CHARGE:  cpu time      0.8583: real time      0.8584
    --------------------------------------------
      LOOP:  cpu time    132.5703: real time    132.6035

 eigenvalue-minimisations  :     0
 total energy-change (2. order) :-0.2636329E-02  (-0.1050614E-02)
 number of electron      22.0000006 magnetization 
 augmentation part       10.7071529 magnetization 

 DIPCOR: dipole corrections for dipol
 direction  3 min pos     1,
 dipolmoment           0.000000      0.000000     -0.000017 electrons x Angstroem
 Tr[quadrupol]     -4099.509298

 energy correction for charged system         0.000000 eV
 dipol+quadrupol energy correction           -0.000000 eV
 added-field ion interaction          0.000021 eV  (added to PSCEN)


 Free energy of the ion-electron system (eV)
  ---------------------------------------------------
  alpha Z        PSCENC =         0.34435837
  Ewald energy   TEWEN  =       215.47733292
  -Hartree energ DENC   =     -2204.84388081
  -exchange      EXHF   =        43.09032429
  -V(xc)+E(xc)   XCENC  =       -20.35040405
  PAW double counting   =      2190.88321399    -2112.23728712
  entropy T*S    EENTRO =        -0.00000000
  eigenvalues    EBANDS =      -184.50619198
  atomic energy  EATOM  =      2069.56939783
  ---------------------------------------------------
  free energy    TOTEN  =        -2.57313657 eV

  energy without entropy =       -2.57313657  energy(sigma->0) =       -2.57313657
  exchange ACFDT corr.  =        -0.00000000  see jH, gK, PRB 81, 115126


--------------------------------------------------------------------------------------------------------




--------------------------------------- Iteration      1(  16)  ---------------------------------------


    POTLOK:  cpu time      0.4211: real time      0.4211
    SETDIJ:  cpu time      0.5931: real time      0.5931
    TRIAL :  cpu time     52.8912: real time     52.9007
    CORREC:  cpu time     60.5559: real time     60.5667
    CHARGE:  cpu time      0.8565: real time      0.8565
    --------------------------------------------
      LOOP:  cpu time    115.3392: real time    115.3599

 eigenvalue-minimisations  :     0
 total energy-change (2. order) :-0.1047875E-02  (-0.4132679E-03)
 number of electron      22.0000006 magnetization 
 augmentation part       10.7059992 magnetization 

 DIPCOR: dipole corrections for dipol
 direction  3 min pos     1,
 dipolmoment           0.000000      0.000000     -0.000007 electrons x Angstroem
 Tr[quadrupol]     -4099.516667

 energy correction for charged system         0.000000 eV
 dipol+quadrupol energy correction           -0.000000 eV
 added-field ion interaction          0.000008 eV  (added to PSCEN)


 Free energy of the ion-electron system (eV)
  ---------------------------------------------------
  alpha Z        PSCENC =         0.34432444
  Ewald energy   TEWEN  =       215.47733292
  -Hartree energ DENC   =     -2205.95111246
  -exchange      EXHF   =        43.11026152
  -V(xc)+E(xc)   XCENC  =       -20.32573995
  PAW double counting   =      2192.77542072    -2114.15070655
  entropy T*S    EENTRO =        -0.00000000
  eigenvalues    EBANDS =      -183.42336291
  atomic energy  EATOM  =      2069.56939783
  ---------------------------------------------------
  free energy    TOTEN  =        -2.57418445 eV

  energy without entropy =       -2.57418445  energy(sigma->0) =       -2.57418445
  exchange ACFDT corr.  =        -0.00000000  see jH, gK, PRB 81, 115126


--------------------------------------------------------------------------------------------------------




--------------------------------------- Iteration      1(  17)  ---------------------------------------


    POTLOK:  cpu time      0.4014: real time      0.4014
    SETDIJ:  cpu time      0.5999: real time      0.5999
    TRIAL :  cpu time     62.4415: real time     62.4538
    CORREC:  cpu time     63.7976: real time     63.8260
    CHARGE:  cpu time      0.8617: real time      0.8622
    --------------------------------------------
      LOOP:  cpu time    128.1104: real time    128.1656

 eigenvalue-minimisations  :     0
 total energy-change (2. order) :-0.4120552E-03  (-0.1126798E-03)
 number of electron      22.0000006 magnetization 
 augmentation part       10.7047166 magnetization 

 DIPCOR: dipole corrections for dipol
 direction  3 min pos     1,
 dipolmoment           0.000000      0.000000     -0.000004 electrons x Angstroem
 Tr[quadrupol]     -4099.518327

 energy correction for charged system         0.000000 eV
 dipol+quadrupol energy correction           -0.000000 eV
 added-field ion interaction          0.000005 eV  (added to PSCEN)


 Free energy of the ion-electron system (eV)
  ---------------------------------------------------
  alpha Z        PSCENC =         0.34431523
  Ewald energy   TEWEN  =       215.47733292
  -Hartree energ DENC   =     -2205.87578950
  -exchange      EXHF   =        43.10913700
  -V(xc)+E(xc)   XCENC  =       -20.32720084
  PAW double counting   =      2192.81806210    -2114.19841619
  entropy T*S    EENTRO =        -0.00000000
  eigenvalues    EBANDS =      -183.49143505
  atomic energy  EATOM  =      2069.56939783
  ---------------------------------------------------
  free energy    TOTEN  =        -2.57459650 eV

  energy without entropy =       -2.57459650  energy(sigma->0) =       -2.57459650
  exchange ACFDT corr.  =        -0.00000000  see jH, gK, PRB 81, 115126


--------------------------------------------------------------------------------------------------------




--------------------------------------- Iteration      1(  18)  ---------------------------------------


    POTLOK:  cpu time      0.4139: real time      0.4141
    SETDIJ:  cpu time      0.5851: real time      0.5851
    TRIAL :  cpu time     64.0252: real time     64.0618
    CORREC:  cpu time     64.7581: real time     64.7930
    CHARGE:  cpu time      0.8720: real time      0.8724
    --------------------------------------------
      LOOP:  cpu time    130.6641: real time    130.7487

 eigenvalue-minimisations  :     0
 total energy-change (2. order) :-0.1126385E-03  (-0.5337651E-04)
 number of electron      22.0000006 magnetization 
 augmentation part       10.7052798 magnetization 

 DIPCOR: dipole corrections for dipol
 direction  3 min pos     1,
 dipolmoment           0.000000      0.000000     -0.000001 electrons x Angstroem
 Tr[quadrupol]     -4099.519877

 energy correction for charged system         0.000000 eV
 dipol+quadrupol energy correction           -0.000000 eV
 added-field ion interaction          0.000001 eV  (added to PSCEN)


 Free energy of the ion-electron system (eV)
  ---------------------------------------------------
  alpha Z        PSCENC =         0.34431175
  Ewald energy   TEWEN  =       215.47733292
  -Hartree energ DENC   =     -2205.72587522
  -exchange      EXHF   =        43.10634943
  -V(xc)+E(xc)   XCENC  =       -20.33046070
  PAW double counting   =      2192.42771319    -2113.80984167
  entropy T*S    EENTRO =        -0.00000000
  eigenvalues    EBANDS =      -183.63363666
  atomic energy  EATOM  =      2069.56939783
  ---------------------------------------------------
  free energy    TOTEN  =        -2.57470914 eV

  energy without entropy =       -2.57470914  energy(sigma->0) =       -2.57470914
  exchange ACFDT corr.  =        -0.00000000  see jH, gK, PRB 81, 115126


--------------------------------------------------------------------------------------------------------




--------------------------------------- Iteration      1(  19)  ---------------------------------------


    POTLOK:  cpu time      0.4341: real time      0.4351
    SETDIJ:  cpu time      0.5721: real time      0.5723
    TRIAL :  cpu time     64.4857: real time     64.4957
    CORREC:  cpu time     64.0339: real time     64.2404
    CHARGE:  cpu time      0.8243: real time      0.9085
    --------------------------------------------
      LOOP:  cpu time    130.3840: real time    130.7333

 eigenvalue-minimisations  :     0
 total energy-change (2. order) :-0.5404391E-04  (-0.2690534E-04)
 number of electron      22.0000006 magnetization 
 augmentation part       10.7051386 magnetization 

 DIPCOR: dipole corrections for dipol
 direction  3 min pos     1,
 dipolmoment           0.000000      0.000000      0.000000 electrons x Angstroem
 Tr[quadrupol]     -4099.520401

 energy correction for charged system         0.000000 eV
 dipol+quadrupol energy correction           -0.000000 eV
 added-field ion interaction         -0.000000 eV  (added to PSCEN)


 Free energy of the ion-electron system (eV)
  ---------------------------------------------------
  alpha Z        PSCENC =         0.34430800
  Ewald energy   TEWEN  =       215.47733292
  -Hartree energ DENC   =     -2205.83510588
  -exchange      EXHF   =        43.10836634
  -V(xc)+E(xc)   XCENC  =       -20.32764551
  PAW double counting   =      2192.27189291    -2113.65760802
  entropy T*S    EENTRO =        -0.00000000
  eigenvalues    EBANDS =      -183.52570176
  atomic energy  EATOM  =      2069.56939783
  ---------------------------------------------------
  free energy    TOTEN  =        -2.57476318 eV

  energy without entropy =       -2.57476318  energy(sigma->0) =       -2.57476318
  exchange ACFDT corr.  =        -0.00000000  see jH, gK, PRB 81, 115126


--------------------------------------------------------------------------------------------------------




--------------------------------------- Iteration      1(  20)  ---------------------------------------


    POTLOK:  cpu time      0.3691: real time      0.5411
    SETDIJ:  cpu time      0.4319: real time      0.4547
    TRIAL :  cpu time     63.9397: real time     64.0385
    CORREC:  cpu time     63.6843: real time     63.8907
    CHARGE:  cpu time      0.8557: real time      0.8577
    --------------------------------------------
      LOOP:  cpu time    129.2883: real time    129.8554

 eigenvalue-minimisations  :     0
 total energy-change (2. order) :-0.2640600E-04  (-0.8201222E-05)
 number of electron      22.0000006 magnetization 
 augmentation part       10.7047791 magnetization 

 DIPCOR: dipole corrections for dipol
 direction  3 min pos     1,
 dipolmoment           0.000000      0.000000      0.000001 electrons x Angstroem
 Tr[quadrupol]     -4099.519854

 energy correction for charged system         0.000000 eV
 dipol+quadrupol energy correction           -0.000000 eV
 added-field ion interaction         -0.000001 eV  (added to PSCEN)


 Free energy of the ion-electron system (eV)
  ---------------------------------------------------
  alpha Z        PSCENC =         0.34430679
  Ewald energy   TEWEN  =       215.47733292
  -Hartree energ DENC   =     -2205.81727244
  -exchange      EXHF   =        43.10785919
  -V(xc)+E(xc)   XCENC  =       -20.32791085
  PAW double counting   =      2192.15217901    -2113.53876195
  entropy T*S    EENTRO =        -0.00000000
  eigenvalues    EBANDS =      -183.54192008
  atomic energy  EATOM  =      2069.56939783
  ---------------------------------------------------
  free energy    TOTEN  =        -2.57478959 eV

  energy without entropy =       -2.57478959  energy(sigma->0) =       -2.57478959
  exchange ACFDT corr.  =        -0.00000000  see jH, gK, PRB 81, 115126


--------------------------------------------------------------------------------------------------------




--------------------------------------- Iteration      1(  21)  ---------------------------------------


    POTLOK:  cpu time      0.4218: real time      0.4233
    SETDIJ:  cpu time      0.5793: real time      0.5801
    TRIAL :  cpu time     63.6965: real time     63.7985
    CORREC:  cpu time     63.8288: real time     63.9345
    CHARGE:  cpu time      0.8324: real time      0.8904
    --------------------------------------------
      LOOP:  cpu time    129.3625: real time    129.6765

 eigenvalue-minimisations  :     0
 total energy-change (2. order) :-0.7747886E-05  (-0.4732633E-05)
 number of electron      22.0000006 magnetization 
 augmentation part       10.7047864 magnetization 

 DIPCOR: dipole corrections for dipol
 direction  3 min pos     1,
 dipolmoment           0.000000      0.000000      0.000001 electrons x Angstroem
 Tr[quadrupol]     -4099.519795

 energy correction for charged system         0.000000 eV
 dipol+quadrupol energy correction           -0.000000 eV
 added-field ion interaction         -0.000001 eV  (added to PSCEN)


 Free energy of the ion-electron system (eV)
  ---------------------------------------------------
  alpha Z        PSCENC =         0.34430668
  Ewald energy   TEWEN  =       215.47733292
  -Hartree energ DENC   =     -2205.74836652
  -exchange      EXHF   =        43.10649657
  -V(xc)+E(xc)   XCENC  =       -20.32961067
  PAW double counting   =      2192.13063542    -2113.51658319
  entropy T*S    EENTRO =        -0.00000000
  eigenvalues    EBANDS =      -183.60840638
  atomic energy  EATOM  =      2069.56939783
  ---------------------------------------------------
  free energy    TOTEN  =        -2.57479734 eV

  energy without entropy =       -2.57479734  energy(sigma->0) =       -2.57479734
  exchange ACFDT corr.  =        -0.00000000  see jH, gK, PRB 81, 115126


--------------------------------------------------------------------------------------------------------




--------------------------------------- Iteration      1(  22)  ---------------------------------------


    POTLOK:  cpu time      0.4131: real time      0.4468
    SETDIJ:  cpu time      0.5356: real time      0.5469
    TRIAL :  cpu time     71.2861: real time     71.5923
    CORREC:  cpu time     77.5526: real time     77.7608
    CHARGE:  cpu time      0.8591: real time      0.9279
    --------------------------------------------
      LOOP:  cpu time    150.7038: real time    151.3536

 eigenvalue-minimisations  :     0
 total energy-change (2. order) :-0.4142260E-05  (-0.3777643E-05)
 number of electron      22.0000006 magnetization 
 augmentation part       10.7050955 magnetization 

 DIPCOR: dipole corrections for dipol
 direction  3 min pos     1,
 dipolmoment           0.000000      0.000000      0.000001 electrons x Angstroem
 Tr[quadrupol]     -4099.519902

 energy correction for charged system         0.000000 eV
 dipol+quadrupol energy correction           -0.000000 eV
 added-field ion interaction         -0.000001 eV  (added to PSCEN)


 Free energy of the ion-electron system (eV)
  ---------------------------------------------------
  alpha Z        PSCENC =         0.34430667
  Ewald energy   TEWEN  =       215.47733292
  -Hartree energ DENC   =     -2205.73066429
  -exchange      EXHF   =        43.10617254
  -V(xc)+E(xc)   XCENC  =       -20.33018042
  PAW double counting   =      2192.19924966    -2113.58503125
  entropy T*S    EENTRO =        -0.00000000
  eigenvalues    EBANDS =      -183.62538514
  atomic energy  EATOM  =      2069.56939783
  ---------------------------------------------------
  free energy    TOTEN  =        -2.57480148 eV

  energy without entropy =       -2.57480148  energy(sigma->0) =       -2.57480148
  exchange ACFDT corr.  =        -0.00000000  see jH, gK, PRB 81, 115126


--------------------------------------------------------------------------------------------------------




--------------------------------------- Iteration      1(  23)  ---------------------------------------


    POTLOK:  cpu time      0.3817: real time      0.5646
    SETDIJ:  cpu time      0.4280: real time      0.4350
    TRIAL :  cpu time     78.0666: real time     78.2117
    CORREC:  cpu time     79.5986: real time     79.7858
    CHARGE:  cpu time      0.8593: real time      0.9205
    --------------------------------------------
      LOOP:  cpu time    159.3429: real time    160.0553

 eigenvalue-minimisations  :     0
 total energy-change (2. order) :-0.2573384E-05  (-0.1191859E-05)
 number of electron      22.0000006 magnetization 
 augmentation part       10.7049545 magnetization 

 DIPCOR: dipole corrections for dipol
 direction  3 min pos     1,
 dipolmoment           0.000000      0.000000      0.000001 electrons x Angstroem
 Tr[quadrupol]     -4099.519696

 energy correction for charged system         0.000000 eV
 dipol+quadrupol energy correction           -0.000000 eV
 added-field ion interaction         -0.000001 eV  (added to PSCEN)


 Free energy of the ion-electron system (eV)
  ---------------------------------------------------
  alpha Z        PSCENC =         0.34430676
  Ewald energy   TEWEN  =       215.47733292
  -Hartree energ DENC   =     -2205.75836960
  -exchange      EXHF   =        43.10671191
  -V(xc)+E(xc)   XCENC  =       -20.32938715
  PAW double counting   =      2192.32933804    -2113.71556930
  entropy T*S    EENTRO =        -0.00000000
  eigenvalues    EBANDS =      -183.59856546
  atomic energy  EATOM  =      2069.56939783
  ---------------------------------------------------
  free energy    TOTEN  =        -2.57480405 eV

  energy without entropy =       -2.57480405  energy(sigma->0) =       -2.57480405
  exchange ACFDT corr.  =        -0.00000000  see jH, gK, PRB 81, 115126


--------------------------------------------------------------------------------------------------------




--------------------------------------- Iteration      1(  24)  ---------------------------------------


    POTLOK:  cpu time      0.4078: real time      0.4078
    SETDIJ:  cpu time      0.5614: real time      0.6123
    TRIAL :  cpu time     80.3357: real time     80.6202
    CORREC:  cpu time     81.7901: real time     82.0426
    CHARGE:  cpu time      0.8282: real time      0.8617
    --------------------------------------------
      LOOP:  cpu time    163.9401: real time    164.5825

 eigenvalue-minimisations  :     0
 total energy-change (2. order) :-0.1334174E-05  (-0.3203913E-06)
 number of electron      22.0000006 magnetization 
 augmentation part       10.7049032 magnetization 

 DIPCOR: dipole corrections for dipol
 direction  3 min pos     1,
 dipolmoment           0.000000      0.000000      0.000001 electrons x Angstroem
 Tr[quadrupol]     -4099.519734

 energy correction for charged system         0.000000 eV
 dipol+quadrupol energy correction           -0.000000 eV
 added-field ion interaction         -0.000001 eV  (added to PSCEN)


 Free energy of the ion-electron system (eV)
  ---------------------------------------------------
  alpha Z        PSCENC =         0.34430669
  Ewald energy   TEWEN  =       215.47733292
  -Hartree energ DENC   =     -2205.74077269
  -exchange      EXHF   =        43.10635820
  -V(xc)+E(xc)   XCENC  =       -20.32987249
  PAW double counting   =      2192.29205657    -2113.67810995
  entropy T*S    EENTRO =        -0.00000000
  eigenvalues    EBANDS =      -183.61550247
  atomic energy  EATOM  =      2069.56939783
  ---------------------------------------------------
  free energy    TOTEN  =        -2.57480539 eV

  energy without entropy =       -2.57480539  energy(sigma->0) =       -2.57480539
  exchange ACFDT corr.  =        -0.00000000  see jH, gK, PRB 81, 115126


--------------------------------------------------------------------------------------------------------




--------------------------------------- Iteration      1(  25)  ---------------------------------------


    POTLOK:  cpu time      0.4143: real time      0.4144
    SETDIJ:  cpu time      0.5941: real time      0.5948
    TRIAL :  cpu time     82.0812: real time     82.3439
    CORREC:  cpu time     87.0824: real time     87.5331
    EDDIAG:  cpu time     61.7916: real time     62.1636
    CHARGE:  cpu time      0.7816: real time      0.8827
    --------------------------------------------
      LOOP:  cpu time    232.7535: real time    233.9866

 eigenvalue-minimisations  :     0
 total energy-change (2. order) : 0.5421980E-06  (-0.2673390E-06)
 number of electron      22.0000006 magnetization 
 augmentation part       10.7049024 magnetization 

 DIPCOR: dipole corrections for dipol
 direction  3 min pos     1,
 dipolmoment           0.000000      0.000000      0.000001 electrons x Angstroem
 Tr[quadrupol]     -4099.519870

 energy correction for charged system         0.000000 eV
 dipol+quadrupol energy correction           -0.000000 eV
 added-field ion interaction         -0.000001 eV  (added to PSCEN)


 Free energy of the ion-electron system (eV)
  ---------------------------------------------------
  alpha Z        PSCENC =         0.34430667
  Ewald energy   TEWEN  =       215.47733292
  -Hartree energ DENC   =     -2205.73527347
  -exchange      EXHF   =        43.10628514
  -V(xc)+E(xc)   XCENC  =       -20.33002807
  PAW double counting   =      2192.27387563    -2113.65987661
  entropy T*S    EENTRO =        -0.00000000
  eigenvalues    EBANDS =      -183.62078555
  atomic energy  EATOM  =      2069.56939783
  ---------------------------------------------------
  free energy    TOTEN  =        -2.57480484 eV

  energy without entropy =       -2.57480484  energy(sigma->0) =       -2.57480484
  exchange ACFDT corr.  =        -0.00000000  see jH, gK, PRB 81, 115126


--------------------------------------------------------------------------------------------------------


  average scaling for gradient   1.2954


 average (electrostatic) potential at core
  the test charge radii are     1.1249
  (the norm of the test charge is              1.0000)
       1 -76.7686       2 -76.7686



 E-fermi :  -5.2920     XC(G=0):  -0.1174     alpha+bet : -0.0465

 Fermi energy:        -5.2920445390

 k-point     1 :       0.0000    0.0000    0.0000
  band No.  band energies     occupation 
      1      -9.5851      2.00000
      2      -9.1237      2.00000
      3      -9.1236      2.00000
      4      -8.6287      2.00000
      5      -8.6287      2.00000
      6      -8.4419      2.00000
      7      -8.4419      2.00000
      8      -8.1574      2.00000
      9      -8.1574      2.00000
     10      -7.9725      2.00000
     11      -5.5477      2.00000
     12      -2.5773      0.00000
     13      -0.6644      0.00000
     14      -0.6640      0.00000
     15      -0.2209      0.00000
     16       0.0894      0.00000
     17       0.3335      0.00000
     18       0.3496      0.00000
     19       0.3554      0.00000
     20       0.3672      0.00000
     21       0.4014      0.00000
     22       0.4412      0.00000
     23       0.5394      0.00000
     24       0.6102      0.00000
     25       0.6564      0.00000
     26       0.6615      0.00000
     27       0.6710      0.00000
     28       0.6769      0.00000
     29       0.6901      0.00000
     30       0.7005      0.00000
     31       0.7107      0.00000
     32       0.7467      0.00000
     33       0.7675      0.00000
     34       0.8188      0.00000
     35       0.8569      0.00000
     36       0.9160      0.00000
     37       0.9717      0.00000
     38       0.9943      0.00000
     39       1.0065      0.00000
     40       1.0236      0.00000
     41       1.0557      0.00000
     42       1.0601      0.00000
     43       1.0891      0.00000
     44       1.1986      0.00000
     45       1.2772      0.00000
     46       1.2933      0.00000
     47       1.3743      0.00000
     48       1.3759      0.00000
     49       1.3941      0.00000
     50       1.4590      0.00000
     51       1.5183      0.00000
     52       1.5299      0.00000
     53       1.5435      0.00000
     54       1.5778      0.00000
     55       1.5933      0.00000
     56       1.5985      0.00000
     57       1.6223      0.00000
     58       1.6326      0.00000
     59       1.6399      0.00000
     60       1.6542      0.00000
     61       1.6543      0.00000
     62       1.6547      0.00000
     63       1.6850      0.00000
     64       1.6986      0.00000
     65       1.7000      0.00000
     66       1.7061      0.00000
     67       1.7071      0.00000
     68       1.7397      0.00000
     69       1.7473      0.00000
     70       1.7546      0.00000
     71       1.7615      0.00000
     72       1.7935      0.00000
     73       1.7943      0.00000
     74       1.8382      0.00000
     75       1.8751      0.00000
     76       1.8900      0.00000
     77       1.9036      0.00000
     78       1.9129      0.00000
     79       1.9344      0.00000
     80       1.9421      0.00000
     81       1.9636      0.00000
     82       1.9690      0.00000
     83       1.9729      0.00000
     84       1.9859      0.00000
     85       1.9900      0.00000
     86       1.9903      0.00000
     87       1.9922      0.00000
     88       2.0030      0.00000
     89       2.0060      0.00000
     90       2.0166      0.00000
     91       2.0188      0.00000
     92       2.0747      0.00000
     93       2.1380      0.00000
     94       2.1712      0.00000
     95       2.2395      0.00000
     96       2.2455      0.00000
     97       2.2514      0.00000
     98       2.2882      0.00000
     99       2.5005      0.00000
    100       2.5242      0.00000
    101       2.5303      0.00000
    102       2.5724      0.00000
    103       2.5861      0.00000
    104       2.6178      0.00000
    105       2.6446      0.00000
    106       2.6468      0.00000
    107       2.6797      0.00000
    108       2.7195      0.00000
    109       2.7316      0.00000
    110       2.7355      0.00000
    111       2.7601      0.00000
    112       2.7804      0.00000
    113       2.8000      0.00000
    114       2.8133      0.00000
    115       2.8490      0.00000
    116       2.8683      0.00000
    117       2.8853      0.00000
    118       2.8854      0.00000
    119       2.8926      0.00000
    120       2.9119      0.00000
    121       2.9242      0.00000
    122       2.9274      0.00000
    123       2.9346      0.00000
    124       2.9444      0.00000
    125       2.9446      0.00000
    126       2.9570      0.00000
    127       2.9626      0.00000
    128       2.9733      0.00000
    129       2.9753      0.00000
    130       2.9883      0.00000
    131       2.9941      0.00000
    132       3.0037      0.00000
    133       3.0078      0.00000
    134       3.0110      0.00000
    135       3.0122      0.00000
    136       3.0525      0.00000
    137       3.0564      0.00000
    138       3.1027      0.00000
    139       3.1076      0.00000
    140       3.1110      0.00000
    141       3.1210      0.00000
    142       3.1255      0.00000
    143       3.1379      0.00000
    144       3.1430      0.00000
    145       3.1638      0.00000
    146       3.2344      0.00000
    147       3.2509      0.00000
    148       3.2807      0.00000
    149       3.2841      0.00000
    150       3.3013      0.00000
    151       3.3112      0.00000
    152       3.3211      0.00000
    153       3.3371      0.00000
    154       3.3472      0.00000
    155       3.3595      0.00000
    156       3.3689      0.00000
    157       3.3712      0.00000
    158       3.3729      0.00000
    159       3.3790      0.00000
    160       3.3795      0.00000
    161       3.3798      0.00000
    162       3.3971      0.00000
    163       3.4063      0.00000
    164       3.4231      0.00000
    165       3.4338      0.00000
    166       3.4613      0.00000
    167       3.5081      0.00000
    168       3.5285      0.00000
    169       3.5298      0.00000
    170       3.5495      0.00000
    171       3.5768      0.00000
    172       3.5858      0.00000
    173       3.6045      0.00000
    174       3.6248      0.00000
    175       3.6353      0.00000
    176       3.6407      0.00000
    177       3.6420      0.00000
    178       3.6516      0.00000
    179       3.6725      0.00000
    180       3.6808      0.00000
    181       3.6866      0.00000
    182       3.7576      0.00000
    183       3.7611      0.00000
    184       3.7624      0.00000
    185       3.7823      0.00000
    186       3.7834      0.00000
    187       3.8153      0.00000
    188       3.8508      0.00000
    189       3.8516      0.00000
    190       3.9429      0.00000
    191       3.9540      0.00000
    192       3.9575      0.00000
    193       3.9604      0.00000
    194       3.9738      0.00000
    195       3.9838      0.00000
    196       4.0092      0.00000
    197       4.0125      0.00000
    198       4.0425      0.00000
    199       4.0558      0.00000
    200       4.1226      0.00000
    201       4.1457      0.00000
    202       4.1722      0.00000
    203       4.1781      0.00000
    204       4.2007      0.00000
    205       4.2010      0.00000
    206       4.2078      0.00000
    207       4.2137      0.00000
    208       4.2167      0.00000
    209       4.2403      0.00000
    210       4.2712      0.00000
    211       4.3142      0.00000
    212       4.3360      0.00000
    213       4.3374      0.00000
    214       4.3382      0.00000
    215       4.3470      0.00000
    216       4.3506      0.00000
    217       4.3532      0.00000
    218       4.3556      0.00000
    219       4.3606      0.00000
    220       4.3683      0.00000
    221       4.3743      0.00000
    222       4.4219      0.00000
    223       4.4251      0.00000
    224       4.4408      0.00000
    225       4.4448      0.00000
    226       4.4632      0.00000
    227       4.4633      0.00000
    228       4.4672      0.00000
    229       4.4703      0.00000
    230       4.4711      0.00000
    231       4.4932      0.00000
    232       4.4962      0.00000
    233       4.5036      0.00000
    234       4.5177      0.00000
    235       4.5223      0.00000
    236       4.5402      0.00000
    237       4.5434      0.00000
    238       4.5505      0.00000
    239       4.5537      0.00000
    240       4.5555      0.00000
    241       4.5566      0.00000
    242       4.5671      0.00000
    243       4.5714      0.00000
    244       4.5809      0.00000
    245       4.5900      0.00000
    246       4.6174      0.00000
    247       4.6247      0.00000
    248       4.6299      0.00000
    249       4.6333      0.00000
    250       4.6628      0.00000
    251       4.6664      0.00000
    252       4.6706      0.00000
    253       4.6748      0.00000
    254       4.6766      0.00000
    255       4.6776      0.00000
    256       4.6781      0.00000
    257       4.6816      0.00000
    258       4.6870      0.00000
    259       4.7013      0.00000
    260       4.7014      0.00000
    261       4.7106      0.00000
    262       4.7108      0.00000
    263       4.7585      0.00000
    264       4.8803      0.00000
    265       4.8834      0.00000
    266       4.9963      0.00000
    267       5.0030      0.00000
    268       5.0241      0.00000
    269       5.0661      0.00000
    270       5.0739      0.00000
    271       5.1538      0.00000
    272       5.1706      0.00000
    273       5.2258      0.00000
    274       5.2300      0.00000
    275       5.2672      0.00000
    276       5.2740      0.00000
    277       5.2754      0.00000
    278       5.2760      0.00000
    279       5.2859      0.00000
    280       5.2949      0.00000
    281       5.3060      0.00000
    282       5.3292      0.00000
    283       5.3497      0.00000
    284       5.4325      0.00000
    285       5.4371      0.00000
    286       5.4500      0.00000
    287       5.4811      0.00000
    288       5.4836      0.00000
    289       5.5051      0.00000
    290       5.5084      0.00000
    291       5.5110      0.00000
    292       5.5167      0.00000
    293       5.5187      0.00000
    294       5.5187      0.00000
    295       5.5298      0.00000
    296       5.5307      0.00000
    297       5.5465      0.00000
    298       5.5484      0.00000
    299       5.5485      0.00000
    300       5.5566      0.00000
    301       5.5659      0.00000
    302       5.5719      0.00000
    303       5.5770      0.00000
    304       5.5776      0.00000
    305       5.5812      0.00000
    306       5.5956      0.00000
    307       5.5966      0.00000
    308       5.6051      0.00000
    309       5.6075      0.00000
    310       5.6210      0.00000
    311       5.6226      0.00000
    312       5.6528      0.00000
    313       5.6594      0.00000
    314       5.6616      0.00000
    315       5.6616      0.00000
    316       5.6672      0.00000
    317       5.6715      0.00000
    318       5.6822      0.00000
    319       5.6856      0.00000
    320       5.7021      0.00000
    321       5.7130      0.00000
    322       5.7219      0.00000
    323       5.7242      0.00000
    324       5.7252      0.00000
    325       5.7332      0.00000
    326       5.7356      0.00000
    327       5.7357      0.00000
    328       5.7384      0.00000
    329       5.7398      0.00000
    330       5.7412      0.00000
    331       5.7472      0.00000
    332       5.8183      0.00000
    333       5.8674      0.00000
    334       5.8785      0.00000
    335       5.9163      0.00000
    336       5.9318      0.00000
    337       5.9352      0.00000
    338       5.9437      0.00000
    339       5.9589      0.00000
    340       5.9677      0.00000
    341       5.9689      0.00000
    342       5.9839      0.00000
    343       5.9843      0.00000
    344       5.9913      0.00000
    345       6.0081      0.00000
    346       6.0103      0.00000
    347       6.0134      0.00000
    348       6.0208      0.00000
    349       6.0278      0.00000
    350       6.0295      0.00000
    351       6.0318      0.00000
    352       6.0319      0.00000
    353       6.0326      0.00000
    354       6.0364      0.00000
    355       6.0375      0.00000
    356       6.0450      0.00000
    357       6.0551      0.00000
    358       6.0718      0.00000
    359       6.0730      0.00000
    360       6.0888      0.00000
    361       6.0901      0.00000
    362       6.1052      0.00000
    363       6.1098      0.00000
    364       6.1182      0.00000
    365       6.1203      0.00000
    366       6.1279      0.00000
    367       6.1285      0.00000
    368       6.1824      0.00000
    369       6.2015      0.00000
    370       6.2051      0.00000
    371       6.2067      0.00000
    372       6.2227      0.00000
    373       6.2387      0.00000
    374       6.2439      0.00000
    375       6.2494      0.00000
    376       6.2501      0.00000
    377       6.2552      0.00000
    378       6.2578      0.00000
    379       6.2876      0.00000
    380       6.3292      0.00000
    381       6.3509      0.00000
    382       6.4620      0.00000
    383       6.4945      0.00000
    384       6.5529      0.00000


--------------------------------------------------------------------------------------------------------


 soft charge-density along one line, spin component           1
         0         1         2         3         4         5         6         7         8         9
 total charge-density along one line

 pseudopotential strength for first ion, spin component:           1
 -8.890   0.000  -0.021  -0.000   0.000  -8.944   0.000  -0.020
  0.000  -8.868   0.000   0.015  -0.000   0.000  -8.922   0.000
 -0.021   0.000  -8.866  -0.000   0.000  -0.020   0.000  -8.920
 -0.000   0.015  -0.000  -8.868  -0.000  -0.000   0.014  -0.000
  0.000  -0.000   0.000  -0.000  -8.883   0.000  -0.000   0.000
 -8.944   0.000  -0.020  -0.000   0.000  -8.970   0.000  -0.020
  0.000  -8.922   0.000   0.014  -0.000   0.000  -8.949   0.000
 -0.020   0.000  -8.920  -0.000   0.000  -0.020   0.000  -8.947
 -0.000   0.014  -0.000  -8.922  -0.000  -0.000   0.013  -0.000
  0.000  -0.000   0.000  -0.000  -8.936   0.000  -0.000   0.000
 -0.012  -0.000  -0.007   0.000   0.000  -0.011  -0.000  -0.007
 -0.019  -0.000  -0.011   0.000   0.000  -0.019  -0.000  -0.011
  0.029  -0.000   0.017  -0.000   0.030   0.028  -0.000   0.016
 -0.000  -0.030   0.000   0.030  -0.000  -0.000  -0.029   0.000
 -0.029  -0.000  -0.017  -0.000   0.030  -0.028  -0.000  -0.016
  0.035  -0.000   0.020  -0.000   0.036   0.034  -0.000   0.020
 -0.000  -0.036   0.000   0.036  -0.000  -0.000  -0.035   0.000
 -0.035  -0.000  -0.020  -0.000   0.036  -0.034  -0.000  -0.020
 total augmentation occupancy for first ion, spin component:           1
  2.356  -0.000   0.190   0.000  -0.000  -0.483   0.000  -0.270   0.000   0.000   1.034  -0.257   0.086   0.000  -0.086   0.007
  0.000   2.072   0.000  -0.044  -0.000  -0.000  -0.093   0.000   0.078   0.000   0.000   0.000  -0.000  -0.006   0.000   0.000
  0.190   0.000   2.138   0.000  -0.000  -0.270   0.000  -0.172  -0.000   0.000   0.597  -0.148   0.050  -0.000  -0.050   0.004
  0.000  -0.044   0.000   2.072  -0.000  -0.000   0.078   0.000  -0.093   0.000   0.000  -0.000   0.000   0.006   0.000   0.000
 -0.000  -0.000  -0.000  -0.000   2.115   0.000  -0.000   0.000  -0.000  -0.171  -0.000   0.000   0.006   0.000   0.006   0.017
 -0.483  -0.000  -0.270   0.000   0.000   0.602   0.000   0.343  -0.000  -0.000  -0.896   0.222  -0.115   0.000   0.115   0.011
  0.000  -0.093   0.000   0.078  -0.000   0.000   0.117   0.000  -0.109   0.000  -0.000  -0.000  -0.000   0.024   0.000  -0.000
 -0.270  -0.000  -0.172  -0.000   0.000   0.343   0.000   0.206  -0.000  -0.000  -0.518   0.128  -0.067   0.000   0.067   0.006
  0.000   0.078   0.000  -0.093  -0.000  -0.000  -0.109  -0.000   0.117   0.000  -0.000   0.000   0.000  -0.024  -0.000   0.000
  0.000   0.000   0.000   0.000  -0.171  -0.000   0.000  -0.000   0.000   0.226   0.000  -0.000  -0.024   0.000  -0.024   0.002
  1.034   0.000   0.597   0.000  -0.000  -0.896  -0.000  -0.518  -0.000   0.000   2.726  -0.610   0.218   0.000  -0.218  -0.015
 -0.257   0.000  -0.148  -0.000   0.000   0.222  -0.000   0.128   0.000  -0.000  -0.610   0.138  -0.052  -0.000   0.052   0.004
  0.086  -0.000   0.050   0.000   0.006  -0.115   0.000  -0.067  -0.000  -0.024   0.218  -0.052   0.026   0.000  -0.021  -0.003
  0.000  -0.006  -0.000   0.006   0.000   0.000   0.024   0.000  -0.024   0.000   0.000  -0.000   0.000   0.005   0.000  -0.000
 -0.086   0.000  -0.050   0.000   0.006   0.115  -0.000   0.067  -0.000  -0.024  -0.218   0.052  -0.021   0.000   0.026   0.002
  0.007   0.000   0.004   0.000   0.017   0.011  -0.000   0.006  -0.000   0.002  -0.015   0.004  -0.003  -0.000   0.002   0.001
  0.000  -0.017   0.000   0.017   0.000  -0.000  -0.002   0.000   0.002   0.000  -0.000  -0.000   0.000  -0.001   0.000   0.000
 -0.007   0.000  -0.004  -0.000   0.017  -0.011  -0.000  -0.006   0.000   0.002   0.015  -0.004   0.002   0.000  -0.003  -0.000


------------------------ aborting loop because EDIFF is reached ----------------------------------------


    FORLOC:  cpu time      0.0047: real time      0.0047
    FORHF :  cpu time      1.5219: real time      1.5626
    FORNL :  cpu time      0.1308: real time      0.1350
    FORCOR:  cpu time      0.9087: real time      0.9160
    OFIELD:  cpu time      0.0003: real time      0.0003

 VOLUME and BASIS-vectors are now :
 -----------------------------------------------------------------------------
  energy-cutoff  :      520.00
  volume of cell :     9881.61
      direct lattice vectors                 reciprocal lattice vectors
    21.138852197  0.000000000  0.000000000     0.047306258  0.000000000  0.000000000
     0.000000000 21.138852197  0.000000000     0.000000000  0.047306258  0.000000000
     0.000000000  0.000000000 22.113885220     0.000000000  0.000000000  0.045220457

  length of vectors
    21.138852197 21.138852197 22.113885220     0.047306258  0.047306258  0.045220457


 FORCES acting on ions:
    Electron-Ion                     Ewald-Force                    Non-Local-Force
 -----------------------------------------------------------------------------------------------
   -.188E+03 0.188E+03 0.338E-04   0.183E+03 -.183E+03 -.276E-16   0.516E+01 -.516E+01 -.151E-19
   0.188E+03 -.188E+03 0.338E-04   -.183E+03 0.183E+03 -.132E-16   -.516E+01 0.516E+01 0.213E-19
 -----------------------------------------------------------------------------------------------
   0.106E-06 0.877E-06 0.657E-04   0.000E+00 0.000E+00 -.408E-16   0.000E+00 0.000E+00 0.623E-20


 POSITION                                       TOTAL-FORCE (eV/Angst)
 -----------------------------------------------------------------------------------
     11.48437      9.65448     13.82858         0.018442     -0.018442     -0.000000
      9.65448     11.48437     13.82858        -0.018442      0.018442      0.000000
 -----------------------------------------------------------------------------------
    total drift:                                0.000000      0.000001      0.000066


--------------------------------------------------------------------------------------------------------



  FREE ENERGIE OF THE ION-ELECTRON SYSTEM (eV)
  ---------------------------------------------------
  free  energy   TOTEN  =        -2.57480484 eV

  energy  without entropy=       -2.57480484  energy(sigma->0) =       -2.57480484



--------------------------------------------------------------------------------------------------------


    POTLOK:  cpu time      0.9702: real time      0.9772


--------------------------------------------------------------------------------------------------------


     LOOP+:  cpu time   2885.2087: real time   2890.5186
    4ORBIT:  cpu time      0.0000: real time      0.0000

 total amount of memory used by VASP MPI-rank0  1211236. kBytes
=======================================================================

   base      :      30000. kBytes
   nonlr-proj:       1202. kBytes
   fftplans  :      61841. kBytes
   grid      :      48291. kBytes
   one-center:         15. kBytes
   HF        :         64. kBytes
   wavefun   :       3225. kBytes
   fock_wrk  :    1066598. kBytes

  
  
 General timing and accounting informations for this job:
 ========================================================
  
                  Total CPU time used (sec):     2999.732
                            User time (sec):     2932.735
                          System time (sec):       66.997
                         Elapsed time (sec):     3057.267
  
                   Maximum memory used (kb):     2645828.
                   Average memory used (kb):          N/A
  
                          Minor page faults:     16915499
                          Major page faults:          108
                 Voluntary context switches:        49847
