 **********************************************************************
                          MRCC program system
 **********************************************************************
 
                              Written by
     Mihaly Kallay, Peter R. Nagy, David Mester, Laszlo Gyevi-Nagy,
        Jozsef Csoka, P. Bernat Szabo, Zoltan Rolik, Gyula Samu,
     Jozsef Csontos, Bence Hegely, Adam Ganyecz, Istvan Ladjanszki,
       Lorant Szegedy, Bence Ladoczki, Klara Petrov, Mate Farkas,
                    Pal D. Mezei, and Reka A. Horvath
 
        Department of Physical Chemistry and Materials Science
            Budapest University of Technology and Economics
                  Budapest P.O.Box 91, H-1521 Hungary
 
                              www.mrcc.hu
 
                      Release date: March 18, 2022

 ************************ 2023-02-26 18:53:19 *************************
 Executing minp...

 Reading input from MINP...
 
 Input file:
 
calc=LNO-CCSD(T)
verbosity=3
mem=220GB
symm=off
unit=angs
scfiguess=mo
scfalg=locfit1
lcorthr=normal
bpedo=0.99999
usedisk=0
ccmaxit=400
ccsdalg=dfdirect
ccsdthreads=4
ccsdmkl=thr
ptthreads=4
ECP=MCDHF-ECP-10
basis=bse_ACVTZ
basis_sm=def2-SVP
dfbasis_scf=def2-QZVPP-RI-JK
dfbasis_cor=bse_ACVTZ_mp2fit
core=0
unit=angs
geom=xyz
4
Cu4_3
Cu    -3.41130169     0.00000000     0.00000000
Cu    -1.17050574     0.00000000     0.00000000
Cu     1.17050574     0.00000000     0.00000000
Cu     3.41130169     0.00000000     0.00000000

ghost=serialno


 
 
 Checking keyword combinations...
 
 Keywords:
 
 active=none
 agrid=ld0006-ld0590
 agrid_pssp=ld0006-ld0194
 agrid_pssp_sm=ld0006-ld0074
 basis=bse_acvtz
 basis_sm=def2-svp
 basopt=off
 bfbasis=none
 bfgsmem=10
 bfgstol=1.0d-3
 bpcompo=0.985
 bpcompv=0.98
 bpdfo=0.985
 bpocc=0.99999
 bppdo=0.999d0
 bppdv=0.98
 bpedo=0.99999
 bpedv=0.995d0
 calc=ccsd(t)
 ccmaxit=400
 ccprog=ccsd
 ccsdalg=dfdirect
 ccsdmkl=thr
 ccsdrest=off
 ccsdthreads=4
 cctol=5
 charge=0
 cialg=direct
 ciguess=off
 cmpgrp=auto
 comprest=off
 core=corr
 corembed=off
 csapprox=off
 cvs=off
 dboc=off
 delocsomofact=
 dendec=cholesky
 dens=0
 dfalg=lineq
 dfbasis_cab=none
 dfbasis_cor=bse_acvtz_mp2fit
 dfbasis_scf=def2-qzvpp-ri-jk
 dfbasis_scf_sm=def2-qzvpp-ri-jk
 dfintran=drpa
 dft=off
 dhexc=adc(2)
 diag=david
 docc=
 domrad=10.d0
 drpaalg=auto
 dual=off
 dual_df=off
 ecp=mcdhf-ecp-10
 edisp=off
 edisp_embed=off
 embed=off
 etemp=300
 epert=none
 eps=
 espcharge=off
 excrad=1.0
 excrad_fin=0.100000000D-02
 fitting=coulomb
 fmm=off
 fmmord=8
 freq=off
 gamma=1.d0
 gauss=spher
 geom=xyz
 gopt=off
 ghost=serialno
 gtol=7
 grdens=off
 gridbatch_cos=2000
 grtol=10
 guido_ct=off
 hamilton=dc
 iface=none
 intalg=auto
 itol=10
 laptol=1.d-2
 lccoporder=lccfirst
 lcorthr=normal
 lccrest=off
 lmp2dens=on
 lnoepso=1e-5
 lnoepsv=1e-6
 boysalg=jacobi
 localcc=2021
 localcorrsymm=off
 locintrf=direct
 mact=
 maxact=off
 maxdim=100
 maxex=0
 maxmicroit=100
 mcscfiguess=hf
 mem=220gb
 mmprog=
 molden=on
 mpitasks=1
 mulmet=3
 mult=
 nacto=0
 nactv=0
 naf_amp=1.d-2
 naf_cor=1e-2
 naf_scf=off
 nafalg=albe
 naftyp=jpq
 nchol=auto
 ndeps=1e-3
 nstate=1
 nsing=0
 nto=off
 ntrip=0
 occ=
 occri=off
 oniom=off
 oniom_eechg=off
 oniom_pcm=off
 oniom_qcorr=off
 optalg=
 optmaxit=50
 optetol=1e-6
 optex=0
 optgtol=1e-4
 optstol=1e-3
 orblocc=boys
 orbloce=off
 orbloco=boys
 orblocv=pao
 orblocguess=cholesky
 osveps=-1.d0
 ovirt=off
 ovltol=1e-7
 ovosnorb=80.0
 pcm=off
 popul=off
 pressure=100000
 pssp=off
 ptfreq=0.0
 ptthreads=4
 qro=off
 qscf=off
 qmmm=off
 redcost_exc=off
 redcost_tddft=0.985d0
 refdet=none
 rest=0
 rgrid=log3
 rism=off
 rohfcore=standard
 rohftype=semicanonical
 scfalg=locfit1
 scf_conv=difficult
 scfdamp=0.0d0
 scfdamp_mode=off
 scfdamp_end=50
 scfdamp_dampstep=0.d0
 scfdamp_dtol=0.0d0
 scfdamp_maxfact=0.0d0
 scfdamp_minfact=0.0d0
 scfdiis=on
 scfdiis_dtol=0.0d0
 scfdiis_end=50
 scfdiis_start=2
 scfdiis_step=1
 scfdiis_watch=off
 scfdiis_wrange=10
 scfdiis_wlimit=5
 scfdiis_delmax=2
 scfdtol=7
 scfext=10
 scfguessdens=
 scfiguess=mo
 scfloc=pm
 scflshift=0.20
 scflshift_end=8
 scflshift_dtol=0.0
 scflshift_gaptol=0.20
 scfmaxit=50
 scftype=
 scftol=6
 scspe=1.d0
 scsph=1.d0
 scsps=1.2d0
 scsps_t=1.2d0
 scspt=0.33333333333333
 scspt_t=0.33333333333333
 scspv=1.d0
 spairtol=-1.d0
 sqmprog=
 subminp=top
 symm=0
 talg=lapl
 temp=298.15
 test=off
 theodore=off
 tlmo=0.999
 tpao=0.94
 tprint=off
 uncontract=off
 unit=angs
 usedisk=0
 verbosity=3
 wpairtol=1.d-5

 ************************ 2023-02-26 18:53:19 *************************
 Executing integ...

 Allocation of 220.0 Gbytes of memory...
 
 
 Number of atoms:                  4
 Charge:                           0
 Number of electrons:             76
 Number of core electrons:        32
 Spin multiplicity:                1
 
                 Cartesian coordinates [bohr]      Atomic mass [AMU]  Z
   1  Cu   -6.44642593    0.00000000    0.00000000    62.929599      29
   2  Cu   -2.21193528    0.00000000    0.00000000    62.929599      29
   3  Cu    2.21193528    0.00000000    0.00000000    62.929599      29
   4  Cu    6.44642593    0.00000000    0.00000000    62.929599      29
 
 This molecule is linear.
 
 Point group: Dxh 
 Computational point group: C1  
 
 Cartesian coordinates in standard orientation [bohr]
   1  Cu    0.00000000    0.00000000   -6.44642593
   2  Cu    0.00000000    0.00000000   -2.21193528
   3  Cu    0.00000000    0.00000000    2.21193528
   4  Cu    0.00000000    0.00000000    6.44642593
 
 Nuclear repulsion energy [au]:        363.494933704908
 
 
 Basis set information:
 
 Maximum angular momentum: i
 Maximum number of contracted Gaussians:   16
 Maximum number of primitive Gaussians:    19
 Spherical harmonic GTOs are used.
 
 
 Conventional basis set:
 
   1  Cu bse_acvtz [ 13s 12p 11d 4f 3g | 8s 8p 7d 4f 3g ]
   2  Cu bse_acvtz [ 13s 12p 11d 4f 3g | 8s 8p 7d 4f 3g ]
   3  Cu bse_acvtz [ 13s 12p 11d 4f 3g | 8s 8p 7d 4f 3g ]
   4  Cu bse_acvtz [ 13s 12p 11d 4f 3g | 8s 8p 7d 4f 3g ]
 
 Basis functions:
            1             2             3             4             5             6             7             8             9            10
    0    1Cu1s         1Cu2s         1Cu3s         1Cu4s         1Cu5s         1Cu6s         1Cu7s         1Cu8s         1Cu1pz        1Cu1py    
    1    1Cu1px        1Cu2pz        1Cu2py        1Cu2px        1Cu3pz        1Cu3py        1Cu3px        1Cu4pz        1Cu4py        1Cu4px    
    2    1Cu5pz        1Cu5py        1Cu5px        1Cu6pz        1Cu6py        1Cu6px        1Cu7pz        1Cu7py        1Cu7px        1Cu8pz    
    3    1Cu8py        1Cu8px        1Cu1d-2       1Cu1d-1       1Cu1d0        1Cu1d+1       1Cu1d+2       1Cu2d-2       1Cu2d-1       1Cu2d0    
    4    1Cu2d+1       1Cu2d+2       1Cu3d-2       1Cu3d-1       1Cu3d0        1Cu3d+1       1Cu3d+2       1Cu4d-2       1Cu4d-1       1Cu4d0    
    5    1Cu4d+1       1Cu4d+2       1Cu5d-2       1Cu5d-1       1Cu5d0        1Cu5d+1       1Cu5d+2       1Cu6d-2       1Cu6d-1       1Cu6d0    
    6    1Cu6d+1       1Cu6d+2       1Cu7d-2       1Cu7d-1       1Cu7d0        1Cu7d+1       1Cu7d+2       1Cu1f-3       1Cu1f-2       1Cu1f-1   
    7    1Cu1f0        1Cu1f+1       1Cu1f+2       1Cu1f+3       1Cu2f-3       1Cu2f-2       1Cu2f-1       1Cu2f0        1Cu2f+1       1Cu2f+2   
    8    1Cu2f+3       1Cu3f-3       1Cu3f-2       1Cu3f-1       1Cu3f0        1Cu3f+1       1Cu3f+2       1Cu3f+3       1Cu4f-3       1Cu4f-2   
    9    1Cu4f-1       1Cu4f0        1Cu4f+1       1Cu4f+2       1Cu4f+3       1Cu1g-4       1Cu1g-3       1Cu1g-2       1Cu1g-1       1Cu1g0    
   10    1Cu1g+1       1Cu1g+2       1Cu1g+3       1Cu1g+4       1Cu2g-4       1Cu2g-3       1Cu2g-2       1Cu2g-1       1Cu2g0        1Cu2g+1   
   11    1Cu2g+2       1Cu2g+3       1Cu2g+4       1Cu3g-4       1Cu3g-3       1Cu3g-2       1Cu3g-1       1Cu3g0        1Cu3g+1       1Cu3g+2   
   12    1Cu3g+3       1Cu3g+4       2Cu1s         2Cu2s         2Cu3s         2Cu4s         2Cu5s         2Cu6s         2Cu7s         2Cu8s     
   13    2Cu1pz        2Cu1py        2Cu1px        2Cu2pz        2Cu2py        2Cu2px        2Cu3pz        2Cu3py        2Cu3px        2Cu4pz    
   14    2Cu4py        2Cu4px        2Cu5pz        2Cu5py        2Cu5px        2Cu6pz        2Cu6py        2Cu6px        2Cu7pz        2Cu7py    
   15    2Cu7px        2Cu8pz        2Cu8py        2Cu8px        2Cu1d-2       2Cu1d-1       2Cu1d0        2Cu1d+1       2Cu1d+2       2Cu2d-2   
   16    2Cu2d-1       2Cu2d0        2Cu2d+1       2Cu2d+2       2Cu3d-2       2Cu3d-1       2Cu3d0        2Cu3d+1       2Cu3d+2       2Cu4d-2   
   17    2Cu4d-1       2Cu4d0        2Cu4d+1       2Cu4d+2       2Cu5d-2       2Cu5d-1       2Cu5d0        2Cu5d+1       2Cu5d+2       2Cu6d-2   
   18    2Cu6d-1       2Cu6d0        2Cu6d+1       2Cu6d+2       2Cu7d-2       2Cu7d-1       2Cu7d0        2Cu7d+1       2Cu7d+2       2Cu1f-3   
   19    2Cu1f-2       2Cu1f-1       2Cu1f0        2Cu1f+1       2Cu1f+2       2Cu1f+3       2Cu2f-3       2Cu2f-2       2Cu2f-1       2Cu2f0    
   20    2Cu2f+1       2Cu2f+2       2Cu2f+3       2Cu3f-3       2Cu3f-2       2Cu3f-1       2Cu3f0        2Cu3f+1       2Cu3f+2       2Cu3f+3   
   21    2Cu4f-3       2Cu4f-2       2Cu4f-1       2Cu4f0        2Cu4f+1       2Cu4f+2       2Cu4f+3       2Cu1g-4       2Cu1g-3       2Cu1g-2   
   22    2Cu1g-1       2Cu1g0        2Cu1g+1       2Cu1g+2       2Cu1g+3       2Cu1g+4       2Cu2g-4       2Cu2g-3       2Cu2g-2       2Cu2g-1   
   23    2Cu2g0        2Cu2g+1       2Cu2g+2       2Cu2g+3       2Cu2g+4       2Cu3g-4       2Cu3g-3       2Cu3g-2       2Cu3g-1       2Cu3g0    
   24    2Cu3g+1       2Cu3g+2       2Cu3g+3       2Cu3g+4       3Cu1s         3Cu2s         3Cu3s         3Cu4s         3Cu5s         3Cu6s     
   25    3Cu7s         3Cu8s         3Cu1pz        3Cu1py        3Cu1px        3Cu2pz        3Cu2py        3Cu2px        3Cu3pz        3Cu3py    
   26    3Cu3px        3Cu4pz        3Cu4py        3Cu4px        3Cu5pz        3Cu5py        3Cu5px        3Cu6pz        3Cu6py        3Cu6px    
   27    3Cu7pz        3Cu7py        3Cu7px        3Cu8pz        3Cu8py        3Cu8px        3Cu1d-2       3Cu1d-1       3Cu1d0        3Cu1d+1   
   28    3Cu1d+2       3Cu2d-2       3Cu2d-1       3Cu2d0        3Cu2d+1       3Cu2d+2       3Cu3d-2       3Cu3d-1       3Cu3d0        3Cu3d+1   
   29    3Cu3d+2       3Cu4d-2       3Cu4d-1       3Cu4d0        3Cu4d+1       3Cu4d+2       3Cu5d-2       3Cu5d-1       3Cu5d0        3Cu5d+1   
   30    3Cu5d+2       3Cu6d-2       3Cu6d-1       3Cu6d0        3Cu6d+1       3Cu6d+2       3Cu7d-2       3Cu7d-1       3Cu7d0        3Cu7d+1   
   31    3Cu7d+2       3Cu1f-3       3Cu1f-2       3Cu1f-1       3Cu1f0        3Cu1f+1       3Cu1f+2       3Cu1f+3       3Cu2f-3       3Cu2f-2   
   32    3Cu2f-1       3Cu2f0        3Cu2f+1       3Cu2f+2       3Cu2f+3       3Cu3f-3       3Cu3f-2       3Cu3f-1       3Cu3f0        3Cu3f+1   
   33    3Cu3f+2       3Cu3f+3       3Cu4f-3       3Cu4f-2       3Cu4f-1       3Cu4f0        3Cu4f+1       3Cu4f+2       3Cu4f+3       3Cu1g-4   
   34    3Cu1g-3       3Cu1g-2       3Cu1g-1       3Cu1g0        3Cu1g+1       3Cu1g+2       3Cu1g+3       3Cu1g+4       3Cu2g-4       3Cu2g-3   
   35    3Cu2g-2       3Cu2g-1       3Cu2g0        3Cu2g+1       3Cu2g+2       3Cu2g+3       3Cu2g+4       3Cu3g-4       3Cu3g-3       3Cu3g-2   
   36    3Cu3g-1       3Cu3g0        3Cu3g+1       3Cu3g+2       3Cu3g+3       3Cu3g+4       4Cu1s         4Cu2s         4Cu3s         4Cu4s     
   37    4Cu5s         4Cu6s         4Cu7s         4Cu8s         4Cu1pz        4Cu1py        4Cu1px        4Cu2pz        4Cu2py        4Cu2px    
   38    4Cu3pz        4Cu3py        4Cu3px        4Cu4pz        4Cu4py        4Cu4px        4Cu5pz        4Cu5py        4Cu5px        4Cu6pz    
   39    4Cu6py        4Cu6px        4Cu7pz        4Cu7py        4Cu7px        4Cu8pz        4Cu8py        4Cu8px        4Cu1d-2       4Cu1d-1   
   40    4Cu1d0        4Cu1d+1       4Cu1d+2       4Cu2d-2       4Cu2d-1       4Cu2d0        4Cu2d+1       4Cu2d+2       4Cu3d-2       4Cu3d-1   
   41    4Cu3d0        4Cu3d+1       4Cu3d+2       4Cu4d-2       4Cu4d-1       4Cu4d0        4Cu4d+1       4Cu4d+2       4Cu5d-2       4Cu5d-1   
   42    4Cu5d0        4Cu5d+1       4Cu5d+2       4Cu6d-2       4Cu6d-1       4Cu6d0        4Cu6d+1       4Cu6d+2       4Cu7d-2       4Cu7d-1   
   43    4Cu7d0        4Cu7d+1       4Cu7d+2       4Cu1f-3       4Cu1f-2       4Cu1f-1       4Cu1f0        4Cu1f+1       4Cu1f+2       4Cu1f+3   
   44    4Cu2f-3       4Cu2f-2       4Cu2f-1       4Cu2f0        4Cu2f+1       4Cu2f+2       4Cu2f+3       4Cu3f-3       4Cu3f-2       4Cu3f-1   
   45    4Cu3f0        4Cu3f+1       4Cu3f+2       4Cu3f+3       4Cu4f-3       4Cu4f-2       4Cu4f-1       4Cu4f0        4Cu4f+1       4Cu4f+2   
   46    4Cu4f+3       4Cu1g-4       4Cu1g-3       4Cu1g-2       4Cu1g-1       4Cu1g0        4Cu1g+1       4Cu1g+2       4Cu1g+3       4Cu1g+4   
   47    4Cu2g-4       4Cu2g-3       4Cu2g-2       4Cu2g-1       4Cu2g0        4Cu2g+1       4Cu2g+2       4Cu2g+3       4Cu2g+4       4Cu3g-4   
   48    4Cu3g-3       4Cu3g-2       4Cu3g-1       4Cu3g0        4Cu3g+1       4Cu3g+2       4Cu3g+3       4Cu3g+4   
 
 Maximum number of basis functions per shell:   35
 Total number of basis functions:    488
 
 
 Fitting basis set for the SCF calculation:
 
   1  Cu def2-qzvpp-ri-jk [ 19s 14p 12d 10f 7g 3h 1i | 16s 13p 11d 9f 5g 3h 1i ]
   2  Cu def2-qzvpp-ri-jk [ 19s 14p 12d 10f 7g 3h 1i | 16s 13p 11d 9f 5g 3h 1i ]
   3  Cu def2-qzvpp-ri-jk [ 19s 14p 12d 10f 7g 3h 1i | 16s 13p 11d 9f 5g 3h 1i ]
   4  Cu def2-qzvpp-ri-jk [ 19s 14p 12d 10f 7g 3h 1i | 16s 13p 11d 9f 5g 3h 1i ]
 
 Basis functions:
            1             2             3             4             5             6             7             8             9            10
    0    1Cu1s         1Cu2s         1Cu3s         1Cu4s         1Cu5s         1Cu6s         1Cu7s         1Cu8s         1Cu9s         1Cu10s    
    1    1Cu11s        1Cu12s        1Cu13s        1Cu14s        1Cu15s        1Cu16s        1Cu1pz        1Cu1py        1Cu1px        1Cu2pz    
    2    1Cu2py        1Cu2px        1Cu3pz        1Cu3py        1Cu3px        1Cu4pz        1Cu4py        1Cu4px        1Cu5pz        1Cu5py    
    3    1Cu5px        1Cu6pz        1Cu6py        1Cu6px        1Cu7pz        1Cu7py        1Cu7px        1Cu8pz        1Cu8py        1Cu8px    
    4    1Cu9pz        1Cu9py        1Cu9px        1Cu10pz       1Cu10py       1Cu10px       1Cu11pz       1Cu11py       1Cu11px       1Cu12pz   
    5    1Cu12py       1Cu12px       1Cu13pz       1Cu13py       1Cu13px       1Cu1d-2       1Cu1d-1       1Cu1d0        1Cu1d+1       1Cu1d+2   
    6    1Cu2d-2       1Cu2d-1       1Cu2d0        1Cu2d+1       1Cu2d+2       1Cu3d-2       1Cu3d-1       1Cu3d0        1Cu3d+1       1Cu3d+2   
    7    1Cu4d-2       1Cu4d-1       1Cu4d0        1Cu4d+1       1Cu4d+2       1Cu5d-2       1Cu5d-1       1Cu5d0        1Cu5d+1       1Cu5d+2   
    8    1Cu6d-2       1Cu6d-1       1Cu6d0        1Cu6d+1       1Cu6d+2       1Cu7d-2       1Cu7d-1       1Cu7d0        1Cu7d+1       1Cu7d+2   
    9    1Cu8d-2       1Cu8d-1       1Cu8d0        1Cu8d+1       1Cu8d+2       1Cu9d-2       1Cu9d-1       1Cu9d0        1Cu9d+1       1Cu9d+2   
   10    1Cu10d-2      1Cu10d-1      1Cu10d0       1Cu10d+1      1Cu10d+2      1Cu11d-2      1Cu11d-1      1Cu11d0       1Cu11d+1      1Cu11d+2  
   11    1Cu1f-3       1Cu1f-2       1Cu1f-1       1Cu1f0        1Cu1f+1       1Cu1f+2       1Cu1f+3       1Cu2f-3       1Cu2f-2       1Cu2f-1   
   12    1Cu2f0        1Cu2f+1       1Cu2f+2       1Cu2f+3       1Cu3f-3       1Cu3f-2       1Cu3f-1       1Cu3f0        1Cu3f+1       1Cu3f+2   
   13    1Cu3f+3       1Cu4f-3       1Cu4f-2       1Cu4f-1       1Cu4f0        1Cu4f+1       1Cu4f+2       1Cu4f+3       1Cu5f-3       1Cu5f-2   
   14    1Cu5f-1       1Cu5f0        1Cu5f+1       1Cu5f+2       1Cu5f+3       1Cu6f-3       1Cu6f-2       1Cu6f-1       1Cu6f0        1Cu6f+1   
   15    1Cu6f+2       1Cu6f+3       1Cu7f-3       1Cu7f-2       1Cu7f-1       1Cu7f0        1Cu7f+1       1Cu7f+2       1Cu7f+3       1Cu8f-3   
   16    1Cu8f-2       1Cu8f-1       1Cu8f0        1Cu8f+1       1Cu8f+2       1Cu8f+3       1Cu9f-3       1Cu9f-2       1Cu9f-1       1Cu9f0    
   17    1Cu9f+1       1Cu9f+2       1Cu9f+3       1Cu1g-4       1Cu1g-3       1Cu1g-2       1Cu1g-1       1Cu1g0        1Cu1g+1       1Cu1g+2   
   18    1Cu1g+3       1Cu1g+4       1Cu2g-4       1Cu2g-3       1Cu2g-2       1Cu2g-1       1Cu2g0        1Cu2g+1       1Cu2g+2       1Cu2g+3   
   19    1Cu2g+4       1Cu3g-4       1Cu3g-3       1Cu3g-2       1Cu3g-1       1Cu3g0        1Cu3g+1       1Cu3g+2       1Cu3g+3       1Cu3g+4   
   20    1Cu4g-4       1Cu4g-3       1Cu4g-2       1Cu4g-1       1Cu4g0        1Cu4g+1       1Cu4g+2       1Cu4g+3       1Cu4g+4       1Cu5g-4   
   21    1Cu5g-3       1Cu5g-2       1Cu5g-1       1Cu5g0        1Cu5g+1       1Cu5g+2       1Cu5g+3       1Cu5g+4       1Cu1h-5       1Cu1h-4   
   22    1Cu1h-3       1Cu1h-2       1Cu1h-1       1Cu1h0        1Cu1h+1       1Cu1h+2       1Cu1h+3       1Cu1h+4       1Cu1h+5       1Cu2h-5   
   23    1Cu2h-4       1Cu2h-3       1Cu2h-2       1Cu2h-1       1Cu2h0        1Cu2h+1       1Cu2h+2       1Cu2h+3       1Cu2h+4       1Cu2h+5   
   24    1Cu3h-5       1Cu3h-4       1Cu3h-3       1Cu3h-2       1Cu3h-1       1Cu3h0        1Cu3h+1       1Cu3h+2       1Cu3h+3       1Cu3h+4   
   25    1Cu3h+5       1Cu1i-6       1Cu1i-5       1Cu1i-4       1Cu1i-3       1Cu1i-2       1Cu1i-1       1Cu1i0        1Cu1i+1       1Cu1i+2   
   26    1Cu1i+3       1Cu1i+4       1Cu1i+5       1Cu1i+6       2Cu1s         2Cu2s         2Cu3s         2Cu4s         2Cu5s         2Cu6s     
   27    2Cu7s         2Cu8s         2Cu9s         2Cu10s        2Cu11s        2Cu12s        2Cu13s        2Cu14s        2Cu15s        2Cu16s    
   28    2Cu1pz        2Cu1py        2Cu1px        2Cu2pz        2Cu2py        2Cu2px        2Cu3pz        2Cu3py        2Cu3px        2Cu4pz    
   29    2Cu4py        2Cu4px        2Cu5pz        2Cu5py        2Cu5px        2Cu6pz        2Cu6py        2Cu6px        2Cu7pz        2Cu7py    
   30    2Cu7px        2Cu8pz        2Cu8py        2Cu8px        2Cu9pz        2Cu9py        2Cu9px        2Cu10pz       2Cu10py       2Cu10px   
   31    2Cu11pz       2Cu11py       2Cu11px       2Cu12pz       2Cu12py       2Cu12px       2Cu13pz       2Cu13py       2Cu13px       2Cu1d-2   
   32    2Cu1d-1       2Cu1d0        2Cu1d+1       2Cu1d+2       2Cu2d-2       2Cu2d-1       2Cu2d0        2Cu2d+1       2Cu2d+2       2Cu3d-2   
   33    2Cu3d-1       2Cu3d0        2Cu3d+1       2Cu3d+2       2Cu4d-2       2Cu4d-1       2Cu4d0        2Cu4d+1       2Cu4d+2       2Cu5d-2   
   34    2Cu5d-1       2Cu5d0        2Cu5d+1       2Cu5d+2       2Cu6d-2       2Cu6d-1       2Cu6d0        2Cu6d+1       2Cu6d+2       2Cu7d-2   
   35    2Cu7d-1       2Cu7d0        2Cu7d+1       2Cu7d+2       2Cu8d-2       2Cu8d-1       2Cu8d0        2Cu8d+1       2Cu8d+2       2Cu9d-2   
   36    2Cu9d-1       2Cu9d0        2Cu9d+1       2Cu9d+2       2Cu10d-2      2Cu10d-1      2Cu10d0       2Cu10d+1      2Cu10d+2      2Cu11d-2  
   37    2Cu11d-1      2Cu11d0       2Cu11d+1      2Cu11d+2      2Cu1f-3       2Cu1f-2       2Cu1f-1       2Cu1f0        2Cu1f+1       2Cu1f+2   
   38    2Cu1f+3       2Cu2f-3       2Cu2f-2       2Cu2f-1       2Cu2f0        2Cu2f+1       2Cu2f+2       2Cu2f+3       2Cu3f-3       2Cu3f-2   
   39    2Cu3f-1       2Cu3f0        2Cu3f+1       2Cu3f+2       2Cu3f+3       2Cu4f-3       2Cu4f-2       2Cu4f-1       2Cu4f0        2Cu4f+1   
   40    2Cu4f+2       2Cu4f+3       2Cu5f-3       2Cu5f-2       2Cu5f-1       2Cu5f0        2Cu5f+1       2Cu5f+2       2Cu5f+3       2Cu6f-3   
   41    2Cu6f-2       2Cu6f-1       2Cu6f0        2Cu6f+1       2Cu6f+2       2Cu6f+3       2Cu7f-3       2Cu7f-2       2Cu7f-1       2Cu7f0    
   42    2Cu7f+1       2Cu7f+2       2Cu7f+3       2Cu8f-3       2Cu8f-2       2Cu8f-1       2Cu8f0        2Cu8f+1       2Cu8f+2       2Cu8f+3   
   43    2Cu9f-3       2Cu9f-2       2Cu9f-1       2Cu9f0        2Cu9f+1       2Cu9f+2       2Cu9f+3       2Cu1g-4       2Cu1g-3       2Cu1g-2   
   44    2Cu1g-1       2Cu1g0        2Cu1g+1       2Cu1g+2       2Cu1g+3       2Cu1g+4       2Cu2g-4       2Cu2g-3       2Cu2g-2       2Cu2g-1   
   45    2Cu2g0        2Cu2g+1       2Cu2g+2       2Cu2g+3       2Cu2g+4       2Cu3g-4       2Cu3g-3       2Cu3g-2       2Cu3g-1       2Cu3g0    
   46    2Cu3g+1       2Cu3g+2       2Cu3g+3       2Cu3g+4       2Cu4g-4       2Cu4g-3       2Cu4g-2       2Cu4g-1       2Cu4g0        2Cu4g+1   
   47    2Cu4g+2       2Cu4g+3       2Cu4g+4       2Cu5g-4       2Cu5g-3       2Cu5g-2       2Cu5g-1       2Cu5g0        2Cu5g+1       2Cu5g+2   
   48    2Cu5g+3       2Cu5g+4       2Cu1h-5       2Cu1h-4       2Cu1h-3       2Cu1h-2       2Cu1h-1       2Cu1h0        2Cu1h+1       2Cu1h+2   
   49    2Cu1h+3       2Cu1h+4       2Cu1h+5       2Cu2h-5       2Cu2h-4       2Cu2h-3       2Cu2h-2       2Cu2h-1       2Cu2h0        2Cu2h+1   
   50    2Cu2h+2       2Cu2h+3       2Cu2h+4       2Cu2h+5       2Cu3h-5       2Cu3h-4       2Cu3h-3       2Cu3h-2       2Cu3h-1       2Cu3h0    
   51    2Cu3h+1       2Cu3h+2       2Cu3h+3       2Cu3h+4       2Cu3h+5       2Cu1i-6       2Cu1i-5       2Cu1i-4       2Cu1i-3       2Cu1i-2   
   52    2Cu1i-1       2Cu1i0        2Cu1i+1       2Cu1i+2       2Cu1i+3       2Cu1i+4       2Cu1i+5       2Cu1i+6       3Cu1s         3Cu2s     
   53    3Cu3s         3Cu4s         3Cu5s         3Cu6s         3Cu7s         3Cu8s         3Cu9s         3Cu10s        3Cu11s        3Cu12s    
   54    3Cu13s        3Cu14s        3Cu15s        3Cu16s        3Cu1pz        3Cu1py        3Cu1px        3Cu2pz        3Cu2py        3Cu2px    
   55    3Cu3pz        3Cu3py        3Cu3px        3Cu4pz        3Cu4py        3Cu4px        3Cu5pz        3Cu5py        3Cu5px        3Cu6pz    
   56    3Cu6py        3Cu6px        3Cu7pz        3Cu7py        3Cu7px        3Cu8pz        3Cu8py        3Cu8px        3Cu9pz        3Cu9py    
   57    3Cu9px        3Cu10pz       3Cu10py       3Cu10px       3Cu11pz       3Cu11py       3Cu11px       3Cu12pz       3Cu12py       3Cu12px   
   58    3Cu13pz       3Cu13py       3Cu13px       3Cu1d-2       3Cu1d-1       3Cu1d0        3Cu1d+1       3Cu1d+2       3Cu2d-2       3Cu2d-1   
   59    3Cu2d0        3Cu2d+1       3Cu2d+2       3Cu3d-2       3Cu3d-1       3Cu3d0        3Cu3d+1       3Cu3d+2       3Cu4d-2       3Cu4d-1   
   60    3Cu4d0        3Cu4d+1       3Cu4d+2       3Cu5d-2       3Cu5d-1       3Cu5d0        3Cu5d+1       3Cu5d+2       3Cu6d-2       3Cu6d-1   
   61    3Cu6d0        3Cu6d+1       3Cu6d+2       3Cu7d-2       3Cu7d-1       3Cu7d0        3Cu7d+1       3Cu7d+2       3Cu8d-2       3Cu8d-1   
   62    3Cu8d0        3Cu8d+1       3Cu8d+2       3Cu9d-2       3Cu9d-1       3Cu9d0        3Cu9d+1       3Cu9d+2       3Cu10d-2      3Cu10d-1  
   63    3Cu10d0       3Cu10d+1      3Cu10d+2      3Cu11d-2      3Cu11d-1      3Cu11d0       3Cu11d+1      3Cu11d+2      3Cu1f-3       3Cu1f-2   
   64    3Cu1f-1       3Cu1f0        3Cu1f+1       3Cu1f+2       3Cu1f+3       3Cu2f-3       3Cu2f-2       3Cu2f-1       3Cu2f0        3Cu2f+1   
   65    3Cu2f+2       3Cu2f+3       3Cu3f-3       3Cu3f-2       3Cu3f-1       3Cu3f0        3Cu3f+1       3Cu3f+2       3Cu3f+3       3Cu4f-3   
   66    3Cu4f-2       3Cu4f-1       3Cu4f0        3Cu4f+1       3Cu4f+2       3Cu4f+3       3Cu5f-3       3Cu5f-2       3Cu5f-1       3Cu5f0    
   67    3Cu5f+1       3Cu5f+2       3Cu5f+3       3Cu6f-3       3Cu6f-2       3Cu6f-1       3Cu6f0        3Cu6f+1       3Cu6f+2       3Cu6f+3   
   68    3Cu7f-3       3Cu7f-2       3Cu7f-1       3Cu7f0        3Cu7f+1       3Cu7f+2       3Cu7f+3       3Cu8f-3       3Cu8f-2       3Cu8f-1   
   69    3Cu8f0        3Cu8f+1       3Cu8f+2       3Cu8f+3       3Cu9f-3       3Cu9f-2       3Cu9f-1       3Cu9f0        3Cu9f+1       3Cu9f+2   
   70    3Cu9f+3       3Cu1g-4       3Cu1g-3       3Cu1g-2       3Cu1g-1       3Cu1g0        3Cu1g+1       3Cu1g+2       3Cu1g+3       3Cu1g+4   
   71    3Cu2g-4       3Cu2g-3       3Cu2g-2       3Cu2g-1       3Cu2g0        3Cu2g+1       3Cu2g+2       3Cu2g+3       3Cu2g+4       3Cu3g-4   
   72    3Cu3g-3       3Cu3g-2       3Cu3g-1       3Cu3g0        3Cu3g+1       3Cu3g+2       3Cu3g+3       3Cu3g+4       3Cu4g-4       3Cu4g-3   
   73    3Cu4g-2       3Cu4g-1       3Cu4g0        3Cu4g+1       3Cu4g+2       3Cu4g+3       3Cu4g+4       3Cu5g-4       3Cu5g-3       3Cu5g-2   
   74    3Cu5g-1       3Cu5g0        3Cu5g+1       3Cu5g+2       3Cu5g+3       3Cu5g+4       3Cu1h-5       3Cu1h-4       3Cu1h-3       3Cu1h-2   
   75    3Cu1h-1       3Cu1h0        3Cu1h+1       3Cu1h+2       3Cu1h+3       3Cu1h+4       3Cu1h+5       3Cu2h-5       3Cu2h-4       3Cu2h-3   
   76    3Cu2h-2       3Cu2h-1       3Cu2h0        3Cu2h+1       3Cu2h+2       3Cu2h+3       3Cu2h+4       3Cu2h+5       3Cu3h-5       3Cu3h-4   
   77    3Cu3h-3       3Cu3h-2       3Cu3h-1       3Cu3h0        3Cu3h+1       3Cu3h+2       3Cu3h+3       3Cu3h+4       3Cu3h+5       3Cu1i-6   
   78    3Cu1i-5       3Cu1i-4       3Cu1i-3       3Cu1i-2       3Cu1i-1       3Cu1i0        3Cu1i+1       3Cu1i+2       3Cu1i+3       3Cu1i+4   
   79    3Cu1i+5       3Cu1i+6       4Cu1s         4Cu2s         4Cu3s         4Cu4s         4Cu5s         4Cu6s         4Cu7s         4Cu8s     
   80    4Cu9s         4Cu10s        4Cu11s        4Cu12s        4Cu13s        4Cu14s        4Cu15s        4Cu16s        4Cu1pz        4Cu1py    
   81    4Cu1px        4Cu2pz        4Cu2py        4Cu2px        4Cu3pz        4Cu3py        4Cu3px        4Cu4pz        4Cu4py        4Cu4px    
   82    4Cu5pz        4Cu5py        4Cu5px        4Cu6pz        4Cu6py        4Cu6px        4Cu7pz        4Cu7py        4Cu7px        4Cu8pz    
   83    4Cu8py        4Cu8px        4Cu9pz        4Cu9py        4Cu9px        4Cu10pz       4Cu10py       4Cu10px       4Cu11pz       4Cu11py   
   84    4Cu11px       4Cu12pz       4Cu12py       4Cu12px       4Cu13pz       4Cu13py       4Cu13px       4Cu1d-2       4Cu1d-1       4Cu1d0    
   85    4Cu1d+1       4Cu1d+2       4Cu2d-2       4Cu2d-1       4Cu2d0        4Cu2d+1       4Cu2d+2       4Cu3d-2       4Cu3d-1       4Cu3d0    
   86    4Cu3d+1       4Cu3d+2       4Cu4d-2       4Cu4d-1       4Cu4d0        4Cu4d+1       4Cu4d+2       4Cu5d-2       4Cu5d-1       4Cu5d0    
   87    4Cu5d+1       4Cu5d+2       4Cu6d-2       4Cu6d-1       4Cu6d0        4Cu6d+1       4Cu6d+2       4Cu7d-2       4Cu7d-1       4Cu7d0    
   88    4Cu7d+1       4Cu7d+2       4Cu8d-2       4Cu8d-1       4Cu8d0        4Cu8d+1       4Cu8d+2       4Cu9d-2       4Cu9d-1       4Cu9d0    
   89    4Cu9d+1       4Cu9d+2       4Cu10d-2      4Cu10d-1      4Cu10d0       4Cu10d+1      4Cu10d+2      4Cu11d-2      4Cu11d-1      4Cu11d0   
   90    4Cu11d+1      4Cu11d+2      4Cu1f-3       4Cu1f-2       4Cu1f-1       4Cu1f0        4Cu1f+1       4Cu1f+2       4Cu1f+3       4Cu2f-3   
   91    4Cu2f-2       4Cu2f-1       4Cu2f0        4Cu2f+1       4Cu2f+2       4Cu2f+3       4Cu3f-3       4Cu3f-2       4Cu3f-1       4Cu3f0    
   92    4Cu3f+1       4Cu3f+2       4Cu3f+3       4Cu4f-3       4Cu4f-2       4Cu4f-1       4Cu4f0        4Cu4f+1       4Cu4f+2       4Cu4f+3   
   93    4Cu5f-3       4Cu5f-2       4Cu5f-1       4Cu5f0        4Cu5f+1       4Cu5f+2       4Cu5f+3       4Cu6f-3       4Cu6f-2       4Cu6f-1   
   94    4Cu6f0        4Cu6f+1       4Cu6f+2       4Cu6f+3       4Cu7f-3       4Cu7f-2       4Cu7f-1       4Cu7f0        4Cu7f+1       4Cu7f+2   
   95    4Cu7f+3       4Cu8f-3       4Cu8f-2       4Cu8f-1       4Cu8f0        4Cu8f+1       4Cu8f+2       4Cu8f+3       4Cu9f-3       4Cu9f-2   
   96    4Cu9f-1       4Cu9f0        4Cu9f+1       4Cu9f+2       4Cu9f+3       4Cu1g-4       4Cu1g-3       4Cu1g-2       4Cu1g-1       4Cu1g0    
   97    4Cu1g+1       4Cu1g+2       4Cu1g+3       4Cu1g+4       4Cu2g-4       4Cu2g-3       4Cu2g-2       4Cu2g-1       4Cu2g0        4Cu2g+1   
   98    4Cu2g+2       4Cu2g+3       4Cu2g+4       4Cu3g-4       4Cu3g-3       4Cu3g-2       4Cu3g-1       4Cu3g0        4Cu3g+1       4Cu3g+2   
   99    4Cu3g+3       4Cu3g+4       4Cu4g-4       4Cu4g-3       4Cu4g-2       4Cu4g-1       4Cu4g0        4Cu4g+1       4Cu4g+2       4Cu4g+3   
  100    4Cu4g+4       4Cu5g-4       4Cu5g-3       4Cu5g-2       4Cu5g-1       4Cu5g0        4Cu5g+1       4Cu5g+2       4Cu5g+3       4Cu5g+4   
  101    4Cu1h-5       4Cu1h-4       4Cu1h-3       4Cu1h-2       4Cu1h-1       4Cu1h0        4Cu1h+1       4Cu1h+2       4Cu1h+3       4Cu1h+4   
  102    4Cu1h+5       4Cu2h-5       4Cu2h-4       4Cu2h-3       4Cu2h-2       4Cu2h-1       4Cu2h0        4Cu2h+1       4Cu2h+2       4Cu2h+3   
  103    4Cu2h+4       4Cu2h+5       4Cu3h-5       4Cu3h-4       4Cu3h-3       4Cu3h-2       4Cu3h-1       4Cu3h0        4Cu3h+1       4Cu3h+2   
  104    4Cu3h+3       4Cu3h+4       4Cu3h+5       4Cu1i-6       4Cu1i-5       4Cu1i-4       4Cu1i-3       4Cu1i-2       4Cu1i-1       4Cu1i0    
  105    4Cu1i+1       4Cu1i+2       4Cu1i+3       4Cu1i+4       4Cu1i+5       4Cu1i+6   
 
 Maximum number of basis functions per shell:   63
 Total number of basis functions:   1056
 
 
 Fitting basis set for the correlation calculation:
 
   1  Cu bse_acvtz_mp2fit [ 13s 13p 12d 10f 8g 5h 4i | 13s 13p 12d 10f 8g 5h 4i ]
   2  Cu bse_acvtz_mp2fit [ 13s 13p 12d 10f 8g 5h 4i | 13s 13p 12d 10f 8g 5h 4i ]
   3  Cu bse_acvtz_mp2fit [ 13s 13p 12d 10f 8g 5h 4i | 13s 13p 12d 10f 8g 5h 4i ]
   4  Cu bse_acvtz_mp2fit [ 13s 13p 12d 10f 8g 5h 4i | 13s 13p 12d 10f 8g 5h 4i ]
 
 Basis functions:
            1             2             3             4             5             6             7             8             9            10
    0    1Cu1s         1Cu2s         1Cu3s         1Cu4s         1Cu5s         1Cu6s         1Cu7s         1Cu8s         1Cu9s         1Cu10s    
    1    1Cu11s        1Cu12s        1Cu13s        1Cu1pz        1Cu1py        1Cu1px        1Cu2pz        1Cu2py        1Cu2px        1Cu3pz    
    2    1Cu3py        1Cu3px        1Cu4pz        1Cu4py        1Cu4px        1Cu5pz        1Cu5py        1Cu5px        1Cu6pz        1Cu6py    
    3    1Cu6px        1Cu7pz        1Cu7py        1Cu7px        1Cu8pz        1Cu8py        1Cu8px        1Cu9pz        1Cu9py        1Cu9px    
    4    1Cu10pz       1Cu10py       1Cu10px       1Cu11pz       1Cu11py       1Cu11px       1Cu12pz       1Cu12py       1Cu12px       1Cu13pz   
    5    1Cu13py       1Cu13px       1Cu1d-2       1Cu1d-1       1Cu1d0        1Cu1d+1       1Cu1d+2       1Cu2d-2       1Cu2d-1       1Cu2d0    
    6    1Cu2d+1       1Cu2d+2       1Cu3d-2       1Cu3d-1       1Cu3d0        1Cu3d+1       1Cu3d+2       1Cu4d-2       1Cu4d-1       1Cu4d0    
    7    1Cu4d+1       1Cu4d+2       1Cu5d-2       1Cu5d-1       1Cu5d0        1Cu5d+1       1Cu5d+2       1Cu6d-2       1Cu6d-1       1Cu6d0    
    8    1Cu6d+1       1Cu6d+2       1Cu7d-2       1Cu7d-1       1Cu7d0        1Cu7d+1       1Cu7d+2       1Cu8d-2       1Cu8d-1       1Cu8d0    
    9    1Cu8d+1       1Cu8d+2       1Cu9d-2       1Cu9d-1       1Cu9d0        1Cu9d+1       1Cu9d+2       1Cu10d-2      1Cu10d-1      1Cu10d0   
   10    1Cu10d+1      1Cu10d+2      1Cu11d-2      1Cu11d-1      1Cu11d0       1Cu11d+1      1Cu11d+2      1Cu12d-2      1Cu12d-1      1Cu12d0   
   11    1Cu12d+1      1Cu12d+2      1Cu1f-3       1Cu1f-2       1Cu1f-1       1Cu1f0        1Cu1f+1       1Cu1f+2       1Cu1f+3       1Cu2f-3   
   12    1Cu2f-2       1Cu2f-1       1Cu2f0        1Cu2f+1       1Cu2f+2       1Cu2f+3       1Cu3f-3       1Cu3f-2       1Cu3f-1       1Cu3f0    
   13    1Cu3f+1       1Cu3f+2       1Cu3f+3       1Cu4f-3       1Cu4f-2       1Cu4f-1       1Cu4f0        1Cu4f+1       1Cu4f+2       1Cu4f+3   
   14    1Cu5f-3       1Cu5f-2       1Cu5f-1       1Cu5f0        1Cu5f+1       1Cu5f+2       1Cu5f+3       1Cu6f-3       1Cu6f-2       1Cu6f-1   
   15    1Cu6f0        1Cu6f+1       1Cu6f+2       1Cu6f+3       1Cu7f-3       1Cu7f-2       1Cu7f-1       1Cu7f0        1Cu7f+1       1Cu7f+2   
   16    1Cu7f+3       1Cu8f-3       1Cu8f-2       1Cu8f-1       1Cu8f0        1Cu8f+1       1Cu8f+2       1Cu8f+3       1Cu9f-3       1Cu9f-2   
   17    1Cu9f-1       1Cu9f0        1Cu9f+1       1Cu9f+2       1Cu9f+3       1Cu10f-3      1Cu10f-2      1Cu10f-1      1Cu10f0       1Cu10f+1  
   18    1Cu10f+2      1Cu10f+3      1Cu1g-4       1Cu1g-3       1Cu1g-2       1Cu1g-1       1Cu1g0        1Cu1g+1       1Cu1g+2       1Cu1g+3   
   19    1Cu1g+4       1Cu2g-4       1Cu2g-3       1Cu2g-2       1Cu2g-1       1Cu2g0        1Cu2g+1       1Cu2g+2       1Cu2g+3       1Cu2g+4   
   20    1Cu3g-4       1Cu3g-3       1Cu3g-2       1Cu3g-1       1Cu3g0        1Cu3g+1       1Cu3g+2       1Cu3g+3       1Cu3g+4       1Cu4g-4   
   21    1Cu4g-3       1Cu4g-2       1Cu4g-1       1Cu4g0        1Cu4g+1       1Cu4g+2       1Cu4g+3       1Cu4g+4       1Cu5g-4       1Cu5g-3   
   22    1Cu5g-2       1Cu5g-1       1Cu5g0        1Cu5g+1       1Cu5g+2       1Cu5g+3       1Cu5g+4       1Cu6g-4       1Cu6g-3       1Cu6g-2   
   23    1Cu6g-1       1Cu6g0        1Cu6g+1       1Cu6g+2       1Cu6g+3       1Cu6g+4       1Cu7g-4       1Cu7g-3       1Cu7g-2       1Cu7g-1   
   24    1Cu7g0        1Cu7g+1       1Cu7g+2       1Cu7g+3       1Cu7g+4       1Cu8g-4       1Cu8g-3       1Cu8g-2       1Cu8g-1       1Cu8g0    
   25    1Cu8g+1       1Cu8g+2       1Cu8g+3       1Cu8g+4       1Cu1h-5       1Cu1h-4       1Cu1h-3       1Cu1h-2       1Cu1h-1       1Cu1h0    
   26    1Cu1h+1       1Cu1h+2       1Cu1h+3       1Cu1h+4       1Cu1h+5       1Cu2h-5       1Cu2h-4       1Cu2h-3       1Cu2h-2       1Cu2h-1   
   27    1Cu2h0        1Cu2h+1       1Cu2h+2       1Cu2h+3       1Cu2h+4       1Cu2h+5       1Cu3h-5       1Cu3h-4       1Cu3h-3       1Cu3h-2   
   28    1Cu3h-1       1Cu3h0        1Cu3h+1       1Cu3h+2       1Cu3h+3       1Cu3h+4       1Cu3h+5       1Cu4h-5       1Cu4h-4       1Cu4h-3   
   29    1Cu4h-2       1Cu4h-1       1Cu4h0        1Cu4h+1       1Cu4h+2       1Cu4h+3       1Cu4h+4       1Cu4h+5       1Cu5h-5       1Cu5h-4   
   30    1Cu5h-3       1Cu5h-2       1Cu5h-1       1Cu5h0        1Cu5h+1       1Cu5h+2       1Cu5h+3       1Cu5h+4       1Cu5h+5       1Cu1i-6   
   31    1Cu1i-5       1Cu1i-4       1Cu1i-3       1Cu1i-2       1Cu1i-1       1Cu1i0        1Cu1i+1       1Cu1i+2       1Cu1i+3       1Cu1i+4   
   32    1Cu1i+5       1Cu1i+6       1Cu2i-6       1Cu2i-5       1Cu2i-4       1Cu2i-3       1Cu2i-2       1Cu2i-1       1Cu2i0        1Cu2i+1   
   33    1Cu2i+2       1Cu2i+3       1Cu2i+4       1Cu2i+5       1Cu2i+6       1Cu3i-6       1Cu3i-5       1Cu3i-4       1Cu3i-3       1Cu3i-2   
   34    1Cu3i-1       1Cu3i0        1Cu3i+1       1Cu3i+2       1Cu3i+3       1Cu3i+4       1Cu3i+5       1Cu3i+6       1Cu4i-6       1Cu4i-5   
   35    1Cu4i-4       1Cu4i-3       1Cu4i-2       1Cu4i-1       1Cu4i0        1Cu4i+1       1Cu4i+2       1Cu4i+3       1Cu4i+4       1Cu4i+5   
   36    1Cu4i+6       2Cu1s         2Cu2s         2Cu3s         2Cu4s         2Cu5s         2Cu6s         2Cu7s         2Cu8s         2Cu9s     
   37    2Cu10s        2Cu11s        2Cu12s        2Cu13s        2Cu1pz        2Cu1py        2Cu1px        2Cu2pz        2Cu2py        2Cu2px    
   38    2Cu3pz        2Cu3py        2Cu3px        2Cu4pz        2Cu4py        2Cu4px        2Cu5pz        2Cu5py        2Cu5px        2Cu6pz    
   39    2Cu6py        2Cu6px        2Cu7pz        2Cu7py        2Cu7px        2Cu8pz        2Cu8py        2Cu8px        2Cu9pz        2Cu9py    
   40    2Cu9px        2Cu10pz       2Cu10py       2Cu10px       2Cu11pz       2Cu11py       2Cu11px       2Cu12pz       2Cu12py       2Cu12px   
   41    2Cu13pz       2Cu13py       2Cu13px       2Cu1d-2       2Cu1d-1       2Cu1d0        2Cu1d+1       2Cu1d+2       2Cu2d-2       2Cu2d-1   
   42    2Cu2d0        2Cu2d+1       2Cu2d+2       2Cu3d-2       2Cu3d-1       2Cu3d0        2Cu3d+1       2Cu3d+2       2Cu4d-2       2Cu4d-1   
   43    2Cu4d0        2Cu4d+1       2Cu4d+2       2Cu5d-2       2Cu5d-1       2Cu5d0        2Cu5d+1       2Cu5d+2       2Cu6d-2       2Cu6d-1   
   44    2Cu6d0        2Cu6d+1       2Cu6d+2       2Cu7d-2       2Cu7d-1       2Cu7d0        2Cu7d+1       2Cu7d+2       2Cu8d-2       2Cu8d-1   
   45    2Cu8d0        2Cu8d+1       2Cu8d+2       2Cu9d-2       2Cu9d-1       2Cu9d0        2Cu9d+1       2Cu9d+2       2Cu10d-2      2Cu10d-1  
   46    2Cu10d0       2Cu10d+1      2Cu10d+2      2Cu11d-2      2Cu11d-1      2Cu11d0       2Cu11d+1      2Cu11d+2      2Cu12d-2      2Cu12d-1  
   47    2Cu12d0       2Cu12d+1      2Cu12d+2      2Cu1f-3       2Cu1f-2       2Cu1f-1       2Cu1f0        2Cu1f+1       2Cu1f+2       2Cu1f+3   
   48    2Cu2f-3       2Cu2f-2       2Cu2f-1       2Cu2f0        2Cu2f+1       2Cu2f+2       2Cu2f+3       2Cu3f-3       2Cu3f-2       2Cu3f-1   
   49    2Cu3f0        2Cu3f+1       2Cu3f+2       2Cu3f+3       2Cu4f-3       2Cu4f-2       2Cu4f-1       2Cu4f0        2Cu4f+1       2Cu4f+2   
   50    2Cu4f+3       2Cu5f-3       2Cu5f-2       2Cu5f-1       2Cu5f0        2Cu5f+1       2Cu5f+2       2Cu5f+3       2Cu6f-3       2Cu6f-2   
   51    2Cu6f-1       2Cu6f0        2Cu6f+1       2Cu6f+2       2Cu6f+3       2Cu7f-3       2Cu7f-2       2Cu7f-1       2Cu7f0        2Cu7f+1   
   52    2Cu7f+2       2Cu7f+3       2Cu8f-3       2Cu8f-2       2Cu8f-1       2Cu8f0        2Cu8f+1       2Cu8f+2       2Cu8f+3       2Cu9f-3   
   53    2Cu9f-2       2Cu9f-1       2Cu9f0        2Cu9f+1       2Cu9f+2       2Cu9f+3       2Cu10f-3      2Cu10f-2      2Cu10f-1      2Cu10f0   
   54    2Cu10f+1      2Cu10f+2      2Cu10f+3      2Cu1g-4       2Cu1g-3       2Cu1g-2       2Cu1g-1       2Cu1g0        2Cu1g+1       2Cu1g+2   
   55    2Cu1g+3       2Cu1g+4       2Cu2g-4       2Cu2g-3       2Cu2g-2       2Cu2g-1       2Cu2g0        2Cu2g+1       2Cu2g+2       2Cu2g+3   
   56    2Cu2g+4       2Cu3g-4       2Cu3g-3       2Cu3g-2       2Cu3g-1       2Cu3g0        2Cu3g+1       2Cu3g+2       2Cu3g+3       2Cu3g+4   
   57    2Cu4g-4       2Cu4g-3       2Cu4g-2       2Cu4g-1       2Cu4g0        2Cu4g+1       2Cu4g+2       2Cu4g+3       2Cu4g+4       2Cu5g-4   
   58    2Cu5g-3       2Cu5g-2       2Cu5g-1       2Cu5g0        2Cu5g+1       2Cu5g+2       2Cu5g+3       2Cu5g+4       2Cu6g-4       2Cu6g-3   
   59    2Cu6g-2       2Cu6g-1       2Cu6g0        2Cu6g+1       2Cu6g+2       2Cu6g+3       2Cu6g+4       2Cu7g-4       2Cu7g-3       2Cu7g-2   
   60    2Cu7g-1       2Cu7g0        2Cu7g+1       2Cu7g+2       2Cu7g+3       2Cu7g+4       2Cu8g-4       2Cu8g-3       2Cu8g-2       2Cu8g-1   
   61    2Cu8g0        2Cu8g+1       2Cu8g+2       2Cu8g+3       2Cu8g+4       2Cu1h-5       2Cu1h-4       2Cu1h-3       2Cu1h-2       2Cu1h-1   
   62    2Cu1h0        2Cu1h+1       2Cu1h+2       2Cu1h+3       2Cu1h+4       2Cu1h+5       2Cu2h-5       2Cu2h-4       2Cu2h-3       2Cu2h-2   
   63    2Cu2h-1       2Cu2h0        2Cu2h+1       2Cu2h+2       2Cu2h+3       2Cu2h+4       2Cu2h+5       2Cu3h-5       2Cu3h-4       2Cu3h-3   
   64    2Cu3h-2       2Cu3h-1       2Cu3h0        2Cu3h+1       2Cu3h+2       2Cu3h+3       2Cu3h+4       2Cu3h+5       2Cu4h-5       2Cu4h-4   
   65    2Cu4h-3       2Cu4h-2       2Cu4h-1       2Cu4h0        2Cu4h+1       2Cu4h+2       2Cu4h+3       2Cu4h+4       2Cu4h+5       2Cu5h-5   
   66    2Cu5h-4       2Cu5h-3       2Cu5h-2       2Cu5h-1       2Cu5h0        2Cu5h+1       2Cu5h+2       2Cu5h+3       2Cu5h+4       2Cu5h+5   
   67    2Cu1i-6       2Cu1i-5       2Cu1i-4       2Cu1i-3       2Cu1i-2       2Cu1i-1       2Cu1i0        2Cu1i+1       2Cu1i+2       2Cu1i+3   
   68    2Cu1i+4       2Cu1i+5       2Cu1i+6       2Cu2i-6       2Cu2i-5       2Cu2i-4       2Cu2i-3       2Cu2i-2       2Cu2i-1       2Cu2i0    
   69    2Cu2i+1       2Cu2i+2       2Cu2i+3       2Cu2i+4       2Cu2i+5       2Cu2i+6       2Cu3i-6       2Cu3i-5       2Cu3i-4       2Cu3i-3   
   70    2Cu3i-2       2Cu3i-1       2Cu3i0        2Cu3i+1       2Cu3i+2       2Cu3i+3       2Cu3i+4       2Cu3i+5       2Cu3i+6       2Cu4i-6   
   71    2Cu4i-5       2Cu4i-4       2Cu4i-3       2Cu4i-2       2Cu4i-1       2Cu4i0        2Cu4i+1       2Cu4i+2       2Cu4i+3       2Cu4i+4   
   72    2Cu4i+5       2Cu4i+6       3Cu1s         3Cu2s         3Cu3s         3Cu4s         3Cu5s         3Cu6s         3Cu7s         3Cu8s     
   73    3Cu9s         3Cu10s        3Cu11s        3Cu12s        3Cu13s        3Cu1pz        3Cu1py        3Cu1px        3Cu2pz        3Cu2py    
   74    3Cu2px        3Cu3pz        3Cu3py        3Cu3px        3Cu4pz        3Cu4py        3Cu4px        3Cu5pz        3Cu5py        3Cu5px    
   75    3Cu6pz        3Cu6py        3Cu6px        3Cu7pz        3Cu7py        3Cu7px        3Cu8pz        3Cu8py        3Cu8px        3Cu9pz    
   76    3Cu9py        3Cu9px        3Cu10pz       3Cu10py       3Cu10px       3Cu11pz       3Cu11py       3Cu11px       3Cu12pz       3Cu12py   
   77    3Cu12px       3Cu13pz       3Cu13py       3Cu13px       3Cu1d-2       3Cu1d-1       3Cu1d0        3Cu1d+1       3Cu1d+2       3Cu2d-2   
   78    3Cu2d-1       3Cu2d0        3Cu2d+1       3Cu2d+2       3Cu3d-2       3Cu3d-1       3Cu3d0        3Cu3d+1       3Cu3d+2       3Cu4d-2   
   79    3Cu4d-1       3Cu4d0        3Cu4d+1       3Cu4d+2       3Cu5d-2       3Cu5d-1       3Cu5d0        3Cu5d+1       3Cu5d+2       3Cu6d-2   
   80    3Cu6d-1       3Cu6d0        3Cu6d+1       3Cu6d+2       3Cu7d-2       3Cu7d-1       3Cu7d0        3Cu7d+1       3Cu7d+2       3Cu8d-2   
   81    3Cu8d-1       3Cu8d0        3Cu8d+1       3Cu8d+2       3Cu9d-2       3Cu9d-1       3Cu9d0        3Cu9d+1       3Cu9d+2       3Cu10d-2  
   82    3Cu10d-1      3Cu10d0       3Cu10d+1      3Cu10d+2      3Cu11d-2      3Cu11d-1      3Cu11d0       3Cu11d+1      3Cu11d+2      3Cu12d-2  
   83    3Cu12d-1      3Cu12d0       3Cu12d+1      3Cu12d+2      3Cu1f-3       3Cu1f-2       3Cu1f-1       3Cu1f0        3Cu1f+1       3Cu1f+2   
   84    3Cu1f+3       3Cu2f-3       3Cu2f-2       3Cu2f-1       3Cu2f0        3Cu2f+1       3Cu2f+2       3Cu2f+3       3Cu3f-3       3Cu3f-2   
   85    3Cu3f-1       3Cu3f0        3Cu3f+1       3Cu3f+2       3Cu3f+3       3Cu4f-3       3Cu4f-2       3Cu4f-1       3Cu4f0        3Cu4f+1   
   86    3Cu4f+2       3Cu4f+3       3Cu5f-3       3Cu5f-2       3Cu5f-1       3Cu5f0        3Cu5f+1       3Cu5f+2       3Cu5f+3       3Cu6f-3   
   87    3Cu6f-2       3Cu6f-1       3Cu6f0        3Cu6f+1       3Cu6f+2       3Cu6f+3       3Cu7f-3       3Cu7f-2       3Cu7f-1       3Cu7f0    
   88    3Cu7f+1       3Cu7f+2       3Cu7f+3       3Cu8f-3       3Cu8f-2       3Cu8f-1       3Cu8f0        3Cu8f+1       3Cu8f+2       3Cu8f+3   
   89    3Cu9f-3       3Cu9f-2       3Cu9f-1       3Cu9f0        3Cu9f+1       3Cu9f+2       3Cu9f+3       3Cu10f-3      3Cu10f-2      3Cu10f-1  
   90    3Cu10f0       3Cu10f+1      3Cu10f+2      3Cu10f+3      3Cu1g-4       3Cu1g-3       3Cu1g-2       3Cu1g-1       3Cu1g0        3Cu1g+1   
   91    3Cu1g+2       3Cu1g+3       3Cu1g+4       3Cu2g-4       3Cu2g-3       3Cu2g-2       3Cu2g-1       3Cu2g0        3Cu2g+1       3Cu2g+2   
   92    3Cu2g+3       3Cu2g+4       3Cu3g-4       3Cu3g-3       3Cu3g-2       3Cu3g-1       3Cu3g0        3Cu3g+1       3Cu3g+2       3Cu3g+3   
   93    3Cu3g+4       3Cu4g-4       3Cu4g-3       3Cu4g-2       3Cu4g-1       3Cu4g0        3Cu4g+1       3Cu4g+2       3Cu4g+3       3Cu4g+4   
   94    3Cu5g-4       3Cu5g-3       3Cu5g-2       3Cu5g-1       3Cu5g0        3Cu5g+1       3Cu5g+2       3Cu5g+3       3Cu5g+4       3Cu6g-4   
   95    3Cu6g-3       3Cu6g-2       3Cu6g-1       3Cu6g0        3Cu6g+1       3Cu6g+2       3Cu6g+3       3Cu6g+4       3Cu7g-4       3Cu7g-3   
   96    3Cu7g-2       3Cu7g-1       3Cu7g0        3Cu7g+1       3Cu7g+2       3Cu7g+3       3Cu7g+4       3Cu8g-4       3Cu8g-3       3Cu8g-2   
   97    3Cu8g-1       3Cu8g0        3Cu8g+1       3Cu8g+2       3Cu8g+3       3Cu8g+4       3Cu1h-5       3Cu1h-4       3Cu1h-3       3Cu1h-2   
   98    3Cu1h-1       3Cu1h0        3Cu1h+1       3Cu1h+2       3Cu1h+3       3Cu1h+4       3Cu1h+5       3Cu2h-5       3Cu2h-4       3Cu2h-3   
   99    3Cu2h-2       3Cu2h-1       3Cu2h0        3Cu2h+1       3Cu2h+2       3Cu2h+3       3Cu2h+4       3Cu2h+5       3Cu3h-5       3Cu3h-4   
  100    3Cu3h-3       3Cu3h-2       3Cu3h-1       3Cu3h0        3Cu3h+1       3Cu3h+2       3Cu3h+3       3Cu3h+4       3Cu3h+5       3Cu4h-5   
  101    3Cu4h-4       3Cu4h-3       3Cu4h-2       3Cu4h-1       3Cu4h0        3Cu4h+1       3Cu4h+2       3Cu4h+3       3Cu4h+4       3Cu4h+5   
  102    3Cu5h-5       3Cu5h-4       3Cu5h-3       3Cu5h-2       3Cu5h-1       3Cu5h0        3Cu5h+1       3Cu5h+2       3Cu5h+3       3Cu5h+4   
  103    3Cu5h+5       3Cu1i-6       3Cu1i-5       3Cu1i-4       3Cu1i-3       3Cu1i-2       3Cu1i-1       3Cu1i0        3Cu1i+1       3Cu1i+2   
  104    3Cu1i+3       3Cu1i+4       3Cu1i+5       3Cu1i+6       3Cu2i-6       3Cu2i-5       3Cu2i-4       3Cu2i-3       3Cu2i-2       3Cu2i-1   
  105    3Cu2i0        3Cu2i+1       3Cu2i+2       3Cu2i+3       3Cu2i+4       3Cu2i+5       3Cu2i+6       3Cu3i-6       3Cu3i-5       3Cu3i-4   
  106    3Cu3i-3       3Cu3i-2       3Cu3i-1       3Cu3i0        3Cu3i+1       3Cu3i+2       3Cu3i+3       3Cu3i+4       3Cu3i+5       3Cu3i+6   
  107    3Cu4i-6       3Cu4i-5       3Cu4i-4       3Cu4i-3       3Cu4i-2       3Cu4i-1       3Cu4i0        3Cu4i+1       3Cu4i+2       3Cu4i+3   
  108    3Cu4i+4       3Cu4i+5       3Cu4i+6       4Cu1s         4Cu2s         4Cu3s         4Cu4s         4Cu5s         4Cu6s         4Cu7s     
  109    4Cu8s         4Cu9s         4Cu10s        4Cu11s        4Cu12s        4Cu13s        4Cu1pz        4Cu1py        4Cu1px        4Cu2pz    
  110    4Cu2py        4Cu2px        4Cu3pz        4Cu3py        4Cu3px        4Cu4pz        4Cu4py        4Cu4px        4Cu5pz        4Cu5py    
  111    4Cu5px        4Cu6pz        4Cu6py        4Cu6px        4Cu7pz        4Cu7py        4Cu7px        4Cu8pz        4Cu8py        4Cu8px    
  112    4Cu9pz        4Cu9py        4Cu9px        4Cu10pz       4Cu10py       4Cu10px       4Cu11pz       4Cu11py       4Cu11px       4Cu12pz   
  113    4Cu12py       4Cu12px       4Cu13pz       4Cu13py       4Cu13px       4Cu1d-2       4Cu1d-1       4Cu1d0        4Cu1d+1       4Cu1d+2   
  114    4Cu2d-2       4Cu2d-1       4Cu2d0        4Cu2d+1       4Cu2d+2       4Cu3d-2       4Cu3d-1       4Cu3d0        4Cu3d+1       4Cu3d+2   
  115    4Cu4d-2       4Cu4d-1       4Cu4d0        4Cu4d+1       4Cu4d+2       4Cu5d-2       4Cu5d-1       4Cu5d0        4Cu5d+1       4Cu5d+2   
  116    4Cu6d-2       4Cu6d-1       4Cu6d0        4Cu6d+1       4Cu6d+2       4Cu7d-2       4Cu7d-1       4Cu7d0        4Cu7d+1       4Cu7d+2   
  117    4Cu8d-2       4Cu8d-1       4Cu8d0        4Cu8d+1       4Cu8d+2       4Cu9d-2       4Cu9d-1       4Cu9d0        4Cu9d+1       4Cu9d+2   
  118    4Cu10d-2      4Cu10d-1      4Cu10d0       4Cu10d+1      4Cu10d+2      4Cu11d-2      4Cu11d-1      4Cu11d0       4Cu11d+1      4Cu11d+2  
  119    4Cu12d-2      4Cu12d-1      4Cu12d0       4Cu12d+1      4Cu12d+2      4Cu1f-3       4Cu1f-2       4Cu1f-1       4Cu1f0        4Cu1f+1   
  120    4Cu1f+2       4Cu1f+3       4Cu2f-3       4Cu2f-2       4Cu2f-1       4Cu2f0        4Cu2f+1       4Cu2f+2       4Cu2f+3       4Cu3f-3   
  121    4Cu3f-2       4Cu3f-1       4Cu3f0        4Cu3f+1       4Cu3f+2       4Cu3f+3       4Cu4f-3       4Cu4f-2       4Cu4f-1       4Cu4f0    
  122    4Cu4f+1       4Cu4f+2       4Cu4f+3       4Cu5f-3       4Cu5f-2       4Cu5f-1       4Cu5f0        4Cu5f+1       4Cu5f+2       4Cu5f+3   
  123    4Cu6f-3       4Cu6f-2       4Cu6f-1       4Cu6f0        4Cu6f+1       4Cu6f+2       4Cu6f+3       4Cu7f-3       4Cu7f-2       4Cu7f-1   
  124    4Cu7f0        4Cu7f+1       4Cu7f+2       4Cu7f+3       4Cu8f-3       4Cu8f-2       4Cu8f-1       4Cu8f0        4Cu8f+1       4Cu8f+2   
  125    4Cu8f+3       4Cu9f-3       4Cu9f-2       4Cu9f-1       4Cu9f0        4Cu9f+1       4Cu9f+2       4Cu9f+3       4Cu10f-3      4Cu10f-2  
  126    4Cu10f-1      4Cu10f0       4Cu10f+1      4Cu10f+2      4Cu10f+3      4Cu1g-4       4Cu1g-3       4Cu1g-2       4Cu1g-1       4Cu1g0    
  127    4Cu1g+1       4Cu1g+2       4Cu1g+3       4Cu1g+4       4Cu2g-4       4Cu2g-3       4Cu2g-2       4Cu2g-1       4Cu2g0        4Cu2g+1   
  128    4Cu2g+2       4Cu2g+3       4Cu2g+4       4Cu3g-4       4Cu3g-3       4Cu3g-2       4Cu3g-1       4Cu3g0        4Cu3g+1       4Cu3g+2   
  129    4Cu3g+3       4Cu3g+4       4Cu4g-4       4Cu4g-3       4Cu4g-2       4Cu4g-1       4Cu4g0        4Cu4g+1       4Cu4g+2       4Cu4g+3   
  130    4Cu4g+4       4Cu5g-4       4Cu5g-3       4Cu5g-2       4Cu5g-1       4Cu5g0        4Cu5g+1       4Cu5g+2       4Cu5g+3       4Cu5g+4   
  131    4Cu6g-4       4Cu6g-3       4Cu6g-2       4Cu6g-1       4Cu6g0        4Cu6g+1       4Cu6g+2       4Cu6g+3       4Cu6g+4       4Cu7g-4   
  132    4Cu7g-3       4Cu7g-2       4Cu7g-1       4Cu7g0        4Cu7g+1       4Cu7g+2       4Cu7g+3       4Cu7g+4       4Cu8g-4       4Cu8g-3   
  133    4Cu8g-2       4Cu8g-1       4Cu8g0        4Cu8g+1       4Cu8g+2       4Cu8g+3       4Cu8g+4       4Cu1h-5       4Cu1h-4       4Cu1h-3   
  134    4Cu1h-2       4Cu1h-1       4Cu1h0        4Cu1h+1       4Cu1h+2       4Cu1h+3       4Cu1h+4       4Cu1h+5       4Cu2h-5       4Cu2h-4   
  135    4Cu2h-3       4Cu2h-2       4Cu2h-1       4Cu2h0        4Cu2h+1       4Cu2h+2       4Cu2h+3       4Cu2h+4       4Cu2h+5       4Cu3h-5   
  136    4Cu3h-4       4Cu3h-3       4Cu3h-2       4Cu3h-1       4Cu3h0        4Cu3h+1       4Cu3h+2       4Cu3h+3       4Cu3h+4       4Cu3h+5   
  137    4Cu4h-5       4Cu4h-4       4Cu4h-3       4Cu4h-2       4Cu4h-1       4Cu4h0        4Cu4h+1       4Cu4h+2       4Cu4h+3       4Cu4h+4   
  138    4Cu4h+5       4Cu5h-5       4Cu5h-4       4Cu5h-3       4Cu5h-2       4Cu5h-1       4Cu5h0        4Cu5h+1       4Cu5h+2       4Cu5h+3   
  139    4Cu5h+4       4Cu5h+5       4Cu1i-6       4Cu1i-5       4Cu1i-4       4Cu1i-3       4Cu1i-2       4Cu1i-1       4Cu1i0        4Cu1i+1   
  140    4Cu1i+2       4Cu1i+3       4Cu1i+4       4Cu1i+5       4Cu1i+6       4Cu2i-6       4Cu2i-5       4Cu2i-4       4Cu2i-3       4Cu2i-2   
  141    4Cu2i-1       4Cu2i0        4Cu2i+1       4Cu2i+2       4Cu2i+3       4Cu2i+4       4Cu2i+5       4Cu2i+6       4Cu3i-6       4Cu3i-5   
  142    4Cu3i-4       4Cu3i-3       4Cu3i-2       4Cu3i-1       4Cu3i0        4Cu3i+1       4Cu3i+2       4Cu3i+3       4Cu3i+4       4Cu3i+5   
  143    4Cu3i+6       4Cu4i-6       4Cu4i-5       4Cu4i-4       4Cu4i-3       4Cu4i-2       4Cu4i-1       4Cu4i0        4Cu4i+1       4Cu4i+2   
  144    4Cu4i+3       4Cu4i+4       4Cu4i+5       4Cu4i+6   
 
 Maximum number of basis functions per shell:   72
 Total number of basis functions:   1444
 
 
 Effective core potentials:
 
   1  Cu mcdhf-ecp-10        
   2  Cu mcdhf-ecp-10        
   3  Cu mcdhf-ecp-10        
   4  Cu mcdhf-ecp-10        
 
 Character table for point group C1:
 
          E  
    A     1
 
 Number of basis functions per irrep:
    A     488
 
 
 Calculation of overlap integrals...
 CPU time [min]:     0.110                   Wall time [min]:     0.006
 
 Calculation of the square root of the overlap matrix...
 Minimum eigenvalue of the overlap matrix: 0.187794E-05
 CPU time [min]:     0.167                   Wall time [min]:     0.008
 
 Calculation of kinetic energy integrals...
 CPU time [min]:     0.168                   Wall time [min]:     0.008
 Calculation of dipole moment integrals...
 CPU time [min]:     0.172                   Wall time [min]:     0.009
 Calculation of nuclear attraction integrals...
 CPU time [min]:     0.177                   Wall time [min]:     0.009
 Calculation of core potential integrals...
 CPU time [min]:     0.469                   Wall time [min]:     0.189
 
 Calculation of prescreening integrals...
 CPU time [min]:     8.422                   Wall time [min]:     0.419
 
 Calculation of two-center Coulomb integrals...
   1% done.
  13% done.
  24% done.
  37% done.
  50% done.
  64% done.
  84% done.
  98% done.
 100% done.
 CPU time [min]:     8.436                   Wall time [min]:     0.420
 
 Cholesky decomposition of the two-center matrix...
 Reciprocal of the condition number:  0.142745E-04
 CPU time [min]:     8.482                   Wall time [min]:     0.421
 

 ************************ 2023-02-26 18:53:45 *************************
 Executing scf...

 @scfsetup: integrals calculated directly
            mrcc/integ direct run
 @scfsetup: calculating on full matrices
            not using symmetry adapted basis
 @scfsetup: diis switched on
 @scfsetup: number of steps to extrapolate from  10
 @scfsetup: tolerance in energy deviation    0.100000E-05
            tolerance in density deviation    0.100000E-06
 @scfsetup: maximum number of iterations:  50
 @scfsetup: restricted closed shell hf calc
 @scfsetup: restarting scf from MOCOEF file
 @scfsetup: occupation set:
            from initial orbitals
 @scfsetup: Parameter-set for SCF acceleration: difficult
 @scfsetup: diis runs from iteration:   2
 @scfsetup: diis runs to iteration:  50
 @scfsetup: diis runs in every iteration
 @scfsetup: diiswatch is disabled                   
 @scfsetup: diis dtol criteria to switch on:      0.0000E+00
           (or the iteration number below is reached)
 @scfsetup: damping is turned off.
 @scfsetup: dynamic level shifting
            tolarance in HOMO-LUMO gap:  0.200
            tolarance in density deviation:     0.0000E+00
            iteration step criteria to turn level shifting off: 8
 Allocation of 220.0 Gbytes of memory...
 ======================================================================
 ITERATION STEP   1
 CPU time [min]:     0.036                   Wall time [min]:     0.005
 

 SCF control                  : initial
 Damping factor/level shift   : 0.000/0.200
 DIIS [start/end/frequency]   :   2 / 50 /  1

 Constructing Fock-matrix...
 
 Pipek-Mezey localization...
 Step  Convergence
   1  15.692866203883
   2   7.760988067829
   3   3.482047918549
   4   1.071437663097
   5   0.570810598965
   6   0.025210267917
   7   0.000535540689
   8   0.000000721579
 CPU time [min]:     0.062                   Wall time [min]:     0.006
 
 Constructing local fitting domains...
 Maximum number of atoms in fitting domains:    4
 Average number of atoms in fitting domains:    4.0
 
 First step of Coulomb + first step of exchange...
 Exchange contribution is evaluated for MOs 1 to 38.
   2% done.
  15% done.
  27% done.
  41% done.
  56% done.
  67% done.
  79% done.
 100% done.
 CPU time [min]:     0.854                   Wall time [min]:     0.028
 
 Fitting and assembly step of exchange...
 CPU time [min]:     0.893                   Wall time [min]:     0.029
 
 Second step of Coulomb...
   2% done.
  15% done.
  27% done.
  41% done.
  56% done.
  67% done.
  79% done.
 100% done.
 CPU time [min]:     1.225                   Wall time [min]:     0.039
 
 Gradient norm:      1.4837E+01
 RMS of [F,P]:                                         0.00264935312134
 RMS of difference density:                            0.00184550813292
 Gap [au]:  0.21194345
 ALPHA OCC:  38
 BETA  OCC:  38
 
 ***HARTREE-FOCK ENERGY IN STEP   1 IS       -784.6280968089399721 [AU]
 ======================================================================
 ITERATION STEP   2
 CPU time [min]:     1.267                   Wall time [min]:     0.040
 

 SCF control                  : diis
 Damping factor/level shift   : 0.000/0.000
 DIIS [start/end/frequency]   :   2 / 50 /  1

 Constructing Fock-matrix...
 
 Pipek-Mezey localization...
 Step  Convergence
   1  14.247030489091
   2   3.437610977215
   3   1.169943584527
   4   0.923627724088
   5   0.029653009080
   6   0.000599415490
   7   0.000105278919
   8   0.000020089656
   9   0.000004352657
  10   0.000000883030
 CPU time [min]:     1.294                   Wall time [min]:     0.040
 
 Constructing local fitting domains...
 Maximum number of atoms in fitting domains:    4
 Average number of atoms in fitting domains:    4.0
 
 First step of Coulomb + first step of exchange...
 Exchange contribution is evaluated for MOs 1 to 38.
   2% done.
  15% done.
  27% done.
  41% done.
  56% done.
  67% done.
  79% done.
 100% done.
 CPU time [min]:     2.057                   Wall time [min]:     0.062
 
 Fitting and assembly step of exchange...
 CPU time [min]:     2.093                   Wall time [min]:     0.063
 
 Second step of Coulomb...
   2% done.
  15% done.
  27% done.
  41% done.
  56% done.
  67% done.
  79% done.
 100% done.
 CPU time [min]:     2.417                   Wall time [min]:     0.072
 
 Gradient norm:      1.4837E+01
 DIIS is running in this iteration step.
 RMS of [F,P]:                                         0.00113933015106
 RMS of difference density:                            0.00146017728306
 Gap [au]:  0.20639068
 ALPHA OCC:  38
 BETA  OCC:  38
 
 ***HARTREE-FOCK ENERGY IN STEP   2 IS       -784.7124750561788460 [AU]
 
 Step comparison  Energy Drift [au]  DIIS error drift  Gradient drift
        1            8.4378E-02         1.5100E-03       0.0000E+00
        2            7.8471E+02         1.0000E-07       0.0000E+00
 ======================================================================
 ITERATION STEP   3
 CPU time [min]:     2.461                   Wall time [min]:     0.073
 

 SCF control                  : diis
 Damping factor/level shift   : 0.000/0.000
 DIIS [start/end/frequency]   :   2 / 50 /  1

 Constructing Fock-matrix...
 
 Pipek-Mezey localization...
 Step  Convergence
   1  14.347476524492
   2   3.477244582287
   3   0.590431034403
   4   0.698426340656
   5   0.039199146479
   6   0.004243610548
   7   0.001169428869
   8   0.000404491282
   9   0.000149855595
  10   0.000055807022
  11   0.000020892885
  12   0.000007808654
  13   0.000002919056
  14   0.000001090480
  15   0.000000407312
 CPU time [min]:     2.492                   Wall time [min]:     0.074
 
 Constructing local fitting domains...
 Local fitting domains are unchanged.
 
 First step of Coulomb + first step of exchange...
 Exchange contribution is evaluated for MOs 1 to 38.
   2% done.
  15% done.
  27% done.
  41% done.
  56% done.
  67% done.
  79% done.
 100% done.
 CPU time [min]:     3.253                   Wall time [min]:     0.095
 
 Fitting and assembly step of exchange...
 CPU time [min]:     3.290                   Wall time [min]:     0.096
 
 Second step of Coulomb...
   2% done.
  15% done.
  27% done.
  41% done.
  56% done.
  67% done.
  79% done.
 100% done.
 CPU time [min]:     3.615                   Wall time [min]:     0.105
 
 Gradient norm:      1.4837E+01
 DIIS is running in this iteration step.
 RMS of [F,P]:                                         0.00156253462232
 RMS of difference density:                            0.00046904472042
 Gap [au]:  0.21001928
 ALPHA OCC:  38
 BETA  OCC:  38
 
 ***HARTREE-FOCK ENERGY IN STEP   3 IS       -784.7083352612642102 [AU]
 
 Step comparison  Energy Drift [au]  DIIS error drift  Gradient drift
        2           -4.1398E-03        -4.2320E-04       0.0000E+00
 Warning! The energy goes uphill (with respect to previous step).
 Warning! The DIIS error goes uphill (with respect to previous step).
 Warning! The DIIS error goes uphill (with respect to step   2 ).
 ======================================================================
 ITERATION STEP   4
 CPU time [min]:     3.658                   Wall time [min]:     0.106
 

 SCF control                  : diis
 Damping factor/level shift   : 0.000/0.000
 DIIS [start/end/frequency]   :   2 / 50 /  1

 Constructing Fock-matrix...
 
 Pipek-Mezey localization...
 Step  Convergence
   1  18.226997910589
   2   8.810682577610
   3   7.441005769155
   4   2.501020293436
   5   0.688564243408
   6   0.001745681189
   7   0.000007957096
   8   0.000000182791
   9   0.000000011476
  10   0.000000000568
  11   0.000000000036
  12   0.000000000002
  13   0.000000000000
 CPU time [min]:     3.687                   Wall time [min]:     0.107
 
 Constructing local fitting domains...
 Local fitting domains are unchanged.
 
 First step of Coulomb + first step of exchange...
 Exchange contribution is evaluated for MOs 1 to 38.
   2% done.
  15% done.
  27% done.
  41% done.
  56% done.
  67% done.
  79% done.
 100% done.
 CPU time [min]:     4.449                   Wall time [min]:     0.128
 
 Fitting and assembly step of exchange...
 CPU time [min]:     4.486                   Wall time [min]:     0.129
 
 Second step of Coulomb...
   2% done.
  15% done.
  27% done.
  41% done.
  56% done.
  67% done.
  79% done.
 100% done.
 CPU time [min]:     4.826                   Wall time [min]:     0.139
 
 Gradient norm:      1.4837E+01
 DIIS is running in this iteration step.
 RMS of [F,P]:                                         0.00008281411901
 RMS of difference density:                            0.00039384813518
 Gap [au]:  0.21195067
 ALPHA OCC:  38
 BETA  OCC:  38
 
 ***HARTREE-FOCK ENERGY IN STEP   4 IS       -784.7281148892257079 [AU]
 
 Step comparison  Energy Drift [au]  DIIS error drift  Gradient drift
        3            1.9780E-02         1.4797E-03       0.0000E+00
        4            1.5640E-02         1.0565E-03       0.0000E+00
 ======================================================================
 ITERATION STEP   5
 CPU time [min]:     4.869                   Wall time [min]:     0.140
 

 SCF control                  : diis
 Damping factor/level shift   : 0.000/0.000
 DIIS [start/end/frequency]   :   2 / 50 /  1

 Constructing Fock-matrix...
 
 Pipek-Mezey localization...
 Step  Convergence
   1  19.780345727377
   2   8.029754310328
   3   5.566028289736
   4   1.365466096101
   5   0.178704872106
   6   0.005028389149
   7   0.000126557572
   8   0.000006284688
   9   0.000000348325
  10   0.000000019609
  11   0.000000001127
  12   0.000000000068
  13   0.000000000004
  14   0.000000000000
 CPU time [min]:     4.899                   Wall time [min]:     0.141
 
 Constructing local fitting domains...
 Local fitting domains are unchanged.
 
 First step of Coulomb + first step of exchange...
 Exchange contribution is evaluated for MOs 1 to 38.
   2% done.
  15% done.
  27% done.
  41% done.
  56% done.
  67% done.
  79% done.
 100% done.
 CPU time [min]:     5.661                   Wall time [min]:     0.162
 
 Fitting and assembly step of exchange...
 CPU time [min]:     5.698                   Wall time [min]:     0.163
 
 Second step of Coulomb...
   2% done.
  15% done.
  27% done.
  41% done.
  56% done.
  67% done.
  79% done.
 100% done.
 CPU time [min]:     6.021                   Wall time [min]:     0.172
 
 Gradient norm:      1.4837E+01
 DIIS is running in this iteration step.
 RMS of [F,P]:                                         0.00005098308464
 RMS of difference density:                            0.00018503341102
 Gap [au]:  0.21210482
 ALPHA OCC:  38
 BETA  OCC:  38
 
 ***HARTREE-FOCK ENERGY IN STEP   5 IS       -784.7286377458672177 [AU]
 
 Step comparison  Energy Drift [au]  DIIS error drift  Gradient drift
        4            5.2286E-04         3.1831E-05       0.0000E+00
 ======================================================================
 ITERATION STEP   6
 CPU time [min]:     6.066                   Wall time [min]:     0.174
 

 SCF control                  : diis
 Damping factor/level shift   : 0.000/0.000
 DIIS [start/end/frequency]   :   2 / 50 /  1

 Constructing Fock-matrix...
 
 Pipek-Mezey localization...
 Step  Convergence
   1  12.889927478795
   2   7.263710334720
   3   6.747575362570
   4   2.016254373852
   5   0.481429821753
   6   0.007106448735
   7   0.000320776595
   8   0.000022079711
   9   0.000001694459
  10   0.000000138720
  11   0.000000011518
  12   0.000000000999
  13   0.000000000086
  14   0.000000000008
  15   0.000000000001
 CPU time [min]:     6.097                   Wall time [min]:     0.174
 
 Constructing local fitting domains...
 Local fitting domains are unchanged.
 
 First step of Coulomb + first step of exchange...
 Exchange contribution is evaluated for MOs 1 to 38.
   2% done.
  15% done.
  27% done.
  41% done.
  56% done.
  67% done.
  79% done.
 100% done.
 CPU time [min]:     6.860                   Wall time [min]:     0.196
 
 Fitting and assembly step of exchange...
 CPU time [min]:     6.897                   Wall time [min]:     0.197
 
 Second step of Coulomb...
   2% done.
  15% done.
  27% done.
  41% done.
  56% done.
  67% done.
  79% done.
 100% done.
 CPU time [min]:     7.221                   Wall time [min]:     0.206
 
 Gradient norm:      1.4837E+01
 DIIS is running in this iteration step.
 RMS of [F,P]:                                         0.00002664132739
 RMS of difference density:                            0.00009786946316
 Gap [au]:  0.21233002
 ALPHA OCC:  38
 BETA  OCC:  38
 
 ***HARTREE-FOCK ENERGY IN STEP   6 IS       -784.7287102535301528 [AU]
 
 Step comparison  Energy Drift [au]  DIIS error drift  Gradient drift
        5            7.2508E-05         2.4342E-05       0.0000E+00
 ======================================================================
 ITERATION STEP   7
 CPU time [min]:     7.267                   Wall time [min]:     0.207
 

 SCF control                  : diis
 Damping factor/level shift   : 0.000/0.000
 DIIS [start/end/frequency]   :   2 / 50 /  1

 Constructing Fock-matrix...
 
 Pipek-Mezey localization...
 Step  Convergence
   1  15.756901100304
   2   7.281842219609
   3   6.356704325598
   4   2.479940682481
   5   0.113755571994
   6   0.001584905774
   7   0.000065047436
   8   0.000002601316
   9   0.000000307350
  10   0.000000012704
  11   0.000000001510
  12   0.000000000067
  13   0.000000000007
  14   0.000000000000
 CPU time [min]:     7.297                   Wall time [min]:     0.208
 
 Constructing local fitting domains...
 Local fitting domains are unchanged.
 
 First step of Coulomb + first step of exchange...
 Exchange contribution is evaluated for MOs 1 to 38.
   2% done.
  15% done.
  27% done.
  41% done.
  56% done.
  67% done.
  79% done.
 100% done.
 CPU time [min]:     8.058                   Wall time [min]:     0.229
 
 Fitting and assembly step of exchange...
 CPU time [min]:     8.095                   Wall time [min]:     0.230
 
 Second step of Coulomb...
   2% done.
  15% done.
  27% done.
  41% done.
  56% done.
  67% done.
  79% done.
 100% done.
 CPU time [min]:     8.420                   Wall time [min]:     0.239
 
 Gradient norm:      1.4837E+01
 DIIS is running in this iteration step.
 RMS of [F,P]:                                         0.00000783081823
 RMS of difference density:                            0.00004947956031
 Gap [au]:  0.21257255
 ALPHA OCC:  38
 BETA  OCC:  38
 
 ***HARTREE-FOCK ENERGY IN STEP   7 IS       -784.7287308093955289 [AU]
 
 Step comparison  Energy Drift [au]  DIIS error drift  Gradient drift
        6            2.0556E-05         1.8811E-05       0.0000E+00
 ======================================================================
 ITERATION STEP   8
 CPU time [min]:     8.467                   Wall time [min]:     0.240
 

 SCF control                  : diis
 Damping factor/level shift   : 0.000/0.000
 DIIS [start/end/frequency]   :   2 / 50 /  1

 Constructing Fock-matrix...
 
 Pipek-Mezey localization...
 Step  Convergence
   1  19.507361651298
   2   6.941779748943
   3   6.242300936662
   4   2.667952400358
   5   0.185814069307
   6   0.445060102023
   7   0.000046590285
   8   0.000002694059
   9   0.000000167040
  10   0.000000009891
  11   0.000000000659
  12   0.000000000042
  13   0.000000000003
  14   0.000000000000
 CPU time [min]:     8.497                   Wall time [min]:     0.241
 
 Constructing local fitting domains...
 Local fitting domains are unchanged.
 
 First step of Coulomb + first step of exchange...
 Exchange contribution is evaluated for MOs 1 to 38.
   2% done.
  15% done.
  27% done.
  41% done.
  56% done.
  67% done.
  79% done.
 100% done.
 CPU time [min]:     9.260                   Wall time [min]:     0.263
 
 Fitting and assembly step of exchange...
 CPU time [min]:     9.296                   Wall time [min]:     0.264
 
 Second step of Coulomb...
   2% done.
  15% done.
  27% done.
  41% done.
  56% done.
  67% done.
  79% done.
 100% done.
 CPU time [min]:     9.621                   Wall time [min]:     0.273
 
 Gradient norm:      1.4837E+01
 DIIS is running in this iteration step.
 RMS of [F,P]:                                         0.00000387229054
 RMS of difference density:                            0.00001676352285
 Gap [au]:  0.21268998
 ALPHA OCC:  38
 BETA  OCC:  38
 
 ***HARTREE-FOCK ENERGY IN STEP   8 IS       -784.7287370991550688 [AU]
 
 Step comparison  Energy Drift [au]  DIIS error drift  Gradient drift
        7            6.2898E-06         3.9585E-06       0.0000E+00
 ======================================================================
 ITERATION STEP   9
 CPU time [min]:     9.669                   Wall time [min]:     0.274
 

 SCF control                  : diis
 Damping factor/level shift   : 0.000/0.000
 DIIS [start/end/frequency]   :   2 / 50 /  1

 Constructing Fock-matrix...
 
 Pipek-Mezey localization...
 Step  Convergence
   1  15.946774982265
   2   6.830723876310
   3   6.388549603730
   4   2.008423436362
   5   0.426591978654
   6   0.001816598383
   7   0.000068649148
   8   0.000003634097
   9   0.000000165919
  10   0.000000012088
  11   0.000000000566
  12   0.000000000045
  13   0.000000000002
  14   0.000000000000
 CPU time [min]:     9.699                   Wall time [min]:     0.275
 
 Constructing local fitting domains...
 Local fitting domains are unchanged.
 
 First step of Coulomb + first step of exchange...
 Exchange contribution is evaluated for MOs 1 to 38.
   2% done.
  15% done.
  27% done.
  41% done.
  56% done.
  67% done.
  79% done.
 100% done.
 CPU time [min]:    10.474                   Wall time [min]:     0.296
 
 Fitting and assembly step of exchange...
 CPU time [min]:    10.510                   Wall time [min]:     0.297
 
 Second step of Coulomb...
   2% done.
  15% done.
  27% done.
  41% done.
  56% done.
  67% done.
  79% done.
 100% done.
 CPU time [min]:    10.835                   Wall time [min]:     0.306
 
 Gradient norm:      1.4837E+01
 DIIS is running in this iteration step.
 RMS of [F,P]:                                         0.00000084985774
 RMS of difference density:                            0.00000999856559
 Gap [au]:  0.21270832
 ALPHA OCC:  38
 BETA  OCC:  38
 
 ***HARTREE-FOCK ENERGY IN STEP   9 IS       -784.7287389163536773 [AU]
 
 Step comparison  Energy Drift [au]  DIIS error drift  Gradient drift
        8            1.8172E-06         3.0224E-06       0.0000E+00
 ======================================================================
 ITERATION STEP  10
 CPU time [min]:    10.883                   Wall time [min]:     0.308
 

 SCF control                  : diis
 Damping factor/level shift   : 0.000/0.000
 DIIS [start/end/frequency]   :   2 / 50 /  1

 Constructing Fock-matrix...
 
 Pipek-Mezey localization...
 Step  Convergence
   1  18.751495574247
   2   6.997523957151
   3   5.659550095843
   4   3.313022451664
   5   0.685372870671
   6   0.016670191359
   7   0.000161040155
   8   0.000008778765
   9   0.000000630533
  10   0.000000024975
  11   0.000000001899
  12   0.000000000069
  13   0.000000000006
  14   0.000000000000
 CPU time [min]:    10.913                   Wall time [min]:     0.309
 
 Constructing local fitting domains...
 Local fitting domains are unchanged.
 
 First step of Coulomb + first step of exchange...
 Exchange contribution is evaluated for MOs 1 to 38.
   2% done.
  15% done.
  27% done.
  41% done.
  56% done.
  67% done.
  79% done.
 100% done.
 CPU time [min]:    11.674                   Wall time [min]:     0.330
 
 Fitting and assembly step of exchange...
 CPU time [min]:    11.711                   Wall time [min]:     0.331
 
 Second step of Coulomb...
   2% done.
  15% done.
  27% done.
  41% done.
  56% done.
  67% done.
  79% done.
 100% done.
 CPU time [min]:    12.035                   Wall time [min]:     0.340
 
 Gradient norm:      1.4837E+01
 DIIS is running in this iteration step.
 RMS of [F,P]:                                         0.00000030277907
 RMS of difference density:                            0.00000200016645
 Gap [au]:  0.21270690
 ALPHA OCC:  38
 BETA  OCC:  38
 
 ***HARTREE-FOCK ENERGY IN STEP  10 IS       -784.7287390297528873 [AU]
 
 Step comparison  Energy Drift [au]  DIIS error drift  Gradient drift
        9            1.1340E-07         5.4708E-07       0.0000E+00
 ======================================================================
 ITERATION STEP  11
 CPU time [min]:    12.082                   Wall time [min]:     0.341
 

 SCF control                  : diis
 Damping factor/level shift   : 0.000/0.000
 DIIS [start/end/frequency]   :   2 / 50 /  1

 Constructing Fock-matrix...
 
 Pipek-Mezey localization...
 Step  Convergence
   1  16.224715908180
   2   8.088139306053
   3   5.957595864802
   4   1.566206159276
   5   0.192306180426
   6   0.001621136680
   7   0.000059186568
   8   0.000002475023
   9   0.000000211707
  10   0.000000014337
  11   0.000000001430
  12   0.000000000127
  13   0.000000000012
  14   0.000000000001
  15   0.000000000000
 CPU time [min]:    12.113                   Wall time [min]:     0.342
 
 Constructing local fitting domains...
 Local fitting domains are unchanged.
 
 First step of Coulomb + first step of exchange...
 Exchange contribution is evaluated for MOs 1 to 38.
   2% done.
  15% done.
  27% done.
  41% done.
  56% done.
  67% done.
  79% done.
 100% done.
 CPU time [min]:    12.876                   Wall time [min]:     0.363
 
 Fitting and assembly step of exchange...
 CPU time [min]:    12.913                   Wall time [min]:     0.364
 
 Second step of Coulomb...
   2% done.
  15% done.
  27% done.
  41% done.
  56% done.
  67% done.
  79% done.
 100% done.
 CPU time [min]:    13.237                   Wall time [min]:     0.373
 
 Gradient norm:      1.4837E+01
 DIIS is running in this iteration step.
 RMS of [F,P]:                                         0.00000010577968
 RMS of difference density:                            0.00000062513846
 Gap [au]:  0.21270434
 ALPHA OCC:  38
 BETA  OCC:  38
 
 ***HARTREE-FOCK ENERGY IN STEP  11 IS       -784.7287390390292785 [AU]
 
 Step comparison  Energy Drift [au]  DIIS error drift  Gradient drift
       10            9.2764E-09         1.9700E-07       0.0000E+00
 ======================================================================
 ITERATION STEP  12
 CPU time [min]:    13.285                   Wall time [min]:     0.375
 

 SCF control                  : diis
 Damping factor/level shift   : 0.000/0.000
 DIIS [start/end/frequency]   :   2 / 50 /  1

 Constructing Fock-matrix...
 
 Pipek-Mezey localization...
 Step  Convergence
   1  17.840816458857
   2   8.726441473146
   3   7.836984225391
   4   3.408978308947
   5   1.859657990508
   6   0.096558435204
   7   0.000217857554
   8   0.000004338841
   9   0.000000213865
  10   0.000000013431
  11   0.000000000884
  12   0.000000000061
  13   0.000000000005
  14   0.000000000000
 CPU time [min]:    13.316                   Wall time [min]:     0.376
 
 Constructing local fitting domains...
 Local fitting domains are unchanged.
 
 First step of Coulomb + first step of exchange...
 Exchange contribution is evaluated for MOs 1 to 38.
   2% done.
  15% done.
  27% done.
  41% done.
  56% done.
  67% done.
  79% done.
 100% done.
 CPU time [min]:    14.093                   Wall time [min]:     0.397
 
 Fitting and assembly step of exchange...
 CPU time [min]:    14.129                   Wall time [min]:     0.398
 
 Second step of Coulomb...
   2% done.
  15% done.
  27% done.
  41% done.
  56% done.
  67% done.
  79% done.
 100% done.
 CPU time [min]:    14.453                   Wall time [min]:     0.407
 
 Gradient norm:      1.4837E+01
 DIIS is running in this iteration step.
 RMS of [F,P]:                                         0.00000002508489
 RMS of difference density:                            0.00000039050638
 Gap [au]:  0.21270349
 ALPHA OCC:  38
 BETA  OCC:  38
 
 ***HARTREE-FOCK ENERGY IN STEP  12 IS       -784.7287390400672393 [AU]
 
 Step comparison  Energy Drift [au]  DIIS error drift  Gradient drift
       11            1.0380E-09         8.0695E-08       0.0000E+00
 ======================================================================
 ITERATION STEP  13
 CPU time [min]:    14.503                   Wall time [min]:     0.409
 

 SCF control                  : diis
 Damping factor/level shift   : 0.000/0.000
 DIIS [start/end/frequency]   :   2 / 50 /  1

 Constructing Fock-matrix...
 
 Pipek-Mezey localization...
 Step  Convergence
   1  20.004374634522
   2   8.560938452167
   3   6.836535268284
   4   2.741772410126
   5   0.396384988370
   6   0.126473516784
   7   0.097742080976
   8   0.000368624172
   9   0.000001716738
  10   0.000000016352
  11   0.000000001095
  12   0.000000000112
  13   0.000000000007
  14   0.000000000000
 CPU time [min]:    14.533                   Wall time [min]:     0.410
 
 Constructing local fitting domains...
 Local fitting domains are unchanged.
 
 First step of Coulomb + first step of exchange...
 Exchange contribution is evaluated for MOs 1 to 38.
   2% done.
  15% done.
  27% done.
  41% done.
  56% done.
  67% done.
  79% done.
 100% done.
 CPU time [min]:    15.294                   Wall time [min]:     0.431
 
 Fitting and assembly step of exchange...
 CPU time [min]:    15.331                   Wall time [min]:     0.432
 
 Second step of Coulomb...
   2% done.
  15% done.
  27% done.
  41% done.
  56% done.
  67% done.
  79% done.
 100% done.
 CPU time [min]:    15.656                   Wall time [min]:     0.441
 
 Gradient norm:      1.4837E+01
 DIIS is running in this iteration step.
 RMS of [F,P]:                                         0.00000001187698
 RMS of difference density:                            0.00000008775427
 Gap [au]:  0.21270309
 ALPHA OCC:  38
 BETA  OCC:  38
 
 ***HARTREE-FOCK ENERGY IN STEP  13 IS       -784.7287390401593257 [AU]
 
 Step comparison  Energy Drift [au]  DIIS error drift  Gradient drift
       12            9.2086E-11         1.3208E-08       0.0000E+00
 ======================================================================
 
 SUCCESS...
 THE SCF ITERATION HAS CONVERGED!
 
                   A   
 FINAL ALPHA OCC:  38
 FINAL BETA  OCC:  38
 
 ***FINAL HARTREE-FOCK ENERGY:       -784.7287390401593257 [AU]
 
 Orbital energies [au]:
      Irrep         Alpha          Beta
    1   A         -5.220661      -5.220661
    2   A         -5.220296      -5.220296
    3   A         -5.219277      -5.219277
    4   A         -5.219251      -5.219251
    5   A         -3.427970      -3.427970
    6   A         -3.425599      -3.425599
    7   A         -3.421263      -3.421263
    8   A         -3.420727      -3.420727
    9   A         -3.420727      -3.420727
   10   A         -3.420674      -3.420674
   11   A         -3.420674      -3.420674
   12   A         -3.420262      -3.420262
   13   A         -3.420262      -3.420262
   14   A         -3.420123      -3.420123
   15   A         -3.420123      -3.420123
   16   A         -3.419713      -3.419713
   17   A         -0.526557      -0.526557
[...]
 
 CPU time [min]:   368.846                   Wall time [min]:    12.583
 
 MO:    36
 Number of atoms in domain:       4
 Number of atomic orbitals:     488
 Number of atoms for local DF:    4
 Number of fitting functions:  1444 (100.00%)
 Warning: drop high-lying PAOs                     4
 Number of occupied orbitals:    29
 Number of virtual  orbitals:   446
 Number of Cholesky vectors:      9
 MP2 energy in ED [au]:          -0.149460305001
 Number of occupied LNOs:        21  (72.41%)
 Number of virtual  LNOs:       103  (23.09%)
dropped smallnorm     2     3   9.08455734E-06
dropped smallnorm    13    15   3.38698103E-05
dropped smallnorm    13    16   2.77508742E-05
dropped smallnorm    13    17   2.77503119E-05
 tol*100>norm                    43  1.051629739012086E-003
 tol*100>norm                    44  1.911911448858789E-003
 tol*100>norm                    45  3.249786077891655E-003
 tol*100>norm                    46  1.911913799679715E-003
 tol*100>norm                    47  1.051629931831424E-003
dropped smallnorm   120   125   7.78808825E-06
dropped smallnorm   131   137   3.91288610E-05
dropped smallnorm   131   138   2.59782949E-05
dropped smallnorm   131   139   2.59776092E-05
 tol*100>norm                   165  1.001549249490087E-003
 tol*100>norm                   166  2.556652441668522E-003
 tol*100>norm                   167  4.213884964683548E-003
 tol*100>norm                   168  2.556869908806176E-003
 tol*100>norm                   169  1.001652058828503E-003
dropped smallnorm   238   247   8.06858627E-06
dropped smallnorm   249   259   4.29157055E-05
dropped smallnorm   249   260   2.61286078E-05
dropped smallnorm   249   261   2.61293789E-05
 tol*100>norm                   287  1.011893471093349E-003
 tol*100>norm                   288  2.811339530861679E-003
 tol*100>norm                   289  5.325842707859303E-003
 tol*100>norm                   290  2.811597824366781E-003
 tol*100>norm                   291  1.011935550913916E-003
 Number of Cholesky vectors:      8
 MP2 energy in LIS [au]:         -0.147953706248
 Correction for frozen LNO [au]: -0.001506598754     (1.008%)
 Number of NAFs:                410  (28.39%)
 CPU time [min]:   378.539                   Wall time [min]:    12.917
 

 Direct DF-CCSD(T) calculation
 
 Convergence criterion:  1.0E-05
 
 Number of occupied/virtual/auxiliary orbitals:    21   103   410
    245.19 MB is the minimal memory requirement for (T)
    149.93 MB is the minimal memory requirement for CCSD
 
 MP2 correlation energy [au]:       -1.385755067260
 
 LMP2 domain correlation energy contribution [au]:       -0.147947655985
 
 CPU time [min]:   378.714                   Wall time [min]:    12.921
 
 
 Starting CCSD iterations...
 
                     Residual norm       Correlation Energy
 Iteration  1        0.648039875869       -1.146699640761
 Iteration  2        0.344360030891       -1.234961520938
 Iteration  3        0.069663903588       -1.252266566481
 Iteration  4        0.038002076781       -1.249117140885
 Iteration  5        0.013741438673       -1.247256347315
 Iteration  6        0.007427716284       -1.247440603241
 Iteration  7        0.003723910821       -1.247828940194
 Iteration  8        0.002211417630       -1.247805584081
 Iteration  9        0.001439608808       -1.247733385121
 Iteration 10        0.000867805938       -1.247817618363
 Iteration 11        0.000518214489       -1.247815868639
 Iteration 12        0.000306533337       -1.247786993668
 Iteration 13        0.000174964604       -1.247791627373
 Iteration 14        0.000104076547       -1.247799362462
 Iteration 15        0.000060504111       -1.247794991867
 
 CCSD iteration has converged in 15 steps.
      565.29 MB memory was utilized by CCSD
 
 T1 diagnostic:      2.945E-02            D1 diagnostic:      1.264E-01
 
 T1 contribution [au]:                         0.000000000000
 CCSD correlation energy [au]:                -0.125796207143
 
 CPU time [min]:   386.222                   Wall time [min]:    13.136
 
 Calculation of (T) correction...
 
 Laplace threshold, nquadmin:  1.00E-02   3
 Number of quadrature points:    3
 
      399.32 MB memory is utilized for (T)

 0%       25%       50%       75%       100%
 |---------|---------|---------|---------| 
 
 (T) correction [au]:                   -0.006210695922
 CCSD(T) correlation energy [au]:       -0.132006903066
 
 CPU time [min]:   388.506                   Wall time [min]:    13.205
 
 MO:    37
 Number of atoms in domain:       4
 Number of atomic orbitals:     488
 Number of atoms for local DF:    4
 Number of fitting functions:  1444 (100.00%)
 Warning: drop high-lying PAOs                     4
 Number of occupied orbitals:    34
 Number of virtual  orbitals:   446
 Number of Cholesky vectors:      9
 MP2 energy in ED [au]:          -0.068494436983
 Number of occupied LNOs:        30  (88.24%)
 Number of virtual  LNOs:       160  (35.87%)
 tol*100>norm                    43  1.051629323348141E-003
 tol*100>norm                    44  1.917940732454331E-003
 tol*100>norm                    45  3.252618870128986E-003
 tol*100>norm                    46  1.917942619195115E-003
 tol*100>norm                    47  1.051629499214905E-003
dropped smallnorm   124   125   8.05611466E-06
dropped smallnorm   135   137   4.16506428E-05
dropped smallnorm   135   138   2.59972311E-05
dropped smallnorm   135   139   2.59962261E-05
 tol*100>norm                   165  1.001239193874428E-003
 tol*100>norm                   166  2.612070228893501E-003
 tol*100>norm                   167  5.105009116470224E-003
 tol*100>norm                   168  2.612320902123318E-003
 tol*100>norm                   169  1.001266200091072E-003
dropped smallnorm   242   247   7.78772125E-06
dropped smallnorm   253   259   3.91253048E-05
dropped smallnorm   253   260   2.59771497E-05
dropped smallnorm   253   261   2.59778358E-05
 tol*100>norm                   287  1.001255809658512E-003
 tol*100>norm                   288  2.556498594747536E-003
 tol*100>norm                   289  4.213454561416661E-003
 tol*100>norm                   290  2.556770381569365E-003
 tol*100>norm                   291  1.001315943333084E-003
dropped smallnorm   360   369   9.08420160E-06
dropped smallnorm   371   381   3.38698587E-05
dropped smallnorm   371   382   2.77508720E-05
dropped smallnorm   371   383   2.77503107E-05
 tol*100>norm                   409  1.051630556844997E-003
 tol*100>norm                   410  1.911796663643548E-003
 tol*100>norm                   411  3.249246096277267E-003
 tol*100>norm                   412  1.911798724185228E-003
 tol*100>norm                   413  1.051630875667735E-003
 Number of Cholesky vectors:      8
 MP2 energy in LIS [au]:         -0.067173247173
 Correction for frozen LNO [au]: -0.001321189810     (1.929%)
 Number of NAFs:                615  (42.59%)
 CPU time [min]:   400.705                   Wall time [min]:    13.637
 

 Direct DF-CCSD(T) calculation
 
 Convergence criterion:  1.0E-05
 
 Number of occupied/virtual/auxiliary orbitals:    30   160   615
    926.61 MB is the minimal memory requirement for (T)
    549.99 MB is the minimal memory requirement for CCSD
 
 MP2 correlation energy [au]:       -2.163964966233
 
 LMP2 domain correlation energy contribution [au]:       -0.067170319539
 
 CPU time [min]:   401.039                   Wall time [min]:    13.669
 
 
 Starting CCSD iterations...
 
                     Residual norm       Correlation Energy
 Iteration  1        0.795766004631       -1.715615891279
 Iteration  2        0.505504554791       -1.889259549547
 Iteration  3        0.075813671532       -1.912060120228
 Iteration  4        0.040561348208       -1.910638340845
 Iteration  5        0.017364930641       -1.907104625266
 Iteration  6        0.008184024822       -1.906896807819
 Iteration  7        0.005189134414       -1.907639251517
 Iteration  8        0.003126054865       -1.907554903344
 Iteration  9        0.002176895139       -1.907422244441
 Iteration 10        0.001490156771       -1.907517210330
 Iteration 11        0.000955610943       -1.907567222526
 Iteration 12        0.000595323002       -1.907530058917
 Iteration 13        0.000333181792       -1.907502313803
 Iteration 14        0.000196333158       -1.907515227904
 Iteration 15        0.000107906496       -1.907527122300
 Iteration 16        0.000067887243       -1.907521547287
 Iteration 17        0.000038622867       -1.907518544191
 
 CCSD iteration has converged in 17 steps.
     3014.63 MB memory was utilized by CCSD
 
 T1 diagnostic:      3.139E-02            D1 diagnostic:      8.843E-02
 
 T1 contribution [au]:                         0.000000000000
 CCSD correlation energy [au]:                -0.067777871360
 
 CPU time [min]:   445.629                   Wall time [min]:    15.317
 
 Calculation of (T) correction...
 
 Laplace threshold, nquadmin:  1.00E-02   3
 Number of quadrature points:    3
 
     1833.88 MB memory is utilized for (T)

 0%       25%       50%       75%       100%
 |---------|---------|---------|---------| 
 
 (T) correction [au]:                   -0.008021709694
 CCSD(T) correlation energy [au]:       -0.075799581053
 
 CPU time [min]:   468.845                   Wall time [min]:    16.025
 
 MO:    38
 Number of atoms in domain:       4
 Number of atomic orbitals:     488
 Number of atoms for local DF:    4
 Number of fitting functions:  1444 (100.00%)
 Warning: drop high-lying PAOs                     4
 Number of occupied orbitals:    34
 Number of virtual  orbitals:   446
 Number of Cholesky vectors:      9
 MP2 energy in ED [au]:          -0.068494441549
 Number of occupied LNOs:        30  (88.24%)
 Number of virtual  LNOs:       160  (35.87%)
dropped smallnorm     2     3   9.08418458E-06
dropped smallnorm    13    15   3.38698085E-05
dropped smallnorm    13    16   2.77508239E-05
dropped smallnorm    13    17   2.77502624E-05
 tol*100>norm                    43  1.051629525856596E-003
 tol*100>norm                    44  1.911794861067680E-003
 tol*100>norm                    45  3.249243280844859E-003
 tol*100>norm                    46  1.911796741205856E-003
 tol*100>norm                    47  1.051629712260544E-003
dropped smallnorm   120   125   7.78783186E-06
dropped smallnorm   131   137   3.91256694E-05
dropped smallnorm   131   138   2.59781597E-05
dropped smallnorm   131   139   2.59774699E-05
 tol*100>norm                   165  1.001272541820210E-003
 tol*100>norm                   166  2.556523168841573E-003
 tol*100>norm                   167  4.213473371659733E-003
 tol*100>norm                   168  2.556773776117020E-003
 tol*100>norm                   169  1.001315676116103E-003
dropped smallnorm   238   247   8.05600184E-06
dropped smallnorm   249   259   4.16502780E-05
dropped smallnorm   249   260   2.59960233E-05
dropped smallnorm   249   261   2.59967855E-05
 tol*100>norm                   287  1.001225621849665E-003
 tol*100>norm                   288  2.612045455990237E-003
 tol*100>norm                   289  5.104990349232584E-003
 tol*100>norm                   290  2.612317712205612E-003
 tol*100>norm                   291  1.001263307938192E-003
 tol*100>norm                   409  1.051630356965973E-003
 tol*100>norm                   410  1.917942553049988E-003
 tol*100>norm                   411  3.252621670312594E-003
 tol*100>norm                   412  1.917944562090542E-003
 tol*100>norm                   413  1.051630660076683E-003
 Number of Cholesky vectors:      8
 MP2 energy in LIS [au]:         -0.067173251789
 Correction for frozen LNO [au]: -0.001321189760     (1.929%)
 Number of NAFs:                615  (42.59%)
 CPU time [min]:   481.027                   Wall time [min]:    16.457
 

 Direct DF-CCSD(T) calculation
 
 Convergence criterion:  1.0E-05
 
 Number of occupied/virtual/auxiliary orbitals:    30   160   615
    926.61 MB is the minimal memory requirement for (T)
    549.99 MB is the minimal memory requirement for CCSD
 
 MP2 correlation energy [au]:       -2.163964986715
 
 LMP2 domain correlation energy contribution [au]:       -0.067170323622
 
 CPU time [min]:   481.393                   Wall time [min]:    16.491
 
 
 Starting CCSD iterations...
 
                     Residual norm       Correlation Energy
 Iteration  1        0.795767101831       -1.715615564747
 Iteration  2        0.505505958711       -1.889259316127
 Iteration  3        0.075813770116       -1.912059901031
 Iteration  4        0.040561407309       -1.910638139714
 Iteration  5        0.017364990007       -1.907104420924
 Iteration  6        0.008184047028       -1.906896600666
 Iteration  7        0.005189152529       -1.907639044439
 Iteration  8        0.003126064265       -1.907554696689
 Iteration  9        0.002176899844       -1.907422038215
 Iteration 10        0.001490159018       -1.907517003753
 Iteration 11        0.000955613114       -1.907567015997
 Iteration 12        0.000595324780       -1.907529852663
 Iteration 13        0.000333183550       -1.907502107478
 Iteration 14        0.000196334337       -1.907515021562
 Iteration 15        0.000107907406       -1.907526915928
 Iteration 16        0.000067888230       -1.907521340907
 Iteration 17        0.000038623792       -1.907518337801
 
 CCSD iteration has converged in 17 steps.
     3014.63 MB memory was utilized by CCSD
 
 T1 diagnostic:      3.139E-02            D1 diagnostic:      8.843E-02
 
 T1 contribution [au]:                         0.000000000000
 CCSD correlation energy [au]:                -0.067777875006
 
 CPU time [min]:   526.079                   Wall time [min]:    18.146
 
 Calculation of (T) correction...
 
 Laplace threshold, nquadmin:  1.00E-02   3
 Number of quadrature points:    3
 
     1833.88 MB memory is utilized for (T)

 0%       25%       50%       75%       100%
 |---------|---------|---------|---------| 
 
 (T) correction [au]:                   -0.008021711837
 CCSD(T) correlation energy [au]:       -0.075799586843
 
 CPU time [min]:   549.274                   Wall time [min]:    18.853
 
 **********************************************************************
 Dimensions of the extended domains:    Minimum / Average / Maximum
 
 Number of atoms in domain:                   4       4.0         4
 Number of atomic orbitals:                 488     488.0       488
 Number of fitting functions:              1444    1444.0      1444
 Number of occupied localized MOs:           13      19.9        34
 Number of PAOs:                            446     446.0       446
 Number of occupied LNOs:                    10      14.8        30
 Number of virtual  LNOs:                    58      80.3       160
 Number of NAFs:                            235     316.1       615
 
 **********************************************************************
 Distant (and weak) pair contributions, corrections
 
 Sum of pair energies [au]:                    -0.000451243069    (0.011%)
 Sum of energy corrections [au]:               -0.052115181214    (1.221%)
 Pair energies + LNO corrections [au]:         -0.052566424283
 Sum of LMP2 contributions [au]:               -4.267881680129
 
 **********************************************************************
  Time of manipulations in the EDs:      max CPU/Wall [s]  all CPU/Wall [min]
 
 PD construction & multipole pair E     168.53     5.01     2.81     0.08
 Construct MO basis of the ED             6.33     0.18     2.81     0.08
 (mu,nu|P) evaluation & trf 2 (ai|P)    162.96     4.54    75.50     2.10
 Evaluate MP2 energy of the ED           16.48     0.46     6.21     0.17
 Transformations to the LNO basis        10.11     0.28     3.80     0.11
 Build W_PQ (Jai or Jpi part)             1.42     0.04     0.61     0.02
 Evaluate MP2 energy of the LIS           1.29     0.04     0.20     0.01
 (mu,nu|P) evaluation & trf 2 J(abQ)    514.44    19.78   200.75     8.02
 Total of the above for all EDs         713.02    25.32   289.88    10.51
 
 **********************************************************************
 Maximum memory requirement [MB]:       
 
 PD construction & multipole pair E         19.5
 AO integral evaluation in the EDs        6191.0
 (mu,nu|P) evaluation & trf 2 (aI|P)      6953.6
 Evaluate MP2 energy in the EDs            455.3
 Transformation to the LNO basis           242.1
 (mu,nu|P) to Jab transformation          6356.0
 Evaluate MP2 energy in the LIS            268.6
 Minimum requirement for LIS CCSD          550.0
 Actually allocated  for LIS CCSD         3014.6
 Minimum requirement for LIS (T)           926.7
 Actually allocated  for LIS (T)          1833.9
 
 ======================================================================
 ======================================================================
 
 
 
 ======================================================================
 ======================================================================
 
 Final local CC results:
 
 Minimum number of correlated electrons:        20       ( 26.3%)
 Maximum number of correlated electrons:        60       ( 78.9%)
 Average number of correlated electrons:        29.6     ( 38.9%)
 Minimum number of correlated orbitals:         68       ( 13.9%)
 Maximum number of correlated orbitals:        190       ( 38.9%)
 Average number of correlated orbitals:         95.1     ( 19.5%)
 
 CPU time for integral calculations [min]:                  8.485
 Wall time for integral calculations [min]:                 0.421
 
 CPU time for SCF calculation [min]:                       15.867
 Wall time for SCF calculation [min]:                       0.464
 
 CPU time for orbital localization [min]:                   0.217
 Wall time for orbital localization [min]:                  0.025
 
 CPU time for integral transformations [min]:             299.031
 Wall time for integral transformations [min]:             10.778
 
 Reference energy [au]:                                  -784.728739040159
 
 LMP2 correlation energy [au]:                             -4.267881680129
 Total LMP2 energy [au]:                                 -788.996620720289
 
 Total MP2 correction for dropped NAFs [au]:               -0.000152115673
 Total MP2 correction [au]:                                -0.052718539956
 
 CPU time for CCSD calculations [min]:                    176.677
 Total CPU time for CCSD [min]:                           500.277
 Wall time for CCSD calculations [min]:                     5.849
 Total wall time for CCSD [min]:                           17.537
 
 CCSD correlation energy [au]:                             -3.741111961571
 Total CCSD energy [au]:                                 -788.469851001730
 CCSD correlation energy + 0.5 MP2 corrections [au]:       -3.767471231549
 Total LNO-CCSD energy with MP2 corrections [au]:        -788.496210271708
 
 CPU time for (T) corrections [min]:                       73.575
 Total CPU time for CCSD(T) [min]:                        573.852
 Wall time for (T) corrections [min]:                       2.226
 Total wall time for CCSD(T) [min]:                        19.764
 
 Total (T) correlation energy contribution [au]:           -0.148940018888
 Total (T) correlation energy+0.5 MP2 correction [au]:     -0.175299288866
 CCSD(T) correlation energy [au]:                          -3.890051980458
 Total CCSD(T) energy [au]:                              -788.618791020617
 CCSD(T) correlation energy + MP2 corrections [au]:        -3.942770520414
 Total LNO-CCSD(T) energy with MP2 corrections [au]:     -788.671509560574
 
 ======================================================================
 ======================================================================
 
 ************************ 2023-02-26 19:13:06 *************************
                      Normal termination of mrcc.
 **********************************************************************
