 vasp.6.4.0 14Feb23 (build Jul 14 2023 13:46:40) complex                        
  
 executed on             LinuxIFC date 2023.07.16  13:48:52
 running   64 mpi-ranks, with    1 threads/rank, on    2 nodes
 distrk:  each k-point on   64 cores,    1 groups
 distr:  one band on NCORE=   1 cores,   64 groups


--------------------------------------------------------------------------------------------------------


 INCAR:
   SYSTEM = MgO-rocksalt
   ISMEAR = 0
   SIGMA = 0.05
   EDIFF = 1E-6
   ALGO = ALL
   ISTART = 0
   IBRION = -1
   NSW = 0
   ISYM = 2
   GGA = RE
   IVDW = 11
   ENCUT = 520
   PREC = Accurate
   LASPH = .TRUE.
   LREAL = Auto
   ISPIN = 1
   NELM = 200
   NELMIN = 8
   NCORE = 1
   KPAR = 1
   LWAVE = .FALSE.
   LCHARG = .FALSE.

 POTCAR:    PAW_PBE Cu 22Jun2005                  
 POTCAR:    PAW_PBE Cu 22Jun2005                  
   SHA256 =  0e71e558f37a4e8407882b4609ceaae59938afaad9ced71dfe8490308a0ab630 Cu/POTCAR             
   COPYR  = (c) Copyright 22Jun2005 Georg Kresse                                                    
   COPYR  = This file is part of the software VASP. Any use, copying, and all other rights are regul
   COPYR  = If you do not have a valid VASP license, you may not use, copy or distribute this file. 
   VRHFIN =Cu: d10 p1                                                                               
   LEXCH  = PE                                                                                      
   EATOM  =  1390.9808 eV,  102.2342 Ry                                                             
                                                                                                    
   TITEL  = PAW_PBE Cu 22Jun2005                                                                    
   LULTRA =        F    use ultrasoft PP ?                                                          
   IUNSCR =        1    unscreen: 0-lin 1-nonlin 2-no                                               
   RPACOR =    2.000    partial core radius                                                         
   POMASS =   63.546; ZVAL   =   11.000    mass and valenz                                          
   RCORE  =    2.300    outmost cutoff radius                                                       
   RWIGS  =    2.200; RWIGS  =    1.164    wigner-seitz radius (au A)                               
   ENMAX  =  295.446; ENMIN  =  221.585 eV                                                          
   ICORE  =        3    local potential                                                             
   LCOR   =        T    correct aug charges                                                         
   LPAW   =        T    paw PP                                                                      
   EAUG   =  586.980                                                                                
   DEXC   =    0.000                                                                                
   RMAX   =    2.344    core radius for proj-oper                                                   
   RAUG   =    1.300    factor for augmentation sphere                                              
   RDEP   =    2.302    radius for radial grids                                                     
   RDEPT  =    1.771    core radius for aug-charge                                                  
                                                                                                    
   Atomic configuration                                                                             
    9 entries                                                                                       
     n  l   j            E        occ.                                                              
     1  0  0.50     -8850.2468   2.0000                                                             
     2  0  0.50     -1062.3498   2.0000                                                             
     2  1  1.50      -916.8226   6.0000                                                             
     3  0  0.50      -114.6929   2.0000                                                             
     3  1  1.50       -72.1325   6.0000                                                             
     3  2  2.50        -5.0394  10.0000                                                             
     4  0  0.50        -4.6097   1.0000                                                             
     4  1  0.50        -4.0817   0.0000                                                             
     4  3  2.50        -1.3606   0.0000                                                             
   Description                                                                                      
     l       E           TYP  RCUT    TYP  RCUT                                                     
     2     -5.0393973     23  2.200                                                                 
     2     10.8846608     23  2.200                                                                 
     0     -4.6097109     23  2.200                                                                 
     0      8.2520465     23  2.200                                                                 
     1     -2.7211652     23  2.200                                                                 
     1     21.7055443     23  2.200                                                                 
     3      2.7211652     23  2.300                                                                 
  local pseudopotential read in
  partial core-charges read in
  partial kinetic energy density read in
  atomic valenz-charges read in
  non local Contribution for L=           2  read in
    real space projection operators read in
  non local Contribution for L=           2  read in
    real space projection operators read in
  non local Contribution for L=           0  read in
    real space projection operators read in
  non local Contribution for L=           0  read in
    real space projection operators read in
  non local Contribution for L=           1  read in
    real space projection operators read in
  non local Contribution for L=           1  read in
    real space projection operators read in
    PAW grid and wavefunctions read in
 
   number of l-projection  operators is LMAX  =           6
   number of lm-projection operators is LMMAX =          18
 
 -----------------------------------------------------------------------------
|                                                                             |
|               ----> ADVICE to this user running VASP <----                  |
|                                                                             |
|     You have a (more or less) 'small supercell' and for smaller cells       |
|     it is recommended to use the reciprocal-space projection scheme!        |
|     The real-space optimization is not efficient for small cells and it     |
|     is also less accurate ...                                               |
|     Therefore, set LREAL=.FALSE. in the INCAR file.                         |
|                                                                             |
 -----------------------------------------------------------------------------

 Optimization of the real space projectors (new method)

 maximal supplied QI-value         = 16.25
 optimisation between [QCUT,QGAM] = [ 11.54, 23.24] = [ 37.28,151.24] Ry 
 Optimized for a Real-space Cutoff    1.53 Angstroem

   l    n(q)    QCUT    max X(q) W(low)/X(q) W(high)/X(q)  e(spline) 
   2     10    11.539     4.610    0.96E-04    0.13E-03    0.19E-06
   2     10    11.539     8.522    0.16E-03    0.21E-03    0.28E-06
   0     11    11.539    51.609    0.45E-04    0.31E-04    0.11E-06
   0     11    11.539    27.747    0.39E-04    0.29E-04    0.10E-06
   1     10    11.539    20.408    0.70E-05    0.38E-04    0.18E-06
   1     10    11.539    13.425    0.66E-05    0.34E-04    0.17E-06
 -----------------------------------------------------------------------------
|                                                                             |
|               ----> ADVICE to this user running VASP <----                  |
|                                                                             |
|     You enforced a specific xc type in the INCAR file but a different       |
|     type was found in the POTCAR file.                                      |
|     I HOPE YOU KNOW WHAT YOU ARE DOING!                                     |
|                                                                             |
 -----------------------------------------------------------------------------

  PAW_PBE Cu 22Jun2005                  :
 energy of atom  1       EATOM=-1390.9808
 kinetic energy error for atom=    0.0037 (will be added to EATOM!!)
 
 
 POSCAR: Cu
  positions in direct lattice
  velocities in cartesian coordinates
 exchange correlation table for  LEXCH =       40
   RHO(1)=    0.500       N(1)  =     2000
   RHO(2)=  100.500       N(2)  =     4000
 


--------------------------------------------------------------------------------------------------------


 ion  position               nearest neighbor table
   1  0.406  0.500  0.513-   6 2.32   2 2.42   5 2.42
   2  0.472  0.588  0.462-   6 2.32   1 2.42   3 2.42
   3  0.588  0.555  0.465-   6 2.32   4 2.42   2 2.42
   4  0.594  0.446  0.518-   6 2.32   3 2.42   5 2.42
   5  0.482  0.412  0.547-   6 2.32   1 2.42   4 2.42
   6  0.503  0.476  0.453-   4 2.32   3 2.32   2 2.32   1 2.32   5 2.32
 
  LATTYP: Found a simple cubic cell.
 ALAT       =    20.0000000000
  
  Lattice vectors:
  
 A1 = (  20.0000000000,   0.0000000000,   0.0000000000)
 A2 = (   0.0000000000,  20.0000000000,   0.0000000000)
 A3 = (   0.0000000000,   0.0000000000,  20.0000000000)


Analysis of symmetry for initial positions (statically):
=====================================================================
 Subroutine PRICEL returns:
 Original cell was already a primitive cell.
 

 Routine SETGRP: Setting up the symmetry group for a 
 simple cubic supercell.


 Subroutine GETGRP returns: Found  1 space group operations
 (whereof  1 operations were pure point group operations)
 out of a pool of 48 trial point group operations.


The static configuration has the point symmetry C_1 .


Analysis of symmetry for dynamics (positions and initial velocities):
=====================================================================
 Subroutine PRICEL returns:
 Original cell was already a primitive cell.
 

 Routine SETGRP: Setting up the symmetry group for a 
 simple cubic supercell.


 Subroutine GETGRP returns: Found  1 space group operations
 (whereof  1 operations were pure point group operations)
 out of a pool of 48 trial point group operations.


The dynamic configuration has the point symmetry C_1 .


 Subroutine INISYM returns: Found  1 space group operations
 (whereof  1 operations are pure point group operations),
 and found     1 'primitive' translations


----------------------------------------------------------------------------------------

                                     Primitive cell                                     

  volume of cell :    8000.0000

  direct lattice vectors                    reciprocal lattice vectors
    20.000000000  0.000000000  0.000000000     0.050000000  0.000000000  0.000000000
     0.000000000 20.000000000  0.000000000     0.000000000  0.050000000  0.000000000
     0.000000000  0.000000000 20.000000000     0.000000000  0.000000000  0.050000000

  length of vectors
    20.000000000 20.000000000 20.000000000     0.050000000  0.050000000  0.050000000

  position of ions in fractional coordinates (direct lattice)
     0.405864885  0.499792820  0.512818480
     0.471543603  0.587963665  0.461783868
     0.588043671  0.554508022  0.464813523
     0.594240613  0.445740599  0.518004839
     0.481644225  0.411733022  0.547396217
     0.502838989  0.476457830  0.453320812

  ion indices of the primitive-cell ions
   primitive index   ion index
                 1           1
                 2           2
                 3           3
                 4           4
                 5           5
                 6           6

----------------------------------------------------------------------------------------

 
 
 KPOINTS: KPOINTS created by Atomic Simulation Env

Automatic generation of k-mesh.
 Grid dimensions read from file:
 generate k-points for:    1    1    1

 Generating k-lattice:

  Cartesian coordinates                     Fractional coordinates (reciprocal lattice)
     0.050000000  0.000000000  0.000000000     1.000000000  0.000000000  0.000000000
     0.000000000  0.050000000  0.000000000     0.000000000  1.000000000  0.000000000
     0.000000000  0.000000000  0.050000000     0.000000000  0.000000000  1.000000000

  Length of vectors
     0.050000000  0.050000000  0.050000000

  Shift w.r.t. Gamma in fractional coordinates (k-lattice)
     0.000000000  0.000000000  0.000000000

 
 Subroutine IBZKPT returns following result:
 ===========================================
 
 Found      1 irreducible k-points:
 
 Following reciprocal coordinates:
            Coordinates               Weight
  0.000000  0.000000  0.000000      1.000000
 
 Following cartesian coordinates:
            Coordinates               Weight
  0.000000  0.000000  0.000000      1.000000
 


--------------------------------------------------------------------------------------------------------




 Dimension of arrays:
   k-points           NKPTS =      1   k-points in BZ     NKDIM =      1   number of bands    NBANDS=     64
   number of dos      NEDOS =    301   number of ions     NIONS =      6
   non local maximal  LDIM  =      6   non local SUM 2l+1 LMDIM =     18
   total plane-waves  NPLWV = ******
   max r-space proj   IRMAX =   6426   max aug-charges    IRDMAX=  12418
   dimension x,y,z NGX =   150 NGY =  150 NGZ =  150
   dimension x,y,z NGXF=   300 NGYF=  300 NGZF=  300
   support grid    NGXF=   300 NGYF=  300 NGZF=  300
   ions per type =               6
   NGX,Y,Z   is equivalent  to a cutoff of  12.47, 12.47, 12.47 a.u.
   NGXF,Y,Z  is equivalent  to a cutoff of  24.94, 24.94, 24.94 a.u.

 SYSTEM =  MgO-rocksalt                            
 POSCAR =  Cu                                      

 Startparameter for this run:
   NWRITE =      2    write-flag & timer
   PREC   = accura    normal or accurate (medium, high low for compatibility)
   ISTART =      0    job   : 0-new  1-cont  2-samecut
   ICHARG =      2    charge: 1-file 2-atom 10-const
   ISPIN  =      1    spin polarized calculation?
   LNONCOLLINEAR =      F non collinear calculations
   LSORBIT =      F    spin-orbit coupling
   INIWAV =      1    electr: 0-lowe 1-rand  2-diag
   LASPH  =      T    aspherical Exc in radial PAW
 Electronic Relaxation 1
   ENCUT  =  520.0 eV  38.22 Ry    6.18 a.u.  37.19 37.19 37.19*2*pi/ulx,y,z
   ENINI  =  520.0     initial cutoff
   ENAUG  =  587.0 eV  augmentation charge cutoff
   NELM   =    200;   NELMIN=  8; NELMDL= -5     # of ELM steps 
   EDIFF  = 0.1E-05   stopping-criterion for ELM
   LREAL  =      T    real-space projection
   NLSPLINE    = F    spline interpolate recip. space projectors
   LCOMPAT=      F    compatible to vasp.4.4
   GGA_COMPAT  = T    GGA compatible to vasp.4.4-vasp.4.6
   LMAXPAW     = -100 max onsite density
   LMAXMIX     =    2 max onsite mixed and CHGCAR
   VOSKOWN=      0    Vosko Wilk Nusair interpolation
   ROPT   =   -0.00025
 Ionic relaxation
   EDIFFG = 0.1E-04   stopping-criterion for IOM
   NSW    =      0    number of steps for IOM
   NBLOCK =      1;   KBLOCK =      1    inner block; outer block 
   IBRION =     -1    ionic relax: 0-MD 1-quasi-New 2-CG
   NFREE  =      0    steps in history (QN), initial steepest desc. (CG)
   ISIF   =      2    stress and relaxation
   IWAVPR =     10    prediction:  0-non 1-charg 2-wave 3-comb
   ISYM   =      2    0-nonsym 1-usesym 2-fastsym
   LCORR  =      T    Harris-Foulkes like correction to forces

   POTIM  = 0.5000    time-step for ionic-motion
   TEIN   =    0.0    initial temperature
   TEBEG  =    0.0;   TEEND  =   0.0 temperature during run
   SMASS  =  -3.00    Nose mass-parameter (am)
   estimated Nose-frequenzy (Omega)   =  0.10E-29 period in steps = 0.13E+47 mass=  -0.914E-26a.u.
   SCALEE = 1.0000    scale energy and forces
   NPACO  =    256;   APACO  = 10.0  distance and # of slots for P.C.
   PSTRESS=    0.0 pullay stress

  Mass of Ions in am
   POMASS =  63.55
  Ionic Valenz
   ZVAL   =  11.00
  Atomic Wigner-Seitz radii
   RWIGS  =  -1.00
  virtual crystal weights 
   VCA    =   1.00
   NELECT =      66.0000    total number of electrons
   NUPDOWN=      -1.0000    fix difference up-down

 DOS related values:
   EMIN   =  10.00;   EMAX   =-10.00  energy-range for DOS
   EFERMI =   0.00;   METHOD = LEGACY      
   ISMEAR =     0;   SIGMA  =   0.05  broadening in eV -4-tet -1-fermi 0-gaus

 Electronic relaxation 2 (details)
   IALGO  =     58    algorithm
   LDIAG  =      T    sub-space diagonalisation (order eigenvalues)
   LSUBROT=      F    optimize rotation matrix (better conditioning)
   TURBO    =      0    0=normal 1=particle mesh
   IRESTART =      0    0=no restart 2=restart with 2 vectors
   NREBOOT  =      0    no. of reboots
   NMIN     =      0    reboot dimension
   EREF     =   0.00    reference energy to select bands
   IMIX   =      4    mixing-type and parameters
     AMIX     =   0.40;   BMIX     =  1.00
     AMIX_MAG =   1.60;   BMIX_MAG =  1.00
     AMIN     =   0.10
     WC   =   100.;   INIMIX=   1;  MIXPRE=   1;  MAXMIX= -45

 Intra band minimization:
   WEIMIN = 0.0000     energy-eigenvalue tresh-hold
   EBREAK =  0.39E-08  absolut break condition
   DEPER  =   0.30     relativ break condition  

   TIME   =   0.40     timestep for ELM

  volume/ion in A,a.u.               =    1333.33      8997.78
  Fermi-wavevector in a.u.,A,eV,Ry     =   0.330795  0.625113  1.488826  0.109426
  Thomas-Fermi vector in A             =   1.226404
 
 Write flags
   LWAVE        =      F    write WAVECAR
   LDOWNSAMPLE  =      F    k-point downsampling of WAVECAR
   LCHARG       =      F    write CHGCAR
   LVTOT        =      F    write LOCPOT, total local potential
   LVHAR        =      F    write LOCPOT, Hartree potential only
   LELF         =      F    write electronic localiz. function (ELF)
   LORBIT       =      0    0 simple, 1 ext, 2 COOP (PROOUT), +10 PAW based schemes


 Dipole corrections
   LMONO  =      F    monopole corrections only (constant potential shift)
   LDIPOL =      F    correct potential (dipole corrections)
   IDIPOL =      0    1-x, 2-y, 3-z, 4-all directions 
   EPSILON=  1.0000000 bulk dielectric constant

 Exchange correlation treatment:
   GGA     =    RE    GGA type
   LEXCH   =    40    internal setting for exchange type
   LIBXC   =     F    Libxc                    
   VOSKOWN =     0    Vosko Wilk Nusair interpolation
   LHFCALC =     F    Hartree Fock is set to
   LHFONE  =     F    Hartree Fock one center treatment
   AEXX    =    0.0000 exact exchange contribution

 Linear response parameters
   LEPSILON=     F    determine dielectric tensor
   LRPA    =     F    only Hartree local field effects (RPA)
   LNABLA  =     F    use nabla operator in PAW spheres
   LVEL    =     F    velocity operator in full k-point grid
   CSHIFT  =0.1000    complex shift for real part using Kramers Kronig
   OMEGAMAX=  -1.0    maximum frequency
   DEG_THRESHOLD= 0.2000000E-02 threshold for treating states as degnerate
   RTIME   =   -0.100 relaxation time in fs
  (WPLASMAI=    0.000 imaginary part of plasma frequency in eV, 0.658/RTIME)
   DFIELD  = 0.0000000 0.0000000 0.0000000 field for delta impulse in time
 
  Optional k-point grid parameters
   LKPOINTS_OPT  =     F    use optional k-point grid
   KPOINTS_OPT_MODE=     1    mode for optional k-point grid
 
 Orbital magnetization related:
   ORBITALMAG=     F  switch on orbital magnetization
   LCHIMAG   =     F  perturbation theory with respect to B field
   DQ        =  0.001000  dq finite difference perturbation B field
   LLRAUG    =     F  two centre corrections for induced B field
   LBONE     =     F  B-component reconstruction in AE one-centre
   LVGVCALC  =     T  calculate vGv susceptibility
   LVGVAPPL  =     F  apply vGv susceptibility instead of pGv for G=0

 Random number generation:
   RANDOM_GENERATOR = DEFAULT
   PCG_SEED         = not used


--------------------------------------------------------------------------------------------------------


 Static calculation
 charge density and potential will be updated during run
 non-spin polarized calculation
 Conjugate gradient for all bands (Freysoldt, et al. PRB 79, 241103 (2009))
 preconditioned conjugated gradient                                        
 perform sub-space diagonalisation
    before iterative eigenvector-optimisation
 modified Broyden-mixing scheme, WC =      100.0
 initial mixing is a Kerker type mixing with AMIX =  0.4000 and BMIX =      1.0000
 Hartree-type preconditioning will be used
 using additional bands           31
 real space projection scheme for non local part
 use partial core corrections
 no Harris-corrections to forces 
 use gradient corrections 
 use of overlap-Matrix (Vanderbilt PP)
 Gauss-broadening in eV      SIGMA  =   0.05


--------------------------------------------------------------------------------------------------------


  energy-cutoff  :      520.00
  volume of cell :     8000.00
      direct lattice vectors                 reciprocal lattice vectors
    20.000000000  0.000000000  0.000000000     0.050000000  0.000000000  0.000000000
     0.000000000 20.000000000  0.000000000     0.000000000  0.050000000  0.000000000
     0.000000000  0.000000000 20.000000000     0.000000000  0.000000000  0.050000000

  length of vectors
    20.000000000 20.000000000 20.000000000     0.050000000  0.050000000  0.050000000


 
 k-points in units of 2pi/SCALE and weight: KPOINTS created by Atomic Simulation Env
   0.00000000  0.00000000  0.00000000       1.000
 
 k-points in reciprocal lattice and weights: KPOINTS created by Atomic Simulation Env
   0.00000000  0.00000000  0.00000000       1.000
 
 position of ions in fractional coordinates (direct lattice) 
   0.40586489  0.49979282  0.51281848
   0.47154360  0.58796366  0.46178387
   0.58804367  0.55450802  0.46481352
   0.59424061  0.44574060  0.51800484
   0.48164423  0.41173302  0.54739622
   0.50283899  0.47645783  0.45332081
 
 position of ions in cartesian coordinates  (Angst):
   8.11729770  9.99585641 10.25636960
   9.43087206 11.75927329  9.23567736
  11.76087341 11.09016044  9.29627047
  11.88481226  8.91481199 10.36009678
   9.63288451  8.23466043 10.94792435
  10.05677977  9.52915661  9.06641624
 


--------------------------------------------------------------------------------------------------------


 k-point   1 :   0.0000 0.0000 0.0000  plane waves:  215503

 maximum and minimum number of plane-waves per node :    215503   215503

 maximum number of plane-waves:    215503
 maximum index in each direction: 
   IXMAX=   37   IYMAX=   37   IZMAX=   37
   IXMIN=  -37   IYMIN=  -37   IZMIN=  -37


 serial   3D FFT for wavefunctions
 parallel 3D FFT for charge:
    minimum data exchange during FFTs selected (reduces bandwidth)


 total amount of memory used by VASP MPI-rank0   232754. kBytes
=======================================================================

   base      :      30000. kBytes
   nonlr-proj:       6534. kBytes
   fftplans  :      28721. kBytes
   grid      :     157056. kBytes
   one-center:         93. kBytes
   wavefun   :      10350. kBytes
 
     INWAV:  cpu time      0.0003: real time      0.0005
 Broyden mixing: mesh for mixing (old mesh)
   NGX = 75   NGY = 75   NGZ = 75
  (NGX  =300   NGY  =300   NGZ  =300)
  gives a total of 421875 points

 initial charge density was supplied:
 charge density of overlapping atoms calculated
 number of electron      66.0000000 magnetization 
 keeping initial charge density in first step


--------------------------------------------------------------------------------------------------------


 Maximum index for non-local projection operator         6192
 Maximum index for augmentation-charges          505 (set IRDMAX)


--------------------------------------------------------------------------------------------------------


 First call to EWALD:  gamma=   0.089
 Maximum number of real-space cells 3x 3x 3
 Maximum number of reciprocal cells 3x 3x 3

    FEWALD:  cpu time      0.0067: real time      0.0076


--------------------------------------- Ionic step        1  -------------------------------------------




--------------------------------------- Iteration      1(   1)  ---------------------------------------


    POTLOK:  cpu time      1.0100: real time      1.0139
    SETDIJ:  cpu time      0.7541: real time      0.7548
    TRIAL :  cpu time      1.5188: real time      1.5850
    CORREC:  cpu time      0.0014: real time      0.0014
    --------------------------------------------
      LOOP:  cpu time      3.2904: real time      3.3625

 eigenvalue-minimisations  :   128
 total energy-change (2. order) : 0.3882673E+03  (-0.1305328E+04)
 number of electron      66.0000000 magnetization 
 augmentation part       66.0000000 magnetization 

 Free energy of the ion-electron system (eV)
  ---------------------------------------------------
  alpha Z        PSCENC =         3.29097617
  Ewald energy   TEWEN  =      5176.54465828
  -Hartree energ DENC   =    -12784.61905773
  -exchange      EXHF   =         0.00000000
  -V(xc)+E(xc)   XCENC  =       264.33908900
  PAW double counting   =      7372.84152338    -8002.15338828
  entropy T*S    EENTRO =        -0.10126419
  eigenvalues    EBANDS =        17.90646146
  atomic energy  EATOM  =      8340.21827745
  ---------------------------------------------------
  free energy    TOTEN  =       388.26727554 eV

  energy without entropy =      388.36853972  energy(sigma->0) =      388.31790763


--------------------------------------------------------------------------------------------------------




--------------------------------------- Iteration      1(   2)  ---------------------------------------


    TRIAL :  cpu time      1.4023: real time      1.4029
    CORREC:  cpu time      0.0010: real time      0.0010
    --------------------------------------------
      LOOP:  cpu time      1.4196: real time      1.4205

 eigenvalue-minimisations  :   128
 total energy-change (2. order) :-0.3448225E+03  (-0.3444975E+03)
 number of electron      66.0000000 magnetization 
 augmentation part       66.0000000 magnetization 

 Free energy of the ion-electron system (eV)
  ---------------------------------------------------
  alpha Z        PSCENC =         3.29097617
  Ewald energy   TEWEN  =      5176.54465828
  -Hartree energ DENC   =    -12784.61905773
  -exchange      EXHF   =         0.00000000
  -V(xc)+E(xc)   XCENC  =       264.33908900
  PAW double counting   =      7372.84152338    -8002.15338828
  entropy T*S    EENTRO =        -0.02856255
  eigenvalues    EBANDS =      -326.98877968
  atomic energy  EATOM  =      8340.21827745
  ---------------------------------------------------
  free energy    TOTEN  =        43.44473604 eV

  energy without entropy =       43.47329859  energy(sigma->0) =       43.45901731


--------------------------------------------------------------------------------------------------------




--------------------------------------- Iteration      1(   3)  ---------------------------------------


    TRIAL :  cpu time      1.3580: real time      1.3590
    CORREC:  cpu time      0.0004: real time      0.0004
    --------------------------------------------
      LOOP:  cpu time      1.3598: real time      1.3749

 eigenvalue-minimisations  :   128
 total energy-change (2. order) :-0.5338672E+02  (-0.5311513E+02)
 number of electron      66.0000000 magnetization 
 augmentation part       66.0000000 magnetization 

 Free energy of the ion-electron system (eV)
  ---------------------------------------------------
  alpha Z        PSCENC =         3.29097617
  Ewald energy   TEWEN  =      5176.54465828
  -Hartree energ DENC   =    -12784.61905773
  -exchange      EXHF   =         0.00000000
  -V(xc)+E(xc)   XCENC  =       264.33908900
  PAW double counting   =      7372.84152338    -8002.15338828
  entropy T*S    EENTRO =        -0.00000000
  eigenvalues    EBANDS =      -380.40406579
  atomic energy  EATOM  =      8340.21827745
  ---------------------------------------------------
  free energy    TOTEN  =        -9.94198752 eV

  energy without entropy =       -9.94198752  energy(sigma->0) =       -9.94198752


--------------------------------------------------------------------------------------------------------




--------------------------------------- Iteration      1(   4)  ---------------------------------------


    TRIAL :  cpu time      1.3630: real time      1.3631
    CORREC:  cpu time      0.0005: real time      0.0005
    --------------------------------------------
      LOOP:  cpu time      1.3787: real time      1.3791

 eigenvalue-minimisations  :   128
 total energy-change (2. order) :-0.3549075E+01  (-0.3549075E+01)
 number of electron      66.0000000 magnetization 
 augmentation part       66.0000000 magnetization 

 Free energy of the ion-electron system (eV)
  ---------------------------------------------------
  alpha Z        PSCENC =         3.29097617
  Ewald energy   TEWEN  =      5176.54465828
  -Hartree energ DENC   =    -12784.61905773
  -exchange      EXHF   =         0.00000000
  -V(xc)+E(xc)   XCENC  =       264.33908900
  PAW double counting   =      7372.84152338    -8002.15338828
  entropy T*S    EENTRO =        -0.00000000
  eigenvalues    EBANDS =      -383.95314072
  atomic energy  EATOM  =      8340.21827745
  ---------------------------------------------------
  free energy    TOTEN  =       -13.49106245 eV

  energy without entropy =      -13.49106245  energy(sigma->0) =      -13.49106245


--------------------------------------------------------------------------------------------------------




--------------------------------------- Iteration      1(   5)  ---------------------------------------


    TRIAL :  cpu time      2.6072: real time      2.6097
    CORREC:  cpu time      0.0004: real time      0.0004
    CHARGE:  cpu time      0.4564: real time      0.4575
    --------------------------------------------
      LOOP:  cpu time      3.0656: real time      3.0839

 eigenvalue-minimisations  :   256
 total energy-change (2. order) :-0.9474303E-01  (-0.9474303E-01)
 number of electron      65.9999973 magnetization 
 augmentation part       41.3544188 magnetization 

 Free energy of the ion-electron system (eV)
  ---------------------------------------------------
  alpha Z        PSCENC =         3.29097617
  Ewald energy   TEWEN  =      5176.54465828
  -Hartree energ DENC   =    -12784.61905773
  -exchange      EXHF   =         0.00000000
  -V(xc)+E(xc)   XCENC  =       264.33908900
  PAW double counting   =      7372.84152338    -8002.15338828
  entropy T*S    EENTRO =        -0.00000000
  eigenvalues    EBANDS =      -384.04788375
  atomic energy  EATOM  =      8340.21827745
  ---------------------------------------------------
  free energy    TOTEN  =       -13.58580549 eV

  energy without entropy =      -13.58580549  energy(sigma->0) =      -13.58580549


--------------------------------------------------------------------------------------------------------




--------------------------------------- Iteration      1(   6)  ---------------------------------------


    POTLOK:  cpu time      0.9512: real time      0.9578
    SETDIJ:  cpu time      0.7362: real time      0.7360
    TRIAL :  cpu time      0.9721: real time      1.0263
    CORREC:  cpu time      2.3733: real time      2.3735
    CHARGE:  cpu time      0.4106: real time      0.4113
    --------------------------------------------
      LOOP:  cpu time      5.4458: real time      5.5210

 eigenvalue-minimisations  :     0
 total energy-change (2. order) : 0.6087961E+01  (-0.3193215E+01)
 number of electron      65.9999973 magnetization 
 augmentation part       42.5497698 magnetization 

 Free energy of the ion-electron system (eV)
  ---------------------------------------------------
  alpha Z        PSCENC =         3.29097617
  Ewald energy   TEWEN  =      5176.54465828
  -Hartree energ DENC   =    -12714.66710091
  -exchange      EXHF   =         0.00000000
  -V(xc)+E(xc)   XCENC  =       256.29142230
  PAW double counting   =      7639.81364798    -8241.35741115
  entropy T*S    EENTRO =        -0.00000000
  eigenvalues    EBANDS =      -467.63231502
  atomic energy  EATOM  =      8340.21827745
  ---------------------------------------------------
  free energy    TOTEN  =        -7.49784490 eV

  energy without entropy =       -7.49784490  energy(sigma->0) =       -7.49784490


--------------------------------------------------------------------------------------------------------




--------------------------------------- Iteration      1(   7)  ---------------------------------------


    POTLOK:  cpu time      0.9822: real time      0.9825
    SETDIJ:  cpu time      0.7338: real time      0.7343
    TRIAL :  cpu time      0.8302: real time      0.8304
    CORREC:  cpu time      2.3505: real time      2.3508
    CHARGE:  cpu time      0.3946: real time      0.3950
    --------------------------------------------
      LOOP:  cpu time      5.3086: real time      5.3105

 eigenvalue-minimisations  :     0
 total energy-change (2. order) :-0.3005258E+01  (-0.7988974E+00)
 number of electron      65.9999973 magnetization 
 augmentation part       42.3860955 magnetization 

 Free energy of the ion-electron system (eV)
  ---------------------------------------------------
  alpha Z        PSCENC =         3.29097617
  Ewald energy   TEWEN  =      5176.54465828
  -Hartree energ DENC   =    -12849.64663136
  -exchange      EXHF   =         0.00000000
  -V(xc)+E(xc)   XCENC  =       262.24861367
  PAW double counting   =      7719.87228541    -8366.02949279
  entropy T*S    EENTRO =        -0.00000000
  eigenvalues    EBANDS =      -297.00178983
  atomic energy  EATOM  =      8340.21827745
  ---------------------------------------------------
  free energy    TOTEN  =       -10.50310300 eV

  energy without entropy =      -10.50310300  energy(sigma->0) =      -10.50310300


--------------------------------------------------------------------------------------------------------




--------------------------------------- Iteration      1(   8)  ---------------------------------------


    POTLOK:  cpu time      0.9676: real time      0.9679
    SETDIJ:  cpu time      0.7357: real time      0.7355
    TRIAL :  cpu time      0.8385: real time      0.8388
    CORREC:  cpu time      2.3482: real time      2.3492
    CHARGE:  cpu time      0.4209: real time      0.4206
    --------------------------------------------
      LOOP:  cpu time      5.3130: real time      5.3278

 eigenvalue-minimisations  :     0
 total energy-change (2. order) :-0.7988914E+00  (-0.1805890E+00)
 number of electron      65.9999973 magnetization 
 augmentation part       42.5747673 magnetization 

 Free energy of the ion-electron system (eV)
  ---------------------------------------------------
  alpha Z        PSCENC =         3.29097617
  Ewald energy   TEWEN  =      5176.54465828
  -Hartree energ DENC   =    -12765.16300859
  -exchange      EXHF   =         0.00000000
  -V(xc)+E(xc)   XCENC  =       260.89874531
  PAW double counting   =      7676.59500250    -8313.12197720
  entropy T*S    EENTRO =        -0.00000000
  eigenvalues    EBANDS =      -390.56466837
  atomic energy  EATOM  =      8340.21827745
  ---------------------------------------------------
  free energy    TOTEN  =       -11.30199445 eV

  energy without entropy =      -11.30199445  energy(sigma->0) =      -11.30199445


--------------------------------------------------------------------------------------------------------




--------------------------------------- Iteration      1(   9)  ---------------------------------------


    POTLOK:  cpu time      0.9658: real time      0.9661
    SETDIJ:  cpu time      0.7346: real time      0.7345
    TRIAL :  cpu time      0.8381: real time      0.8382
    CORREC:  cpu time      2.3242: real time      2.3255
    CHARGE:  cpu time      0.3992: real time      0.3990
    --------------------------------------------
      LOOP:  cpu time      5.2646: real time      5.2798

 eigenvalue-minimisations  :     0
 total energy-change (2. order) :-0.1796665E+00  (-0.1082548E+00)
 number of electron      65.9999973 magnetization 
 augmentation part       42.5026566 magnetization 

 Free energy of the ion-electron system (eV)
  ---------------------------------------------------
  alpha Z        PSCENC =         3.29097617
  Ewald energy   TEWEN  =      5176.54465828
  -Hartree energ DENC   =    -12788.65783159
  -exchange      EXHF   =         0.00000000
  -V(xc)+E(xc)   XCENC  =       261.93263365
  PAW double counting   =      7698.68422311    -8341.16179044
  entropy T*S    EENTRO =        -0.00000000
  eigenvalues    EBANDS =      -362.33280760
  atomic energy  EATOM  =      8340.21827745
  ---------------------------------------------------
  free energy    TOTEN  =       -11.48166098 eV

  energy without entropy =      -11.48166098  energy(sigma->0) =      -11.48166098


--------------------------------------------------------------------------------------------------------




--------------------------------------- Iteration      1(  10)  ---------------------------------------


    POTLOK:  cpu time      0.9613: real time      0.9618
    SETDIJ:  cpu time      0.7341: real time      0.7347
    TRIAL :  cpu time      0.8298: real time      0.8301
    CORREC:  cpu time      2.3228: real time      2.3240
    CHARGE:  cpu time      0.3952: real time      0.3950
    --------------------------------------------
      LOOP:  cpu time      5.2454: real time      5.2616

 eigenvalue-minimisations  :     0
 total energy-change (2. order) :-0.1079799E+00  (-0.3977872E-01)
 number of electron      65.9999973 magnetization 
 augmentation part       42.4868796 magnetization 

 Free energy of the ion-electron system (eV)
  ---------------------------------------------------
  alpha Z        PSCENC =         3.29097617
  Ewald energy   TEWEN  =      5176.54465828
  -Hartree energ DENC   =    -12780.44169038
  -exchange      EXHF   =         0.00000000
  -V(xc)+E(xc)   XCENC  =       261.65171728
  PAW double counting   =      7701.55742388    -8340.02189518
  entropy T*S    EENTRO =        -0.00000000
  eigenvalues    EBANDS =      -374.38910839
  atomic energy  EATOM  =      8340.21827745
  ---------------------------------------------------
  free energy    TOTEN  =       -11.58964089 eV

  energy without entropy =      -11.58964089  energy(sigma->0) =      -11.58964089


--------------------------------------------------------------------------------------------------------




--------------------------------------- Iteration      1(  11)  ---------------------------------------


    POTLOK:  cpu time      0.9663: real time      0.9666
    SETDIJ:  cpu time      0.7348: real time      0.7354
    TRIAL :  cpu time      0.8366: real time      0.8366
    CORREC:  cpu time      2.3223: real time      2.3237
    CHARGE:  cpu time      0.3984: real time      0.3980
    --------------------------------------------
      LOOP:  cpu time      5.2612: real time      5.2770

 eigenvalue-minimisations  :     0
 total energy-change (2. order) :-0.3993578E-01  (-0.2959986E-01)
 number of electron      65.9999973 magnetization 
 augmentation part       42.5439117 magnetization 

 Free energy of the ion-electron system (eV)
  ---------------------------------------------------
  alpha Z        PSCENC =         3.29097617
  Ewald energy   TEWEN  =      5176.54465828
  -Hartree energ DENC   =    -12780.64596514
  -exchange      EXHF   =         0.00000000
  -V(xc)+E(xc)   XCENC  =       261.60076558
  PAW double counting   =      7701.81301806    -8338.70284982
  entropy T*S    EENTRO =        -0.00000000
  eigenvalues    EBANDS =      -375.74845724
  atomic energy  EATOM  =      8340.21827745
  ---------------------------------------------------
  free energy    TOTEN  =       -11.62957668 eV

  energy without entropy =      -11.62957668  energy(sigma->0) =      -11.62957668


--------------------------------------------------------------------------------------------------------




--------------------------------------- Iteration      1(  12)  ---------------------------------------


    POTLOK:  cpu time      0.9650: real time      0.9654
    SETDIJ:  cpu time      0.7333: real time      0.7338
    TRIAL :  cpu time      0.8303: real time      0.8306
    CORREC:  cpu time      2.3156: real time      2.3161
    CHARGE:  cpu time      0.3931: real time      0.3937
    --------------------------------------------
      LOOP:  cpu time      5.2402: real time      5.2564

 eigenvalue-minimisations  :     0
 total energy-change (2. order) :-0.2953631E-01  (-0.7311484E-02)
 number of electron      65.9999973 magnetization 
 augmentation part       42.5180923 magnetization 

 Free energy of the ion-electron system (eV)
  ---------------------------------------------------
  alpha Z        PSCENC =         3.29097617
  Ewald energy   TEWEN  =      5176.54465828
  -Hartree energ DENC   =    -12787.80274578
  -exchange      EXHF   =         0.00000000
  -V(xc)+E(xc)   XCENC  =       261.90906638
  PAW double counting   =      7705.63136960    -8343.94728528
  entropy T*S    EENTRO =        -0.00000000
  eigenvalues    EBANDS =      -367.50342978
  atomic energy  EATOM  =      8340.21827745
  ---------------------------------------------------
  free energy    TOTEN  =       -11.65911298 eV

  energy without entropy =      -11.65911298  energy(sigma->0) =      -11.65911298


--------------------------------------------------------------------------------------------------------




--------------------------------------- Iteration      1(  13)  ---------------------------------------


    POTLOK:  cpu time      0.9579: real time      0.9579
    SETDIJ:  cpu time      0.7338: real time      0.7344
    TRIAL :  cpu time      0.8360: real time      0.8364
    CORREC:  cpu time      2.2840: real time      2.2842
    CHARGE:  cpu time      0.3979: real time      0.3983
    --------------------------------------------
      LOOP:  cpu time      5.2124: real time      5.2296

 eigenvalue-minimisations  :     0
 total energy-change (2. order) :-0.7308836E-02  (-0.3541879E-02)
 number of electron      65.9999973 magnetization 
 augmentation part       42.5427521 magnetization 

 Free energy of the ion-electron system (eV)
  ---------------------------------------------------
  alpha Z        PSCENC =         3.29097617
  Ewald energy   TEWEN  =      5176.54465828
  -Hartree energ DENC   =    -12781.94481460
  -exchange      EXHF   =         0.00000000
  -V(xc)+E(xc)   XCENC  =       261.72709867
  PAW double counting   =      7700.21085543    -8337.34996487
  entropy T*S    EENTRO =        -0.00000000
  eigenvalues    EBANDS =      -374.36350835
  atomic energy  EATOM  =      8340.21827745
  ---------------------------------------------------
  free energy    TOTEN  =       -11.66642182 eV

  energy without entropy =      -11.66642182  energy(sigma->0) =      -11.66642182


--------------------------------------------------------------------------------------------------------




--------------------------------------- Iteration      1(  14)  ---------------------------------------


    POTLOK:  cpu time      0.9125: real time      0.9129
    SETDIJ:  cpu time      0.7335: real time      0.7339
    TRIAL :  cpu time      0.8335: real time      0.8338
    CORREC:  cpu time      2.2633: real time      2.2639
    CHARGE:  cpu time      0.3921: real time      0.3919
    --------------------------------------------
      LOOP:  cpu time      5.1374: real time      5.1529

 eigenvalue-minimisations  :     0
 total energy-change (2. order) :-0.3536740E-02  (-0.7002048E-03)
 number of electron      65.9999973 magnetization 
 augmentation part       42.5418642 magnetization 

 Free energy of the ion-electron system (eV)
  ---------------------------------------------------
  alpha Z        PSCENC =         3.29097617
  Ewald energy   TEWEN  =      5176.54465828
  -Hartree energ DENC   =    -12783.77356399
  -exchange      EXHF   =         0.00000000
  -V(xc)+E(xc)   XCENC  =       261.83059589
  PAW double counting   =      7700.47280510    -8338.52426998
  entropy T*S    EENTRO =        -0.00000000
  eigenvalues    EBANDS =      -371.72943747
  atomic energy  EATOM  =      8340.21827745
  ---------------------------------------------------
  free energy    TOTEN  =       -11.66995856 eV

  energy without entropy =      -11.66995856  energy(sigma->0) =      -11.66995856


--------------------------------------------------------------------------------------------------------




--------------------------------------- Iteration      1(  15)  ---------------------------------------


    POTLOK:  cpu time      0.8996: real time      0.9000
    SETDIJ:  cpu time      0.7327: real time      0.7332
    TRIAL :  cpu time      0.8336: real time      0.8338
    CORREC:  cpu time      2.2519: real time      2.2532
    CHARGE:  cpu time      0.3983: real time      0.3981
    --------------------------------------------
      LOOP:  cpu time      5.1183: real time      5.1345

 eigenvalue-minimisations  :     0
 total energy-change (2. order) :-0.7002402E-03  (-0.3480067E-03)
 number of electron      65.9999973 magnetization 
 augmentation part       42.5402903 magnetization 

 Free energy of the ion-electron system (eV)
  ---------------------------------------------------
  alpha Z        PSCENC =         3.29097617
  Ewald energy   TEWEN  =      5176.54465828
  -Hartree energ DENC   =    -12783.76752048
  -exchange      EXHF   =         0.00000000
  -V(xc)+E(xc)   XCENC  =       261.82228009
  PAW double counting   =      7700.55733555    -8338.57438158
  entropy T*S    EENTRO =        -0.00000000
  eigenvalues    EBANDS =      -371.76228426
  atomic energy  EATOM  =      8340.21827745
  ---------------------------------------------------
  free energy    TOTEN  =       -11.67065880 eV

  energy without entropy =      -11.67065880  energy(sigma->0) =      -11.67065880


--------------------------------------------------------------------------------------------------------




--------------------------------------- Iteration      1(  16)  ---------------------------------------


    POTLOK:  cpu time      0.8875: real time      0.8879
    SETDIJ:  cpu time      0.7414: real time      0.7420
    TRIAL :  cpu time      0.8370: real time      0.8372
    CORREC:  cpu time      2.2372: real time      2.2376
    CHARGE:  cpu time      0.3929: real time      0.3934
    --------------------------------------------
      LOOP:  cpu time      5.0979: real time      5.1141

 eigenvalue-minimisations  :     0
 total energy-change (2. order) :-0.3479417E-03  (-0.1222791E-03)
 number of electron      65.9999973 magnetization 
 augmentation part       42.5441412 magnetization 

 Free energy of the ion-electron system (eV)
  ---------------------------------------------------
  alpha Z        PSCENC =         3.29097617
  Ewald energy   TEWEN  =      5176.54465828
  -Hartree energ DENC   =    -12783.55019165
  -exchange      EXHF   =         0.00000000
  -V(xc)+E(xc)   XCENC  =       261.81422583
  PAW double counting   =      7700.72899595    -8338.68179097
  entropy T*S    EENTRO =        -0.00000000
  eigenvalues    EBANDS =      -372.03615779
  atomic energy  EATOM  =      8340.21827745
  ---------------------------------------------------
  free energy    TOTEN  =       -11.67100674 eV

  energy without entropy =      -11.67100674  energy(sigma->0) =      -11.67100674


--------------------------------------------------------------------------------------------------------




--------------------------------------- Iteration      1(  17)  ---------------------------------------


    POTLOK:  cpu time      0.8818: real time      0.8819
    SETDIJ:  cpu time      0.7348: real time      0.7354
    TRIAL :  cpu time      0.8337: real time      0.8339
    CORREC:  cpu time      2.2516: real time      2.2522
    CHARGE:  cpu time      0.3967: real time      0.3970
    --------------------------------------------
      LOOP:  cpu time      5.1009: real time      5.1164

 eigenvalue-minimisations  :     0
 total energy-change (2. order) :-0.1227333E-03  (-0.4329948E-04)
 number of electron      65.9999973 magnetization 
 augmentation part       42.5411516 magnetization 

 Free energy of the ion-electron system (eV)
  ---------------------------------------------------
  alpha Z        PSCENC =         3.29097617
  Ewald energy   TEWEN  =      5176.54465828
  -Hartree energ DENC   =    -12784.05257842
  -exchange      EXHF   =         0.00000000
  -V(xc)+E(xc)   XCENC  =       261.83478120
  PAW double counting   =      7701.30101842    -8339.38118297
  entropy T*S    EENTRO =        -0.00000000
  eigenvalues    EBANDS =      -371.42707959
  atomic energy  EATOM  =      8340.21827745
  ---------------------------------------------------
  free energy    TOTEN  =       -11.67112947 eV

  energy without entropy =      -11.67112947  energy(sigma->0) =      -11.67112947


--------------------------------------------------------------------------------------------------------




--------------------------------------- Iteration      1(  18)  ---------------------------------------


    POTLOK:  cpu time      0.8771: real time      0.8774
    SETDIJ:  cpu time      0.7342: real time      0.7340
    TRIAL :  cpu time      0.8305: real time      0.8308
    CORREC:  cpu time      2.2433: real time      2.2446
    CHARGE:  cpu time      0.3936: real time      0.3933
    --------------------------------------------
      LOOP:  cpu time      5.0948: real time      5.0964

 eigenvalue-minimisations  :     0
 total energy-change (2. order) :-0.4340017E-04  (-0.1711000E-04)
 number of electron      65.9999973 magnetization 
 augmentation part       42.5423376 magnetization 

 Free energy of the ion-electron system (eV)
  ---------------------------------------------------
  alpha Z        PSCENC =         3.29097617
  Ewald energy   TEWEN  =      5176.54465828
  -Hartree energ DENC   =    -12783.64633395
  -exchange      EXHF   =         0.00000000
  -V(xc)+E(xc)   XCENC  =       261.81990618
  PAW double counting   =      7701.24149801    -8339.19557392
  entropy T*S    EENTRO =        -0.00000000
  eigenvalues    EBANDS =      -371.94458108
  atomic energy  EATOM  =      8340.21827745
  ---------------------------------------------------
  free energy    TOTEN  =       -11.67117287 eV

  energy without entropy =      -11.67117287  energy(sigma->0) =      -11.67117287


--------------------------------------------------------------------------------------------------------




--------------------------------------- Iteration      1(  19)  ---------------------------------------


    POTLOK:  cpu time      0.8774: real time      0.8777
    SETDIJ:  cpu time      0.7330: real time      0.7335
    TRIAL :  cpu time      0.8349: real time      0.8352
    CORREC:  cpu time      2.2398: real time      2.2402
    CHARGE:  cpu time      0.3958: real time      0.3960
    --------------------------------------------
      LOOP:  cpu time      5.0838: real time      5.1033

 eigenvalue-minimisations  :     0
 total energy-change (2. order) :-0.1713478E-04  (-0.4767454E-05)
 number of electron      65.9999973 magnetization 
 augmentation part       42.5415434 magnetization 

 Free energy of the ion-electron system (eV)
  ---------------------------------------------------
  alpha Z        PSCENC =         3.29097617
  Ewald energy   TEWEN  =      5176.54465828
  -Hartree energ DENC   =    -12783.95507705
  -exchange      EXHF   =         0.00000000
  -V(xc)+E(xc)   XCENC  =       261.82777841
  PAW double counting   =      7701.60026156    -8339.60074562
  entropy T*S    EENTRO =        -0.00000000
  eigenvalues    EBANDS =      -371.59731920
  atomic energy  EATOM  =      8340.21827745
  ---------------------------------------------------
  free energy    TOTEN  =       -11.67119001 eV

  energy without entropy =      -11.67119001  energy(sigma->0) =      -11.67119001


--------------------------------------------------------------------------------------------------------




--------------------------------------- Iteration      1(  20)  ---------------------------------------


    POTLOK:  cpu time      0.8880: real time      0.8885
    SETDIJ:  cpu time      0.7330: real time      0.7335
    TRIAL :  cpu time      0.8344: real time      0.8343
    CORREC:  cpu time      2.2481: real time      2.2474
    CHARGE:  cpu time      0.3936: real time      0.3939
    --------------------------------------------
      LOOP:  cpu time      5.0998: real time      5.1142

 eigenvalue-minimisations  :     0
 total energy-change (2. order) :-0.4828838E-05  (-0.2982073E-05)
 number of electron      65.9999973 magnetization 
 augmentation part       42.5415948 magnetization 

 Free energy of the ion-electron system (eV)
  ---------------------------------------------------
  alpha Z        PSCENC =         3.29097617
  Ewald energy   TEWEN  =      5176.54465828
  -Hartree energ DENC   =    -12783.86221032
  -exchange      EXHF   =         0.00000000
  -V(xc)+E(xc)   XCENC  =       261.82390649
  PAW double counting   =      7701.61638626    -8339.58738462
  entropy T*S    EENTRO =        -0.00000000
  eigenvalues    EBANDS =      -371.71580455
  atomic energy  EATOM  =      8340.21827745
  ---------------------------------------------------
  free energy    TOTEN  =       -11.67119484 eV

  energy without entropy =      -11.67119484  energy(sigma->0) =      -11.67119484


--------------------------------------------------------------------------------------------------------




--------------------------------------- Iteration      1(  21)  ---------------------------------------


    POTLOK:  cpu time      0.8819: real time      0.8825
    SETDIJ:  cpu time      0.7353: real time      0.7352
    TRIAL :  cpu time      0.8313: real time      0.8314
    CORREC:  cpu time      2.2364: real time      2.2375
    CHARGE:  cpu time      0.3987: real time      0.3987
    --------------------------------------------
      LOOP:  cpu time      5.0868: real time      5.1020

 eigenvalue-minimisations  :     0
 total energy-change (2. order) :-0.2967521E-05  (-0.6867771E-06)
 number of electron      65.9999973 magnetization 
 augmentation part       42.5418084 magnetization 

 Free energy of the ion-electron system (eV)
  ---------------------------------------------------
  alpha Z        PSCENC =         3.29097617
  Ewald energy   TEWEN  =      5176.54465828
  -Hartree energ DENC   =    -12783.85149732
  -exchange      EXHF   =         0.00000000
  -V(xc)+E(xc)   XCENC  =       261.82379166
  PAW double counting   =      7701.66066235    -8339.63527520
  entropy T*S    EENTRO =        -0.00000000
  eigenvalues    EBANDS =      -371.72279120
  atomic energy  EATOM  =      8340.21827745
  ---------------------------------------------------
  free energy    TOTEN  =       -11.67119780 eV

  energy without entropy =      -11.67119780  energy(sigma->0) =      -11.67119780


--------------------------------------------------------------------------------------------------------




--------------------------------------- Iteration      1(  22)  ---------------------------------------


    POTLOK:  cpu time      0.8866: real time      0.8868
    SETDIJ:  cpu time      0.7332: real time      0.7338
    TRIAL :  cpu time      0.8309: real time      0.8311
    CORREC:  cpu time      2.2414: real time      2.2419
    EDDIAG:  cpu time      0.3550: real time      0.3558
    CHARGE:  cpu time      0.4115: real time      0.4112
    --------------------------------------------
      LOOP:  cpu time      5.4608: real time      5.4769

 eigenvalue-minimisations  :     0
 total energy-change (2. order) :-0.6698301E-06  (-0.6115392E-06)
 number of electron      65.9999973 magnetization 
 augmentation part       42.5415288 magnetization 

 Free energy of the ion-electron system (eV)
  ---------------------------------------------------
  alpha Z        PSCENC =         3.29097617
  Ewald energy   TEWEN  =      5176.54465828
  -Hartree energ DENC   =    -12783.86663044
  -exchange      EXHF   =         0.00000000
  -V(xc)+E(xc)   XCENC  =       261.82478727
  PAW double counting   =      7701.68912883    -8339.67265865
  entropy T*S    EENTRO =        -0.00000000
  eigenvalues    EBANDS =      -371.69973738
  atomic energy  EATOM  =      8340.21827745
  ---------------------------------------------------
  free energy    TOTEN  =       -11.67119847 eV

  energy without entropy =      -11.67119847  energy(sigma->0) =      -11.67119847


--------------------------------------------------------------------------------------------------------


  average scaling for gradient   1.2635


 average (electrostatic) potential at core
  the test charge radii are     0.9430
  (the norm of the test charge is              1.0000)
       1 -74.0565       2 -74.0566       3 -74.0574       4 -74.0561       5 -74.0574
       6 -74.6784
 
 
 
 E-fermi :  -4.2787     XC(G=0):  -0.3563     alpha+bet : -0.1189

 Fermi energy:        -4.2787100920

 k-point     1 :       0.0000    0.0000    0.0000
  band No.  band energies     occupation 
      1      -8.5565      2.00000
      2      -7.0972      2.00000
      3      -7.0964      2.00000
      4      -6.9272      2.00000
      5      -6.9271      2.00000
      6      -6.6130      2.00000
      7      -6.3604      2.00000
      8      -6.0195      2.00000
      9      -6.0183      2.00000
     10      -5.8979      2.00000
     11      -5.8972      2.00000
     12      -5.6848      2.00000
     13      -5.6838      2.00000
     14      -5.5906      2.00000
     15      -5.5897      2.00000
     16      -5.5323      2.00000
     17      -5.2922      2.00000
     18      -5.2897      2.00000
     19      -5.2079      2.00000
     20      -5.1493      2.00000
     21      -5.1487      2.00000
     22      -5.1273      2.00000
     23      -5.1271      2.00000
     24      -4.9807      2.00000
     25      -4.9802      2.00000
     26      -4.9727      2.00000
     27      -4.9725      2.00000
     28      -4.8647      2.00000
     29      -4.7540      2.00000
     30      -4.7538      2.00000
     31      -4.6862      2.00000
     32      -4.5321      2.00000
     33      -4.5310      2.00000
     34      -2.9854      0.00000
     35      -2.5630      0.00000
     36      -2.5625      0.00000
     37      -1.8782      0.00000
     38      -0.9010      0.00000
     39      -0.9007      0.00000
     40      -0.1655      0.00000
     41      -0.1586      0.00000
     42      -0.0630      0.00000
     43      -0.0211      0.00000
     44      -0.0194      0.00000
     45       0.1857      0.00000
     46       0.3446      0.00000
     47       0.3726      0.00000
     48       0.4296      0.00000
     49       0.5139      0.00000
     50       0.5303      0.00000
     51       0.5760      0.00000
     52       0.6244      0.00000
     53       0.6980      0.00000
     54       0.7403      0.00000
     55       0.7471      0.00000
     56       0.7545      0.00000
     57       0.7686      0.00000
     58       0.7890      0.00000
     59       0.7965      0.00000
     60       0.8399      0.00000
     61       0.9493      0.00000
     62       0.9603      0.00000
     63       1.0352      0.00000
     64       1.0593      0.00000


--------------------------------------------------------------------------------------------------------


 soft charge-density along one line, spin component           1
         0         1         2         3         4         5         6         7         8         9
 total charge-density along one line
 
 pseudopotential strength for first ion, spin component:           1
-10.292   0.031  -0.015   0.002   0.002   0.838  -0.023   0.012
  0.031 -10.276   0.000   0.017  -0.006  -0.023   0.826  -0.001
 -0.015   0.000 -10.278   0.018   0.008   0.012  -0.001   0.827
  0.002   0.017   0.018 -10.295   0.034  -0.003  -0.013  -0.014
  0.002  -0.006   0.008   0.034 -10.292  -0.001   0.005  -0.005
  0.838  -0.023   0.012  -0.003  -0.001   6.441   0.016  -0.008
 -0.023   0.826  -0.001  -0.013   0.005   0.016   6.449   0.001
  0.012  -0.001   0.827  -0.014  -0.005  -0.008   0.001   6.448
 -0.003  -0.013  -0.014   0.838  -0.025   0.001   0.009   0.010
 -0.001   0.005  -0.005  -0.025   0.838   0.001  -0.003   0.003
 -0.004  -0.003  -0.002  -0.009  -0.000   0.000  -0.000  -0.000
 -0.008  -0.006  -0.004  -0.016  -0.000   0.000  -0.000  -0.001
 -0.020   0.009  -0.002   0.000  -0.003   0.008  -0.003   0.001
  0.000   0.003   0.010  -0.019  -0.000  -0.000  -0.001  -0.003
  0.003   0.000   0.012   0.008  -0.020  -0.001  -0.000  -0.005
 -0.020   0.009  -0.002   0.000  -0.003   0.005  -0.002   0.001
  0.000   0.003   0.010  -0.020  -0.000  -0.000   0.000  -0.001
  0.003   0.000   0.012   0.008  -0.020  -0.001  -0.000  -0.004
 total augmentation occupancy for first ion, spin component:           1
  1.961   0.005   0.002  -0.003   0.002  -0.009  -0.005   0.001  -0.002  -0.003   0.020   0.003   0.074   0.001  -0.020  -0.037
  0.005   1.957  -0.000   0.012  -0.009  -0.005  -0.015   0.001  -0.006   0.008   0.017   0.010  -0.022  -0.021  -0.007   0.015
  0.002  -0.000   1.964   0.007  -0.005   0.001   0.001  -0.020  -0.003   0.001   0.001   0.007  -0.004  -0.025  -0.033  -0.003
 -0.003   0.012   0.007   1.953   0.008  -0.002  -0.006  -0.003  -0.010  -0.009   0.035   0.004   0.001   0.080  -0.043   0.001
  0.002  -0.009  -0.005   0.008   1.955  -0.003   0.008   0.001  -0.009  -0.011   0.019   0.003  -0.005  -0.012   0.050  -0.005
 -0.009  -0.005   0.001  -0.002  -0.003   0.010  -0.002   0.002  -0.002  -0.001  -0.023   0.002   0.027  -0.007  -0.006  -0.001
 -0.005  -0.015   0.001  -0.006   0.008  -0.002   0.004   0.000   0.000   0.001  -0.032   0.002  -0.006   0.001  -0.004   0.000
  0.001   0.001  -0.020  -0.003   0.001   0.002   0.000   0.004  -0.000  -0.001  -0.026   0.003   0.004  -0.003  -0.011  -0.000
 -0.002  -0.006  -0.003  -0.010  -0.009  -0.002   0.000  -0.000   0.008  -0.002  -0.046   0.004  -0.007   0.017  -0.012   0.000
 -0.003   0.008   0.001  -0.009  -0.011  -0.001   0.001  -0.001  -0.002   0.007   0.001  -0.003  -0.001  -0.003   0.014   0.000
  0.020   0.017   0.001   0.035   0.019  -0.023  -0.032  -0.026  -0.046   0.001   1.613  -0.086  -0.033  -0.098   0.242   0.004
  0.003   0.010   0.007   0.004   0.003   0.002   0.002   0.003   0.004  -0.003  -0.086   0.008   0.002   0.008  -0.024  -0.000
  0.074  -0.022  -0.004   0.001  -0.005   0.027  -0.006   0.004  -0.007  -0.001  -0.033   0.002   0.090  -0.027  -0.012  -0.006
  0.001  -0.021  -0.025   0.080  -0.012  -0.007   0.001  -0.003   0.017  -0.003  -0.098   0.008  -0.027   0.051  -0.022   0.001
 -0.020  -0.007  -0.033  -0.043   0.050  -0.006  -0.004  -0.011  -0.012   0.014   0.242  -0.024  -0.012  -0.022   0.084   0.001
 -0.037   0.015  -0.003   0.001  -0.005  -0.001   0.000  -0.000   0.000   0.000   0.004  -0.000  -0.006   0.001   0.001   0.001
  0.001   0.005   0.017  -0.035   0.000   0.000  -0.000  -0.000  -0.001   0.000   0.011  -0.001   0.001  -0.004   0.003  -0.000
  0.006   0.001   0.020   0.015  -0.033   0.001   0.000   0.001   0.001  -0.001  -0.031   0.002   0.001   0.003  -0.009  -0.000


------------------------ aborting loop because EDIFF is reached ----------------------------------------


    FORLOC:  cpu time      0.0580: real time      0.0580
    FORNL :  cpu time      0.5271: real time      0.5276
    STRESS:  cpu time      1.5127: real time      1.5134
    FORCOR:  cpu time      0.7587: real time      0.7583
    OFIELD:  cpu time      0.0011: real time      0.0011

 ---------------------------------------------------------------------------------------------

         DFTD3 V3.0 Rev 1        
 IVDW         = 11
 DF revpbe    
 parameters
 VDW_S6       =    1.0000
 VDW_S8       =    1.0100
 VDW_SR       =    0.9230
 rs18     =    1.0000
 alpha6   =   14.0000
 alpha8   =   16.0000
 k1-k3    =   16.0000    1.3333   -4.0000
 VDW_RADIUS   =   50.2022 A
 VDW_CNRADIUS =   21.1671 A
 Edisp (eV)   -0.32961

 E6    (eV) :    -0.1522
 E8    (eV) :    -0.1774
 % E8        : 53.82
    FORVDW:  cpu time      0.0148: real time      0.0148

  FORCE on cell =-STRESS in cart. coord.  units (eV):
  Direction    XX          YY          ZZ          XY          YZ          ZX
  --------------------------------------------------------------------------------------
  Alpha Z     3.29098     3.29098     3.29098
  Ewald    2905.16116  2237.20748    34.17368  -155.63277 -1380.72469  -321.11746
  Hartree  5245.64728  4688.14453  2850.02487  -128.98777 -1143.54511  -265.94393
  E(xc)    -385.22109  -385.62185  -386.94572    -0.09712    -0.86317    -0.20083
  Local   -8717.19567 -7494.22359 -3461.33205   284.02861  2518.88407   585.80756
  n-local  -146.82245  -147.10262  -148.02685    -0.07031    -0.60192    -0.13768
  augment   557.31673   558.67547   563.19282     0.32547     2.94459     0.68601
  Kinetic   539.46743   541.02544   546.19619     0.37201     3.37206     0.78671
  Fock        0.00000     0.00000     0.00000     0.00000     0.00000     0.00000
  vdW        -0.33518    -0.26740    -0.04171     0.01594     0.14719     0.03443
  -------------------------------------------------------------------------------------
  Total       1.30920     1.12843     0.53219    -0.04594    -0.38697    -0.08518
  in kB       0.26220     0.22599     0.10658    -0.00920    -0.07750    -0.01706
  external pressure =        0.20 kB  Pullay stress =        0.00 kB


 VOLUME and BASIS-vectors are now :
 -----------------------------------------------------------------------------
  energy-cutoff  :      520.00
  volume of cell :     8000.00
      direct lattice vectors                 reciprocal lattice vectors
    20.000000000  0.000000000  0.000000000     0.050000000  0.000000000  0.000000000
     0.000000000 20.000000000  0.000000000     0.000000000  0.050000000  0.000000000
     0.000000000  0.000000000 20.000000000     0.000000000  0.000000000  0.050000000

  length of vectors
    20.000000000 20.000000000 20.000000000     0.050000000  0.050000000  0.050000000


 FORCES acting on ions:
    Electron-Ion                     Ewald-Force                    Non-Local-Force
 -----------------------------------------------------------------------------------------------
   0.827E+03 -.653E+02 -.232E+03   -.818E+03 0.639E+02 0.228E+03   -.933E+01 0.149E+01 0.417E+01
   0.287E+03 -.791E+03 0.188E+03   -.284E+03 0.781E+03 -.188E+03   -.311E+01 0.983E+01 -.656E+00
   -.671E+03 -.515E+03 0.163E+03   0.664E+03 0.509E+03 -.163E+03   0.789E+01 0.666E+01 -.388E+00
   -.723E+03 0.380E+03 -.276E+03   0.715E+03 -.376E+03 0.271E+03   0.847E+01 -.361E+01 0.468E+01
   0.204E+03 0.660E+03 -.516E+03   -.202E+03 -.653E+03 0.509E+03   -.217E+01 -.685E+01 0.742E+01
   0.760E+02 0.328E+03 0.665E+03   -.752E+02 -.325E+03 -.658E+03   -.844E+00 -.362E+01 -.734E+01
 -----------------------------------------------------------------------------------------------
   -.904E+00 -.389E+01 -.789E+01   -.114E-12 0.000E+00 0.000E+00   0.905E+00 0.389E+01 0.789E+01
 
 
 POSITION                                       TOTAL-FORCE (eV/Angst)
 -----------------------------------------------------------------------------------
      8.11730      9.99586     10.25637        -0.263051      0.035201      0.100893
      9.43087     11.75927      9.23568        -0.088900      0.268334     -0.033808
     11.76087     11.09016      9.29627         0.219076      0.179204     -0.023345
     11.88481      8.91481     10.36010         0.236732     -0.109368      0.116756
      9.63288      8.23466     10.94792        -0.060738     -0.198302      0.193028
     10.05678      9.52916      9.06642        -0.043118     -0.175069     -0.353525
 -----------------------------------------------------------------------------------
    total drift:                                0.000934      0.000761     -0.000293


--------------------------------------------------------------------------------------------------------



  FREE ENERGIE OF THE ION-ELECTRON SYSTEM (eV)
  ---------------------------------------------------
  free  energy   TOTEN  =       -12.00080575 eV

  energy  without entropy=      -12.00080575  energy(sigma->0) =      -12.00080575
 


--------------------------------------------------------------------------------------------------------


    POTLOK:  cpu time      1.6400: real time      1.6408


--------------------------------------------------------------------------------------------------------


     LOOP+:  cpu time    104.3650: real time    104.7909
    4ORBIT:  cpu time      0.0000: real time      0.0000

 total amount of memory used by VASP MPI-rank0   232754. kBytes
=======================================================================

   base      :      30000. kBytes
   nonlr-proj:       6534. kBytes
   fftplans  :      28721. kBytes
   grid      :     157056. kBytes
   one-center:         93. kBytes
   wavefun   :      10350. kBytes
 
  
  
 General timing and accounting informations for this job:
 ========================================================
  
                  Total CPU time used (sec):      117.912
                            User time (sec):      115.307
                          System time (sec):        2.605
                         Elapsed time (sec):      119.267
  
                   Maximum memory used (kb):     1178932.
                   Average memory used (kb):          N/A
  
                          Minor page faults:       101705
                          Major page faults:            0
                 Voluntary context switches:         6159
