 **********************************************************************
                          MRCC program system
 **********************************************************************
 
                              Written by
     Mihaly Kallay, Peter R. Nagy, David Mester, Laszlo Gyevi-Nagy,
        Jozsef Csoka, P. Bernat Szabo, Zoltan Rolik, Gyula Samu,
     Jozsef Csontos, Bence Hegely, Adam Ganyecz, Istvan Ladjanszki,
       Lorant Szegedy, Bence Ladoczki, Klara Petrov, Mate Farkas,
                    Pal D. Mezei, and Reka A. Horvath
 
        Department of Physical Chemistry and Materials Science
            Budapest University of Technology and Economics
                  Budapest P.O.Box 91, H-1521 Hungary
 
                              www.mrcc.hu
 
                      Release date: March 18, 2022

 ************************ 2023-08-17 09:44:34 *************************
 Executing minp...

 Reading input from MINP...
 
 Input file:
 
calc=CCSD(T)
verbosity=3
mem=1500GB
unit=angs
scfiguess=sad
ccprog=mrcc
ECP=LANL2DZ-ECP-10
basis=LANL2DZ
core=16
unit=angs
geom=xyz
    4
Cu4_4
Cu     1.16717276     0.38905498     1.07801886
Cu     0.02179923    -0.12973513    -1.17783523
Cu    -0.42856473    -1.13463765     1.17783523
Cu    -1.16717276     1.13463765     0.18733212
 
 
 Checking keyword combinations...
 
 Keywords:
 
 active=none
 agrid=ld0006-ld0590
 agrid_pssp=ld0006-ld0194
 agrid_pssp_sm=ld0006-ld0074
 basis=lanl2dz
 basis_sm=none
 basopt=off
 bfbasis=none
 bfgsmem=10
 bfgstol=1.0d-3
 bpcompo=0.985
 bpcompv=0.98
 bpdfo=0.985
 bpocc=0.985
 bppdo=0.985
 bppdv=0.98
 bpedo=0.985
 bpedv=0.98
 calc=ccsd(t)
 ccmaxit=50
 ccprog=mrcc
 ccsdalg=disk
 ccsdmkl=seq
 ccsdrest=off
 ccsdthreads=2
 cctol=6
 charge=0
 cialg=disk
 ciguess=off
 cmpgrp=auto
 comprest=off
 core=16
 corembed=off
 csapprox=off
 cvs=off
 dboc=off
 delocsomofact=
 dendec=cholesky
 dens=0
 dfalg=lineq
 dfbasis_cab=none
 dfbasis_cor=none
 dfbasis_scf=none
 dfbasis_scf_sm=none
 dfintran=ovirt
 dft=off
 dhexc=adc(2)
 diag=david
 docc=
 domrad=10.d0
 drpaalg=fit
 dual=off
 dual_df=off
 ecp=lanl2dz-ecp-10
 edisp=off
 edisp_embed=off
 embed=off
 etemp=300
 epert=none
 eps=
 espcharge=off
 excrad=0.d0
 excrad_fin=0.000000000D+00
 fitting=coulomb
 fmm=off
 fmmord=8
 freq=off
 gamma=1.d0
 gauss=spher
 geom=xyz
 gopt=off
 ghost=none
 gtol=7
 grdens=off
 gridbatch_cos=2000
 grtol=10
 guido_ct=off
 hamilton=dc
 iface=none
 intalg=auto
 itol=10
 laptol=1.d-2
 lccoporder=trffirst
 lcorthr=normal
 lccrest=off
 lmp2dens=on
 lnoepso=0.d0
 lnoepsv=1e-6
 boysalg=jacobi
 localcc=off
 localcorrsymm=off
 locintrf=disk
 mact=
 maxact=off
 maxdim=100
 maxex=0
 maxmicroit=100
 mcscfiguess=hf
 mem=1500gb
 mmprog=
 molden=on
 mpitasks=1
 mulmet=0
 mult=
 nacto=0
 nactv=0
 naf_amp=1.d-2
 naf_cor=off
 naf_scf=off
 nafalg=albe
 naftyp=
 nchol=auto
 ndeps=1e-3
 nstate=1
 nsing=0
 nto=off
 ntrip=0
 occ=
 occri=off
 oniom=off
 oniom_eechg=off
 oniom_pcm=off
 oniom_qcorr=off
 optalg=
 optmaxit=50
 optetol=1e-6
 optex=0
 optgtol=1e-4
 optstol=1e-3
 orblocc=off
 orbloce=off
 orbloco=off
 orblocv=off
 orblocguess=cholesky
 osveps=1e-3
 ovirt=off
 ovltol=1e-7
 ovosnorb=80.0
 pcm=off
 popul=off
 pressure=100000
 pssp=off
 ptfreq=0.0
 ptthreads=2
 qro=off
 qscf=off
 qmmm=off
 redcost_exc=off
 redcost_tddft=off
 refdet=none
 rest=0
 rgrid=log3
 rism=off
 rohfcore=semicanonical
 rohftype=semicanonical
 scfalg=auto
 scf_conv=difficult
 scfdamp=0.0d0
 scfdamp_mode=off
 scfdamp_end=50
 scfdamp_dampstep=0.d0
 scfdamp_dtol=0.0d0
 scfdamp_maxfact=0.0d0
 scfdamp_minfact=0.0d0
 scfdiis=on
 scfdiis_dtol=0.0d0
 scfdiis_end=50
 scfdiis_start=2
 scfdiis_step=1
 scfdiis_watch=off
 scfdiis_wrange=10
 scfdiis_wlimit=5
 scfdiis_delmax=2
 scfdtol=7
 scfext=10
 scfguessdens=
 scfiguess=sad
 scfloc=off
 scflshift=0.20
 scflshift_end=8
 scflshift_dtol=0.0
 scflshift_gaptol=0.20
 scfmaxit=50
 scftype=
 scftol=6
 scspe=1.d0
 scsph=1.d0
 scsps=1.2d0
 scsps_t=1.2d0
 scspt=0.33333333333333
 scspt_t=0.33333333333333
 scspv=1.d0
 spairtol=1e-4
 sqmprog=
 subminp=top
 symm=
 talg=occ
 temp=298.15
 test=off
 theodore=off
 tlmo=0.999
 tpao=0.94
 tprint=off
 uncontract=off
 unit=angs
 usedisk=2
 verbosity=3
 wpairtol=0.100000000E-05

 ************************ 2023-08-17 09:44:34 *************************
 Executing integ...

 Allocation of 1500.0 Gbytes of memory...
 
 
 Number of atoms:                  4
 Charge:                           0
 Number of electrons:             76
 Number of core electrons:        32
 Spin multiplicity:                1
 
                 Cartesian coordinates [bohr]      Atomic mass [AMU]  Z
   1  Cu    2.20563686    0.73520736    2.03716040    62.929599      29
   2  Cu    0.04119457   -0.24516386   -2.22578601    62.929599      29
   3  Cu   -0.80986997   -2.14415441    2.22578601    62.929599      29
   4  Cu   -2.20563686    2.14415441    0.35400640    62.929599      29
 
 This molecule is an asymmetric top.
 
 Rotational constants [cm-1]: 
      0.054928155547      0.040143262126      0.039509758806
 
 Point group: C1  
 Computational point group: C1  
 
 Cartesian coordinates in standard orientation [bohr]
   1  Cu    1.96490604   -1.49104282   -1.45347412
   2  Cu   -1.94500212   -1.49199795    1.46735924
   3  Cu    1.94825954    1.50620393    1.45097420
   4  Cu   -1.96816346    1.47683684   -1.46485932
 
 Nuclear repulsion energy [au]:        467.639882185284
 
 
 Basis set information:
 
 Maximum angular momentum: d
 Maximum number of contracted Gaussians:    3
 Maximum number of primitive Gaussians:     5
 Spherical harmonic GTOs are used.
 
   1  Cu lanl2dz [ 5s 5p 5d | 3s 3p 2d ]
   2  Cu lanl2dz [ 5s 5p 5d | 3s 3p 2d ]
   3  Cu lanl2dz [ 5s 5p 5d | 3s 3p 2d ]
   4  Cu lanl2dz [ 5s 5p 5d | 3s 3p 2d ]
 
 Basis functions:
            1             2             3             4             5             6             7             8             9            10
    0    1Cu1s         1Cu2s         1Cu3s         1Cu1pz        1Cu1py        1Cu1px        1Cu2pz        1Cu2py        1Cu2px        1Cu3pz    
    1    1Cu3py        1Cu3px        1Cu1d-2       1Cu1d-1       1Cu1d0        1Cu1d+1       1Cu1d+2       1Cu2d-2       1Cu2d-1       1Cu2d0    
    2    1Cu2d+1       1Cu2d+2       2Cu1s         2Cu2s         2Cu3s         2Cu1pz        2Cu1py        2Cu1px        2Cu2pz        2Cu2py    
    3    2Cu2px        2Cu3pz        2Cu3py        2Cu3px        2Cu1d-2       2Cu1d-1       2Cu1d0        2Cu1d+1       2Cu1d+2       2Cu2d-2   
    4    2Cu2d-1       2Cu2d0        2Cu2d+1       2Cu2d+2       3Cu1s         3Cu2s         3Cu3s         3Cu1pz        3Cu1py        3Cu1px    
    5    3Cu2pz        3Cu2py        3Cu2px        3Cu3pz        3Cu3py        3Cu3px        3Cu1d-2       3Cu1d-1       3Cu1d0        3Cu1d+1   
    6    3Cu1d+2       3Cu2d-2       3Cu2d-1       3Cu2d0        3Cu2d+1       3Cu2d+2       4Cu1s         4Cu2s         4Cu3s         4Cu1pz    
    7    4Cu1py        4Cu1px        4Cu2pz        4Cu2py        4Cu2px        4Cu3pz        4Cu3py        4Cu3px        4Cu1d-2       4Cu1d-1   
    8    4Cu1d0        4Cu1d+1       4Cu1d+2       4Cu2d-2       4Cu2d-1       4Cu2d0        4Cu2d+1       4Cu2d+2   
 
 Maximum number of basis functions per shell:   10
 Total number of basis functions:     88
 
 
 Effective core potentials:
 
   1  Cu lanl2dz-ecp-10      
   2  Cu lanl2dz-ecp-10      
   3  Cu lanl2dz-ecp-10      
   4  Cu lanl2dz-ecp-10      
 
 Initializing the SAD routines for the initial guess...
 Checking the files required for the initial guess...
 Density files have not been found for the initial guess.
 Generating SCFDENSITIES.Cu.lanl2dz.0
 CPU time [min]:     0.118                   Wall time [min]:     0.202
 
 Character table for point group C1:
 
          E  
    A     1
 
 Number of basis functions per irrep:
    A      88
 
 
 Calculation of overlap integrals...
 CPU time [min]:     0.118                   Wall time [min]:     0.202
 
 Calculation of the square root of the overlap matrix...
 Minimum eigenvalue of the overlap matrix: 0.459813E-02
 CPU time [min]:     0.128                   Wall time [min]:     0.202
 
 Calculation of kinetic energy integrals...
 CPU time [min]:     0.128                   Wall time [min]:     0.202
 Calculation of nuclear attraction integrals...
 CPU time [min]:     0.129                   Wall time [min]:     0.202
 Calculation of core potential integrals...
 CPU time [min]:     0.236                   Wall time [min]:     0.207
 
 Calculation of prescreening integrals...
 CPU time [min]:     0.323                   Wall time [min]:     0.210
 
 Calculation of two-electron integrals...
   1% done.
  17% done.
  32% done.
  62% done.
 100% done.
 CPU time [min]:     2.041                   Wall time [min]:     0.258

 ************************ 2023-08-17 09:44:50 *************************
 Executing scf...

 @scfsetup: integrals taken from disk
            mrcc/integ binary format
 @scfsetup: calculating on full matrices
            not using symmetry adapted basis
 @scfsetup: diis switched on
 @scfsetup: number of steps to extrapolate from  10
 @scfsetup: tolerance in energy deviation    0.100000E-05
            tolerance in density deviation    0.100000E-06
 @scfsetup: maximum number of iterations:  50
 @scfsetup: restricted closed shell hf calc
 @scfsetup: starting scf from superposition of atomic densities
 @scfsetup: occupation set:
            from initial orbitals
 @scfsetup: Parameter-set for SCF acceleration: difficult
 @scfsetup: diis runs from iteration:   2
 @scfsetup: diis runs to iteration:  50
 @scfsetup: diis runs in every iteration
 @scfsetup: diiswatch is disabled                   
 @scfsetup: diis dtol criteria to switch on:      0.0000E+00
           (or the iteration number below is reached)
 @scfsetup: damping is turned off.
 @scfsetup: dynamic level shifting
            tolarance in HOMO-LUMO gap:  0.200
            tolarance in density deviation:     0.0000E+00
            iteration step criteria to turn level shifting off: 8
 Allocation of 1500.0 Gbytes of memory...
 ======================================================================
 ITERATION STEP   1
 CPU time [min]:     0.015                   Wall time [min]:     0.004
 

 SCF control                  : initial
 Damping factor/level shift   : 0.000/0.200
 DIIS [start/end/frequency]   :   2 / 50 /  1

 Gradient norm:      1.9907E+00
 RMS of [F,P]:                                         0.07036781007558
 RMS of difference density:                            1.87818103704096
 Gap [au]:  0.02172956
 ALPHA OCC:  38
 BETA  OCC:  38
 
 ***HARTREE-FOCK ENERGY IN STEP   1 IS       -773.8453797467486766 [AU]
 ======================================================================
 ITERATION STEP   2
 CPU time [min]:     0.102                   Wall time [min]:     0.006
 

 SCF control                  : diis
 Damping factor/level shift   : 0.000/0.200
 DIIS [start/end/frequency]   :   2 / 50 /  1

 Gradient norm:      7.6301E+00
 DIIS is running in this iteration step.
 RMS of [F,P]:                                         0.27015073359292
 RMS of difference density:                            1.87618187748879
 Gap [au]:  0.27869792
 ALPHA OCC:  38
 BETA  OCC:  38
 
 ***HARTREE-FOCK ENERGY IN STEP   2 IS       -669.2739258579256330 [AU]
 
 Step comparison  Energy Drift [au]  DIIS error drift  Gradient drift
        1           -1.0457E+02        -1.9978E-01      -5.6394E+00
        2            6.6927E+02         1.0000E-07      -5.6394E+00
 Warning! The energy goes uphill (with respect to previous step).
 Warning! The gradient goes uphill (with respect to previous step).
 Warning! The gradient goes uphill (with respect to step   1 ).
 ======================================================================
 ITERATION STEP   3
 CPU time [min]:     0.185                   Wall time [min]:     0.008
 

 SCF control                  : diis
 Damping factor/level shift   : 0.000/0.000
 DIIS [start/end/frequency]   :   2 / 50 /  1

 Gradient norm:      1.7342E+00
 DIIS is running in this iteration step.
 RMS of [F,P]:                                         0.08352823500835
 RMS of difference density:                            0.09341751115626
 Gap [au]:  0.10770508
 ALPHA OCC:  38
 BETA  OCC:  38
 
 ***HARTREE-FOCK ENERGY IN STEP   3 IS       -768.4992596750025768 [AU]
 
 Step comparison  Energy Drift [au]  DIIS error drift  Gradient drift
        2            9.9225E+01         1.8662E-01       5.8959E+00
 ======================================================================
 ITERATION STEP   4
 CPU time [min]:     0.267                   Wall time [min]:     0.011
 

 SCF control                  : diis
 Damping factor/level shift   : 0.000/0.200
 DIIS [start/end/frequency]   :   2 / 50 /  1

 Gradient norm:      3.5438E-01
 DIIS is running in this iteration step.
 RMS of [F,P]:                                         0.00854750810675
 RMS of difference density:                            0.01930237037940
 Gap [au]:  0.10377716
 ALPHA OCC:  38
 BETA  OCC:  38
 
 ***HARTREE-FOCK ENERGY IN STEP   4 IS       -779.7953968828360303 [AU]
 
 Step comparison  Energy Drift [au]  DIIS error drift  Gradient drift
        3            1.1296E+01         7.4981E-02       1.3799E+00
 ======================================================================
 ITERATION STEP   5
 CPU time [min]:     0.349                   Wall time [min]:     0.013
 

 SCF control                  : diis
 Damping factor/level shift   : 0.000/0.200
 DIIS [start/end/frequency]   :   2 / 50 /  1

 Gradient norm:      8.0018E-02
 DIIS is running in this iteration step.
 RMS of [F,P]:                                         0.00343112761458
 RMS of difference density:                            0.00626962420171
 Gap [au]:  0.14964830
 ALPHA OCC:  38
 BETA  OCC:  38
 
 ***HARTREE-FOCK ENERGY IN STEP   5 IS       -779.9312861213677479 [AU]
 
 Step comparison  Energy Drift [au]  DIIS error drift  Gradient drift
        4            1.3589E-01         5.1164E-03       2.7437E-01
 ======================================================================
 ITERATION STEP   6
 CPU time [min]:     0.431                   Wall time [min]:     0.015
 

 SCF control                  : diis
 Damping factor/level shift   : 0.000/0.200
 DIIS [start/end/frequency]   :   2 / 50 /  1

 Gradient norm:      4.7339E-02
 DIIS is running in this iteration step.
 RMS of [F,P]:                                         0.00121856016947
 RMS of difference density:                            0.00314263487195
 Gap [au]:  0.15536526
 ALPHA OCC:  38
 BETA  OCC:  38
 
 ***HARTREE-FOCK ENERGY IN STEP   6 IS       -779.9517653420416536 [AU]
 
 Step comparison  Energy Drift [au]  DIIS error drift  Gradient drift
        5            2.0479E-02         2.2126E-03       3.2679E-02
 ======================================================================
 ITERATION STEP   7
 CPU time [min]:     0.513                   Wall time [min]:     0.018
 

 SCF control                  : diis
 Damping factor/level shift   : 0.000/0.200
 DIIS [start/end/frequency]   :   2 / 50 /  1

 Gradient norm:      3.1292E-02
 DIIS is running in this iteration step.
 RMS of [F,P]:                                         0.00063503011630
 RMS of difference density:                            0.00149934311354
 Gap [au]:  0.15630192
 ALPHA OCC:  38
 BETA  OCC:  38
 
 ***HARTREE-FOCK ENERGY IN STEP   7 IS       -779.9563057295240469 [AU]
 
 Step comparison  Energy Drift [au]  DIIS error drift  Gradient drift
        6            4.5404E-03         5.8353E-04       1.6047E-02
 ======================================================================
 ITERATION STEP   8
 CPU time [min]:     0.596                   Wall time [min]:     0.020
 

 SCF control                  : diis
 Damping factor/level shift   : 0.000/0.200
 DIIS [start/end/frequency]   :   2 / 50 /  1

 Gradient norm:      2.0601E-02
 DIIS is running in this iteration step.
 RMS of [F,P]:                                         0.00026716847396
 RMS of difference density:                            0.00117391086459
 Gap [au]:  0.15555756
 ALPHA OCC:  38
 BETA  OCC:  38
 
 ***HARTREE-FOCK ENERGY IN STEP   8 IS       -779.9576590218600813 [AU]
 
 Step comparison  Energy Drift [au]  DIIS error drift  Gradient drift
        7            1.3533E-03         3.6786E-04       1.0691E-02
 ======================================================================
 ITERATION STEP   9
 CPU time [min]:     0.678                   Wall time [min]:     0.022
 

 SCF control                  : diis
 Damping factor/level shift   : 0.000/0.000
 DIIS [start/end/frequency]   :   2 / 50 /  1

 Gradient norm:      1.1322E-02
 DIIS is running in this iteration step.
 RMS of [F,P]:                                         0.00013129802736
 RMS of difference density:                            0.00095367536974
 Gap [au]:  0.15526123
 ALPHA OCC:  38
 BETA  OCC:  38
 
 ***HARTREE-FOCK ENERGY IN STEP   9 IS       -779.9582569926649285 [AU]
 
 Step comparison  Energy Drift [au]  DIIS error drift  Gradient drift
        8            5.9797E-04         1.3587E-04       9.2796E-03
 ======================================================================
 ITERATION STEP  10
 CPU time [min]:     0.761                   Wall time [min]:     0.025
 

 SCF control                  : diis
 Damping factor/level shift   : 0.000/0.000
 DIIS [start/end/frequency]   :   2 / 50 /  1

 Gradient norm:      1.8795E-03
 DIIS is running in this iteration step.
 RMS of [F,P]:                                         0.00003835221452
 RMS of difference density:                            0.00016267613093
 Gap [au]:  0.15503002
 ALPHA OCC:  38
 BETA  OCC:  38
 
 ***HARTREE-FOCK ENERGY IN STEP  10 IS       -779.9584693887081812 [AU]
 
 Step comparison  Energy Drift [au]  DIIS error drift  Gradient drift
        9            2.1240E-04         9.2946E-05       9.4422E-03
 ======================================================================
 ITERATION STEP  11
 CPU time [min]:     0.843                   Wall time [min]:     0.027
 

 SCF control                  : diis
 Damping factor/level shift   : 0.000/0.000
 DIIS [start/end/frequency]   :   2 / 50 /  1

 Gradient norm:      5.6539E-04
 DIIS is running in this iteration step.
 RMS of [F,P]:                                         0.00001293750103
 RMS of difference density:                            0.00004433555846
 Gap [au]:  0.15502960
 ALPHA OCC:  38
 BETA  OCC:  38
 
 ***HARTREE-FOCK ENERGY IN STEP  11 IS       -779.9584768272507063 [AU]
 
 Step comparison  Energy Drift [au]  DIIS error drift  Gradient drift
       10            7.4385E-06         2.5415E-05       1.3142E-03
 ======================================================================
 ITERATION STEP  12
 CPU time [min]:     0.925                   Wall time [min]:     0.029
 

 SCF control                  : diis
 Damping factor/level shift   : 0.000/0.000
 DIIS [start/end/frequency]   :   2 / 50 /  1

 Gradient norm:      1.9528E-04
 DIIS is running in this iteration step.
 RMS of [F,P]:                                         0.00000822024968
 RMS of difference density:                            0.00001464968135
 Gap [au]:  0.15502593
 ALPHA OCC:  38
 BETA  OCC:  38
 
 ***HARTREE-FOCK ENERGY IN STEP  12 IS       -779.9584775940697909 [AU]
 
 Step comparison  Energy Drift [au]  DIIS error drift  Gradient drift
       11            7.6682E-07         4.7173E-06       3.7012E-04
 ======================================================================
 ITERATION STEP  13
 CPU time [min]:     1.038                   Wall time [min]:     0.032
 

 SCF control                  : diis
 Damping factor/level shift   : 0.000/0.000
 DIIS [start/end/frequency]   :   2 / 50 /  1

 Gradient norm:      6.3496E-05
 DIIS is running in this iteration step.
 RMS of [F,P]:                                         0.00000158276761
 RMS of difference density:                            0.00000600322735
 Gap [au]:  0.15501114
 ALPHA OCC:  38
 BETA  OCC:  38
 
 ***HARTREE-FOCK ENERGY IN STEP  13 IS       -779.9584777215222857 [AU]
 
 Step comparison  Energy Drift [au]  DIIS error drift  Gradient drift
       12            1.2745E-07         6.6375E-06       1.3178E-04
 ======================================================================
 ITERATION STEP  14
 CPU time [min]:     1.125                   Wall time [min]:     0.035
 

 SCF control                  : diis
 Damping factor/level shift   : 0.000/0.000
 DIIS [start/end/frequency]   :   2 / 50 /  1

 Gradient norm:      4.1501E-05
 DIIS is running in this iteration step.
 RMS of [F,P]:                                         0.00000059284941
 RMS of difference density:                            0.00000232960609
 Gap [au]:  0.15501510
 ALPHA OCC:  38
 BETA  OCC:  38
 
 ***HARTREE-FOCK ENERGY IN STEP  14 IS       -779.9584777417949226 [AU]
 
 Step comparison  Energy Drift [au]  DIIS error drift  Gradient drift
       13            2.0273E-08         9.8992E-07       2.1995E-05
 ======================================================================
 ITERATION STEP  15
 CPU time [min]:     1.207                   Wall time [min]:     0.037
 

 SCF control                  : diis
 Damping factor/level shift   : 0.000/0.000
 DIIS [start/end/frequency]   :   2 / 50 /  1

 Gradient norm:      3.5720E-05
 DIIS is running in this iteration step.
 RMS of [F,P]:                                         0.00000040560428
 RMS of difference density:                            0.00000173630094
 Gap [au]:  0.15501508
 ALPHA OCC:  38
 BETA  OCC:  38
 
 ***HARTREE-FOCK ENERGY IN STEP  15 IS       -779.9584777476209183 [AU]
 
 Step comparison  Energy Drift [au]  DIIS error drift  Gradient drift
       14            5.8260E-09         1.8725E-07       5.7816E-06
 ======================================================================
 ITERATION STEP  16
 CPU time [min]:     1.288                   Wall time [min]:     0.039
 

 SCF control                  : diis
 Damping factor/level shift   : 0.000/0.000
 DIIS [start/end/frequency]   :   2 / 50 /  1

 Gradient norm:      3.1000E-05
 DIIS is running in this iteration step.
 RMS of [F,P]:                                         0.00000035124316
 RMS of difference density:                            0.00000143968383
 Gap [au]:  0.15501533
 ALPHA OCC:  38
 BETA  OCC:  38
 
 ***HARTREE-FOCK ENERGY IN STEP  16 IS       -779.9584777513116478 [AU]
 
 Step comparison  Energy Drift [au]  DIIS error drift  Gradient drift
       15            3.6907E-09         5.4361E-08       4.7197E-06
 ======================================================================
 ITERATION STEP  17
 CPU time [min]:     1.370                   Wall time [min]:     0.042
 

 SCF control                  : diis
 Damping factor/level shift   : 0.000/0.000
 DIIS [start/end/frequency]   :   2 / 50 /  1

 Gradient norm:      2.6750E-05
 DIIS is running in this iteration step.
 RMS of [F,P]:                                         0.00000027955887
 RMS of difference density:                            0.00000362426056
 Gap [au]:  0.15501512
 ALPHA OCC:  38
 BETA  OCC:  38
 
 ***HARTREE-FOCK ENERGY IN STEP  17 IS       -779.9584777540089817 [AU]
 
 Step comparison  Energy Drift [au]  DIIS error drift  Gradient drift
       16            2.6973E-09         7.1684E-08       4.2496E-06
 ======================================================================
 ITERATION STEP  18
 CPU time [min]:     1.452                   Wall time [min]:     0.044
 

 SCF control                  : diis
 Damping factor/level shift   : 0.000/0.000
 DIIS [start/end/frequency]   :   2 / 50 /  1

 Gradient norm:      1.5603E-05
 DIIS is running in this iteration step.
 RMS of [F,P]:                                         0.00000018318986
 RMS of difference density:                            0.00000321611133
 Gap [au]:  0.15501508
 ALPHA OCC:  38
 BETA  OCC:  38
 
 ***HARTREE-FOCK ENERGY IN STEP  18 IS       -779.9584777591144302 [AU]
 
 Step comparison  Energy Drift [au]  DIIS error drift  Gradient drift
       17            5.1054E-09         9.6369E-08       1.1147E-05
 ======================================================================
 ITERATION STEP  19
 CPU time [min]:     1.534                   Wall time [min]:     0.046
 

 SCF control                  : diis
 Damping factor/level shift   : 0.000/0.000
 DIIS [start/end/frequency]   :   2 / 50 /  1

 Gradient norm:      6.0064E-06
 DIIS is running in this iteration step.
 RMS of [F,P]:                                         0.00000008794384
 RMS of difference density:                            0.00000165755054
 Gap [au]:  0.15501514
 ALPHA OCC:  38
 BETA  OCC:  38
 
 ***HARTREE-FOCK ENERGY IN STEP  19 IS       -779.9584777614388713 [AU]
 
 Step comparison  Energy Drift [au]  DIIS error drift  Gradient drift
       18            2.3244E-09         9.5246E-08       9.5971E-06
 ======================================================================
 ITERATION STEP  20
 CPU time [min]:     1.616                   Wall time [min]:     0.049
 

 SCF control                  : diis
 Damping factor/level shift   : 0.000/0.000
 DIIS [start/end/frequency]   :   2 / 50 /  1

 Gradient norm:      9.5355E-07
 DIIS is running in this iteration step.
 RMS of [F,P]:                                         0.00000002157414
 RMS of difference density:                            0.00000026223707
 Gap [au]:  0.15501509
 ALPHA OCC:  38
 BETA  OCC:  38
 
 ***HARTREE-FOCK ENERGY IN STEP  20 IS       -779.9584777618267708 [AU]
 
 Step comparison  Energy Drift [au]  DIIS error drift  Gradient drift
       19            3.8790E-10         6.6370E-08       5.0528E-06
 ======================================================================
 ITERATION STEP  21
 CPU time [min]:     1.698                   Wall time [min]:     0.051
 

 SCF control                  : diis
 Damping factor/level shift   : 0.000/0.000
 DIIS [start/end/frequency]   :   2 / 50 /  1

 Gradient norm:      2.3902E-07
 DIIS is running in this iteration step.
 RMS of [F,P]:                                         0.00000000693347
 RMS of difference density:                            0.00000003613694
 Gap [au]:  0.15501507
 ALPHA OCC:  38
 BETA  OCC:  38
 
 ***HARTREE-FOCK ENERGY IN STEP  21 IS       -779.9584777618370026 [AU]
 
 Step comparison  Energy Drift [au]  DIIS error drift  Gradient drift
       20            1.0232E-11         1.4641E-08       7.1453E-07
 ======================================================================
 
 SUCCESS...
 THE SCF ITERATION HAS CONVERGED!
 
                   A   
 FINAL ALPHA OCC:  38
 FINAL BETA  OCC:  38
 
 ***FINAL HARTREE-FOCK ENERGY:       -779.9584777618370026 [AU]
 
 Orbital energies [au]:
      Irrep         Alpha          Beta
    1   A         -5.055992      -5.055992
    2   A         -5.055736      -5.055736
    3   A         -5.054888      -5.054888
    4   A         -5.054851      -5.054851
    5   A         -3.398809      -3.398809
    6   A         -3.398016      -3.398016
    7   A         -3.393133      -3.393133
    8   A         -3.393069      -3.393069
    9   A         -3.392607      -3.392607
   10   A         -3.392348      -3.392348
   11   A         -3.392227      -3.392227
   12   A         -3.392055      -3.392055
   13   A         -3.391751      -3.391751
   14   A         -3.391324      -3.391324
   15   A         -3.390689      -3.390689
   16   A         -3.390647      -3.390647
   17   A         -0.545579      -0.545579
   18   A         -0.527855      -0.527855
   19   A         -0.527521      -0.527521
   20   A         -0.524072      -0.524072
   21   A         -0.523957      -0.523957
   22   A         -0.512623      -0.512623
   23   A         -0.505380      -0.505380
   24   A         -0.504049      -0.504049
   25   A         -0.503011      -0.503011
   26   A         -0.490716      -0.490716
   27   A         -0.490415      -0.490415
   28   A         -0.487261      -0.487261
   29   A         -0.486757      -0.486757
   30   A         -0.478022      -0.478022
   31   A         -0.476469      -0.476469
   32   A         -0.475366      -0.475366
   33   A         -0.475098      -0.475098
   34   A         -0.468480      -0.468480
   35   A         -0.459790      -0.459790
   36   A         -0.459019      -0.459019
   37   A         -0.340276      -0.340276
   38   A         -0.162380      -0.162380
 
   39   A         -0.007364      -0.007364
   40   A         -0.006328      -0.006328
   41   A          0.028729       0.028729
   42   A          0.055818       0.055818
   43   A          0.056452       0.056452
   44   A          0.056835       0.056835
   45   A          0.059638       0.059638
   46   A          0.060262       0.060262
   47   A          0.082429       0.082429
   48   A          0.082781       0.082781
   49   A          0.083352       0.083352
   50   A          0.095942       0.095942
   51   A          0.098792       0.098792
   52   A          0.098839       0.098839
   53   A          0.133185       0.133185
   54   A          0.171297       0.171297
   55   A          0.172221       0.172221
   56   A          0.180534       0.180534
   57   A          0.183299       0.183299
   58   A          0.202422       0.202422
   59   A          0.292599       0.292599
   60   A          0.293287       0.293287
   61   A          0.299163       0.299163
   62   A          0.319799       0.319799
   63   A          0.321844       0.321844
   64   A          0.407262       0.407262
   65   A          0.834438       0.834438
   66   A          0.834763       0.834763
   67   A          0.853100       0.853100
   68   A          0.887458       0.887458
   69   A          0.937393       0.937393
   70   A          0.941752       0.941752
   71   A          1.013092       1.013092
   72   A          1.041790       1.041790
   73   A          1.059889       1.059889
   74   A          1.132467       1.132467
   75   A          1.135610       1.135610
   76   A          1.213899       1.213899
   77   A          1.251384       1.251384
   78   A          1.265699       1.265699
   79   A          1.268908       1.268908
   80   A          1.353171       1.353171
   81   A          1.360619       1.360619
   82   A          1.506295       1.506295
   83   A          1.540230       1.540230
   84   A          1.545370       1.545370
   85   A          1.588076       1.588076
   86   A          1.606685       1.606685
   87   A          2.837838       2.837838
   88   A          2.879727       2.879727
 
 RETURNING FROM SCF ALGORITHM
 ======================================================================

 ************************ 2023-08-17 09:44:53 *************************
 Executing ovirt...

 ovirt, the routine of orbital optimization and integral transformation 
Thu Aug 17 09:44:53 BST 2023
 memory =                1536000  Mb          201326592000  8 byte word
 mrccboot = T
 scftype  = rhf  
 localcc  = off 
 core     = 16    
 ovirt    = off  
 ccprog   = mrcc
 dfnbasis =                      0
 dfbasis_cor =none                
 lmp2dens = on 
 dens =                      0
 verblev =                      3
 task     =                      4
 epsilon =   0.000000000000000E+000
 lmp2= on 
 localNO  =  F
 localMP2 =  F
 localMP2_TEST =  F
 LMP2_shortcut =  F
 FOCKTR   =  T
 Allocated memory:                 1536000  Mb
 onbasis=                    88
 RHF calculation! 
 integral transforamtion: AOs ------ MOs
 # of basis functions, # of int. blocks    88     1
100 % 
 second part
100 %
 integral transformation is completed! 
CPU and WC time          69.19           4.37     AOs -> MOs 
 occupied and 
     1 -0.5455785512
     2 -0.5278548883
     3 -0.5275213646
     4 -0.5240722239
     5 -0.5239570808
     6 -0.5126233051
     7 -0.5053796730
     8 -0.5040491926
     9 -0.5030114731
    10 -0.4907155062
    11 -0.4904153634
    12 -0.4872613583
    13 -0.4867573549
    14 -0.4780219653
    15 -0.4764690238
    16 -0.4753655832
    17 -0.4750976685
    18 -0.4684799352
    19 -0.4597896128
    20 -0.4590191593
    21 -0.3402757257
    22 -0.1623795264
               virtual energies 
    23 -0.0073644562
    24 -0.0063278891
    25  0.0287285050
    26  0.0558183778
    27  0.0564522508
    28  0.0568351145
    29  0.0596380986
    30  0.0602615451
    31  0.0824292181
    32  0.0827812017
    33  0.0833519244
    34  0.0959421138
    35  0.0987921115
    36  0.0988387073
    37  0.1331847127
    38  0.1712973688
    39  0.1722210629
    40  0.1805343740
    41  0.1832993857
    42  0.2024222672
    43  0.2925993351
    44  0.2932873062
    45  0.2991633006
    46  0.3197990026
    47  0.3218442240
    48  0.4072621355
    49  0.8344382172
    50  0.8347631196
    51  0.8530997593
    52  0.8874575376
    53  0.9373929283
    54  0.9417518853
    55  1.0130919161
    56  1.0417895366
    57  1.0598890903
    58  1.1324667251
    59  1.1356095436
    60  1.2138986318
    61  1.2513839545
    62  1.2656985550
    63  1.2689079004
    64  1.3531708212
    65  1.3606193520
    66  1.5062949779
    67  1.5402296735
    68  1.5453702314
    69  1.5880759273
    70  1.6066847287
    71  2.8378378249
    72  2.8797266358
 inttol =   1.000000000000000E-010   10.0000000000000     
Integrals are written to fort.55
Thu Aug 17 09:45:04 BST 2023
  ovirt terminated normally 

 ************************ 2023-08-17 09:45:04 *************************
 Executing goldstone...

 Generation of CC equations in terms of H and T...
 Generation of antisymmetrized Goldstone diagrams...
 Number of diagrams in T^1 equations:    15
 Number of diagrams in T^2 equations:    33
 Number of diagrams in T^3 equations:     2
 Translation of diagrams to factorized equations...
 Optimizing intermediate calculation...
 Number of floating-point operations per iteration step:   2.9963E+12
 Probable CPU time per iteration step (hours):     29.96
 Required memory (Mbytes):   16338.8
 Number of intermediates:                                  48
 Number of intermediates to be stored:                     20
 Length of intermediate file (Mbytes):     483.2

 ************************ 2023-08-17 09:45:04 *************************
 Executing xmrcc...

 **********************************************************************
 CC(2)(3) calculation 
 
 
 Allocation of****** Mbytes of memory...
 Number of spinorbitals:                   144
 Number of alpha electrons:                       22
 Number of beta electrons:                        22
 Spin multiplicity:                     1
 z-component of spin:  0.0
 Spatial symmetry:                      1
 Convergence criterion:  1.0E-06
 Construction of occupation graphs...
 Number of                     0 -fold excitations:                      1
 Number of                     1 -fold excitations:                   2200
 Number of                     2 -fold excitations:                1775950
 Total number of configurations:                1778151
 Calculation of coupling coefficients...
 Length of intermediate file (Mbytes):     364.0
 
 ======================================================================
 
 Spin case  1   Alpha:  0   Beta:  3
 Number of excitations:               30184000
 Spin case  2   Alpha:  1   Beta:  2
 Number of excitations:              311272500
 Number of                     3 -fold excitations:              682913000
 
 Memory requirements /Mbyte/: 
               Minimal        Optimal
 Real*8:        803.0159       916.1870
 Integer:         0.5524
 Total:         803.5683       916.7394
 

 ************************ 2023-08-17 09:45:05 *************************
 Executing mrcc...

 **********************************************************************
 CCSD(T) calculation                                                    
 
 
 OpenMP parallel version is running.
 Number of CPU cores:  36
 Allocation of  916.2 Mbytes of memory...
 Number of spinorbitals: 144
 Number of alpha electrons: 22
 Number of beta  electrons: 22
 Spin multiplicity: 1
 z-component of spin:  0.0
 Spatial symmetry: 1
 Convergence criterion:  1.0E-06
 Construction of occupation graphs...
 Number of 0-fold excitations: 1
 Number of 1-fold excitations: 2200
 Number of 2-fold excitations: 1775950
 Total number of determinants: 1778151
 Calculation of coupling coefficients...
 Initial cluster amplitudes are generated.
 Length of intermediate file (Mbytes):     364.0
 Reading integral list from unit 55...
 Sorting integrals...
 Calculation of MP denominators...
 
 Starting CC iteration...
 ======================================================================
 Norm of residual vector:     1.46604102
 CPU time [min]:     9.017                   Wall time [min]:     0.413
 
 Iteration  1  CC energy:  -780.70074255  Energy decrease:   0.74226479
 ======================================================================
 Norm of residual vector:     0.52331060
 CPU time [min]:    18.395                   Wall time [min]:     0.736
 
 Iteration  2  CC energy:  -780.56925903  Energy decrease:   0.13148352
 ======================================================================
 Norm of residual vector:     0.09848522
 CPU time [min]:    27.739                   Wall time [min]:     1.059
 
 Iteration  3  CC energy:  -780.58196845  Energy decrease:   0.01270942
 ======================================================================
 Norm of residual vector:     0.04314116
 CPU time [min]:    37.252                   Wall time [min]:     1.386
 
 Iteration  4  CC energy:  -780.58959130  Energy decrease:   0.00762285
 ======================================================================
 Norm of residual vector:     0.02211302
 CPU time [min]:    46.746                   Wall time [min]:     1.712
 
 Iteration  5  CC energy:  -780.59203644  Energy decrease:   0.00244514
 ======================================================================
 Norm of residual vector:     0.01122531
 CPU time [min]:    56.370                   Wall time [min]:     2.043
 
 Iteration  6  CC energy:  -780.59148613  Energy decrease:   0.00055031
 ======================================================================
 Norm of residual vector:     0.00738634
 CPU time [min]:    66.030                   Wall time [min]:     2.374
 
 Iteration  7  CC energy:  -780.59141738  Energy decrease:   0.00006874
 ======================================================================
 Norm of residual vector:     0.00387761
 CPU time [min]:    75.845                   Wall time [min]:     2.709
 
 Iteration  8  CC energy:  -780.59156851  Energy decrease:   0.00015113
 ======================================================================
 Norm of residual vector:     0.00244593
 CPU time [min]:    85.643                   Wall time [min]:     3.043
 
 Iteration  9  CC energy:  -780.59161458  Energy decrease:   0.00004607
 ======================================================================
 Norm of residual vector:     0.00136187
 CPU time [min]:    95.621                   Wall time [min]:     3.384
 
 Iteration 10  CC energy:  -780.59161966  Energy decrease:   0.00000508
 ======================================================================
 Norm of residual vector:     0.00090225
 CPU time [min]:   105.584                   Wall time [min]:     3.723
 
 Iteration 11  CC energy:  -780.59161558  Energy decrease:   0.00000408
 ======================================================================
 Norm of residual vector:     0.00052960
 CPU time [min]:   115.739                   Wall time [min]:     4.068
 
 Iteration 12  CC energy:  -780.59161157  Energy decrease:   0.00000401
 ======================================================================
 Norm of residual vector:     0.00032961
 CPU time [min]:   125.846                   Wall time [min]:     4.411
 
 Iteration 13  CC energy:  -780.59161114  Energy decrease:   0.00000043
 ======================================================================
 Norm of residual vector:     0.00017769
 CPU time [min]:   136.139                   Wall time [min]:     4.760
 
 Iteration 14  CC energy:  -780.59160995  Energy decrease:   0.00000119
 ======================================================================
 Norm of residual vector:     0.00010071
 CPU time [min]:   146.416                   Wall time [min]:     5.108
 
 Iteration 15  CC energy:  -780.59160893  Energy decrease:   0.00000102
 ======================================================================
 Norm of residual vector:     0.00005476
 CPU time [min]:   156.872                   Wall time [min]:     5.460
 
 Iteration 16  CC energy:  -780.59160938  Energy decrease:   0.00000045
 ======================================================================
 Norm of residual vector:     0.00002945
 CPU time [min]:   167.302                   Wall time [min]:     5.812
 
 Iteration 17  CC energy:  -780.59160979  Energy decrease:   0.00000041
 ======================================================================
 Norm of residual vector:     0.00001700
 CPU time [min]:   177.868                   Wall time [min]:     6.169
 
 Iteration 18  CC energy:  -780.59160949  Energy decrease:   0.00000030
 ======================================================================
 Norm of residual vector:     0.00001107
 CPU time [min]:   188.448                   Wall time [min]:     6.525
 
 Iteration 19  CC energy:  -780.59160939  Energy decrease:   0.00000010
 ======================================================================
 Norm of residual vector:     0.00000715
 CPU time [min]:   199.204                   Wall time [min]:     6.889
 
 Iteration 20  CC energy:  -780.59160952  Energy decrease:   0.00000012
 ======================================================================
 Norm of residual vector:     0.00000521
 CPU time [min]:   209.940                   Wall time [min]:     7.250
 
 Iteration 21  CC energy:  -780.59160957  Energy decrease:   0.00000006
 ======================================================================
 Norm of residual vector:     0.00000399
 CPU time [min]:   220.826                   Wall time [min]:     7.617
 
 Iteration 22  CC energy:  -780.59160948  Energy decrease:   0.00000009
 ======================================================================
 Norm of residual vector:     0.00000336
 CPU time [min]:   231.731                   Wall time [min]:     7.982
 
 Iteration 23  CC energy:  -780.59160946  Energy decrease:   0.00000002
 ======================================================================
 Norm of residual vector:     0.00000304
 CPU time [min]:   242.768                   Wall time [min]:     8.353
 
 Iteration 24  CC energy:  -780.59160953  Energy decrease:   0.00000007
 ======================================================================
 Norm of residual vector:     0.00000265
 CPU time [min]:   253.893                   Wall time [min]:     8.725
 
 Iteration 25  CC energy:  -780.59160954  Energy decrease:   0.00000001
 ======================================================================
 Norm of residual vector:     0.00000209
 CPU time [min]:   265.019                   Wall time [min]:     9.096
 
 Iteration 26  CC energy:  -780.59160949  Energy decrease:   0.00000005
 ======================================================================
 Norm of residual vector:     0.00000140
 CPU time [min]:   276.340                   Wall time [min]:     9.473
 
 Iteration 27  CC energy:  -780.59160949  Energy decrease:   7.5079E-10
 ======================================================================
 Norm of residual vector:     0.00000086
 CPU time [min]:   287.625                   Wall time [min]:     9.848
 
 Iteration 28  CC energy:  -780.59160951  Energy decrease:   0.00000002
 ======================================================================
 
 Iteration has converged in 28 steps.
 
 Final results:
 Total CCSD energy [au]:            -780.591609510690
 Total MP2 energy [au]:             -780.700742548629
 
 Perturbative corrections are calculated...
 ======================================================================
 Spin case  1   Alpha:  0   Beta:  3
 Number of excitations:        30184000
 CPU time [min]:   288.135                   Wall time [min]:     9.870
 ======================================================================
 Spin case  2   Alpha:  1   Beta:  2
 Number of excitations:        311272500
 CPU time [min]:   290.895                   Wall time [min]:     9.947
 ======================================================================
 Number of 3-fold excitations: 682913000
 CPU time [min]:   290.895                   Wall time [min]:     9.947
 
 Total CCSD[T] energy [au]:         -780.697559426950
 Total CCSD(T) energy [au]:         -780.664048413713
 
 ************************ 2023-08-17 09:55:02 *************************
                      Normal termination of mrcc.
 **********************************************************************
