 vasp.6.3.0 20Jan22 (build Apr  1 2022 16:44:48) complex                         
 executed on        HPECrayEX_GCC date 2023.01.06  21:19:00
 running  768 mpi-ranks, with    1 threads/rank
 distrk:  each k-point on  384 cores,    2 groups
 distr:  one band on NCORE=   4 cores,   96 groups


--------------------------------------------------------------------------------------------------------


 INCAR:
   SYSTEM = MgO-rocksalt
   ISMEAR = 0
   SIGMA = 0.05
   EDIFF = 1E-6
   ALGO = ALL
   ISTART = 0
   IBRION = -1
   NSW = 0
   ISYM = 2
   GGA = PS
   IVDW = 13
   VDW_S8 = 1.71885698
   VDW_A1 = 0.47901421
   VDW_A2 = 5.96771589
   ENCUT = 520
   PREC = Accurate
   LASPH = .TRUE.
   LREAL = Auto
   ISPIN = 1
   NELM = 200
   NELMIN = 8
   NCORE = 4
   KPAR = 2
   LWAVE = .FALSE.
   LCHARG = .FALSE.

 POTCAR:    PAW_PBE Ag 02Apr2005                  
 POTCAR:    PAW_PBE Ag 02Apr2005                  
   SHA256 =  6550cfa3543261e132c169e1b98a529204624d72be14e2da2e0242bcb74a174d Ag/POTCAR             
   COPYR  = (c) Copyright 02Apr2005 Georg Kresse                                                    
   COPYR  = This file is part of the software VASP. Any use, copying, and all other rights are regul
   COPYR  = If you do not have a valid VASP license, you may not use, copy or distribute this file. 
   VRHFIN =Ag : s1 d10                                                                              
   LEXCH  = PE                                                                                      
   EATOM  =  1037.2675 eV,   76.2370 Ry                                                             
                                                                                                    
   TITEL  = PAW_PBE Ag 02Apr2005                                                                    
   LULTRA =        F    use ultrasoft PP ?                                                          
   IUNSCR =        1    unscreen: 0-lin 1-nonlin 2-no                                               
   RPACOR =    2.000    partial core radius                                                         
   POMASS =  107.868; ZVAL   =   11.000    mass and valenz                                          
   RCORE  =    2.500    outmost cutoff radius                                                       
   RWIGS  =    2.840; RWIGS  =    1.503    wigner-seitz radius (au A)                               
   ENMAX  =  249.844; ENMIN  =  187.383 eV                                                          
   ICORE  =        3    local potential                                                             
   LCOR   =        T    correct aug charges                                                         
   LPAW   =        T    paw PP                                                                      
   EAUG   =  412.496                                                                                
   DEXC   =    0.000                                                                                
   RMAX   =    2.560    core radius for proj-oper                                                   
   RAUG   =    1.300    factor for augmentation sphere                                              
   RDEP   =    2.576    radius for radial grids                                                     
   RDEPT  =    2.072    core radius for aug-charge                                                  
                                                                                                    
   Atomic configuration                                                                             
   12 entries                                                                                       
     n  l   j            E        occ.                                                              
     1  0  0.50    -25324.9161   2.0000                                                             
     2  0  0.50     -3728.5341   2.0000                                                             
     2  1  1.50     -3344.0404   6.0000                                                             
     3  0  0.50      -683.5581   2.0000                                                             
     3  1  1.50      -557.3225   6.0000                                                             
     3  2  2.50      -358.3853  10.0000                                                             
     4  0  0.50       -95.0341   2.0000                                                             
     4  1  1.50       -58.5511   6.0000                                                             
     4  2  2.50        -7.4440  10.0000                                                             
     5  0  0.50        -4.4045   1.0000                                                             
     5  1  0.50        -1.3606   0.0000                                                             
     4  3  2.50        -1.3606   0.0000                                                             
   Description                                                                                      
     l       E           TYP  RCUT    TYP  RCUT                                                     
     2     -7.4439781     23  2.400                                                                 
     2     -8.8045607     23  2.400                                                                 
     0     -4.4044681     23  2.400                                                                 
     0      1.9520038     23  2.400                                                                 
     1     -1.3605826     23  2.500                                                                 
     1     27.2116520     23  2.500                                                                 
     3     -4.0817478     23  2.400                                                                 
  local pseudopotential read in
  partial core-charges read in
  partial kinetic energy density read in
  atomic valenz-charges read in
  non local Contribution for L=           2  read in
    real space projection operators read in
  non local Contribution for L=           2  read in
    real space projection operators read in
  non local Contribution for L=           0  read in
    real space projection operators read in
  non local Contribution for L=           0  read in
    real space projection operators read in
  non local Contribution for L=           1  read in
    real space projection operators read in
  non local Contribution for L=           1  read in
    real space projection operators read in
    PAW grid and wavefunctions read in

   number of l-projection  operators is LMAX  =           6
   number of lm-projection operators is LMMAX =          18

 -----------------------------------------------------------------------------
|                                                                             |
|               ----> ADVICE to this user running VASP <----                  |
|                                                                             |
|     You have a (more or less) 'small supercell' and for smaller cells       |
|     it is recommended to use the reciprocal-space projection scheme!        |
|     The real-space optimization is not efficient for small cells and it     |
|     is also less accurate ...                                               |
|     Therefore, set LREAL=.FALSE. in the INCAR file.                         |
|                                                                             |
 -----------------------------------------------------------------------------

 Optimization of the real space projectors (new method)

 maximal supplied QI-value         = 15.12
 optimisation between [QCUT,QGAM] = [ 11.64, 23.28] = [ 37.95,151.78] Ry 
 Optimized for a Real-space Cutoff    1.45 Angstroem

   l    n(q)    QCUT    max X(q) W(low)/X(q) W(high)/X(q)  e(spline) 
   2      9    11.641    53.897    0.22E-03    0.42E-04    0.28E-06
   2      9    11.641    52.416    0.23E-03    0.44E-04    0.29E-06
   0     10    11.641   122.045    0.51E-04    0.25E-04    0.16E-06
   0     10    11.641    73.629    0.49E-04    0.24E-04    0.16E-06
   1     10    11.641    15.255    0.99E-04    0.55E-04    0.11E-06
   1     10    11.641     9.562    0.81E-04    0.47E-04    0.95E-07
 -----------------------------------------------------------------------------
|                                                                             |
|               ----> ADVICE to this user running VASP <----                  |
|                                                                             |
|     You enforced a specific xc type in the INCAR file but a different       |
|     type was found in the POTCAR file.                                      |
|     I HOPE YOU KNOW WHAT YOU ARE DOING!                                     |
|                                                                             |
 -----------------------------------------------------------------------------

  PAW_PBE Ag 02Apr2005                  :
 energy of atom  1       EATOM=-1037.2675
 kinetic energy error for atom=    0.0047 (will be added to EATOM!!)


 POSCAR: Ag
  positions in direct lattice
  velocities in cartesian coordinates
 -----------------------------------------------------------------------------
|                                                                             |
|           W    W    AA    RRRRR   N    N  II  N    N   GGGG   !!!           |
|           W    W   A  A   R    R  NN   N  II  NN   N  G    G  !!!           |
|           W    W  A    A  R    R  N N  N  II  N N  N  G       !!!           |
|           W WW W  AAAAAA  RRRRR   N  N N  II  N  N N  G  GGG   !            |
|           WW  WW  A    A  R   R   N   NN  II  N   NN  G    G                |
|           W    W  A    A  R    R  N    N  II  N    N   GGGG   !!!           |
|                                                                             |
|     Specifying the vdW parameters                                           |
|     VDW_S8 = 1.719                                                          |
|     VDW_A1 = 0.479                                                          |
|     VDW_A2 = 5.968                                                          |
|     in the INCAR file will overwrite the defaults for pbesol. Please        |
|     make sure that is what you intended.                                    |
|                                                                             |
 -----------------------------------------------------------------------------

 exchange correlation table for  LEXCH =       14
   RHO(1)=    0.500       N(1)  =     2000
   RHO(2)=  100.500       N(2)  =     4000



--------------------------------------------------------------------------------------------------------


 ion  position               nearest neighbor table
   1  0.588  0.521  0.535-   7 2.66   2 2.66   6 2.75   8 2.75
   2  0.596  0.449  0.647-   1 2.66   8 2.66
   3  0.404  0.552  0.353-   6 2.66   5 2.66
   4  0.362  0.392  0.552-   5 2.66   8 2.66
   5  0.412  0.479  0.464-   4 2.66   3 2.66   8 2.75   6 2.75
   6  0.516  0.560  0.425-   7 2.66   3 2.66   1 2.75   5 2.75
   7  0.638  0.608  0.448-   6 2.66   1 2.66
   8  0.484  0.440  0.575-   4 2.66   2 2.66   5 2.75   1 2.75

  LATTYP: Found a simple cubic cell.
 ALAT       =    20.0000000000
  
  Lattice vectors:
  
 A1 = (  20.0000000000,   0.0000000000,   0.0000000000)
 A2 = (   0.0000000000,  20.0000000000,   0.0000000000)
 A3 = (   0.0000000000,   0.0000000000,  20.0000000000)


Analysis of symmetry for initial positions (statically):
=====================================================================
 Subroutine PRICEL returns:
 Original cell was already a primitive cell.
 

 Routine SETGRP: Setting up the symmetry group for a 
 simple cubic supercell.


 Subroutine GETGRP returns: Found  1 space group operations
 (whereof  1 operations were pure point group operations)
 out of a pool of 48 trial point group operations.


The static configuration has the point symmetry C_1 .


Analysis of symmetry for dynamics (positions and initial velocities):
=====================================================================
 Subroutine PRICEL returns:
 Original cell was already a primitive cell.
 

 Routine SETGRP: Setting up the symmetry group for a 
 simple cubic supercell.


 Subroutine GETGRP returns: Found  1 space group operations
 (whereof  1 operations were pure point group operations)
 out of a pool of 48 trial point group operations.


The dynamic configuration has the point symmetry C_1 .


 Subroutine INISYM returns: Found  1 space group operations
 (whereof  1 operations are pure point group operations),
 and found     1 'primitive' translations


----------------------------------------------------------------------------------------

                                     Primitive cell                                     

  volume of cell :    8000.0000

  direct lattice vectors                    reciprocal lattice vectors
    20.000000000  0.000000000  0.000000000     0.050000000  0.000000000  0.000000000
     0.000000000 20.000000000  0.000000000     0.000000000  0.050000000  0.000000000
     0.000000000  0.000000000 20.000000000     0.000000000  0.000000000  0.050000000

  length of vectors
    20.000000000 20.000000000 20.000000000     0.050000000  0.050000000  0.050000000

  position of ions in fractional coordinates (direct lattice)
     0.587874898  0.521396625  0.535307139
     0.595841417  0.448902079  0.646532802
     0.403713760  0.551964670  0.353475111
     0.362298954  0.392011629  0.551856992
     0.412026852  0.478744150  0.464230026
     0.515639690  0.560375333  0.424863905
     0.637714130  0.607956760  0.447532726
     0.484207769  0.439914871  0.574757932

  ion indices of the primitive-cell ions
   primitive index   ion index
                 1           1
                 2           2
                 3           3
                 4           4
                 5           5
                 6           6
                 7           7
                 8           8

----------------------------------------------------------------------------------------



 KPOINTS: KPOINTS created by Atomic Simulation Env

Automatic generation of k-mesh.
 Grid dimensions read from file:
 generate k-points for:    1    1    1

 Generating k-lattice:

  Cartesian coordinates                     Fractional coordinates (reciprocal lattice)
     0.050000000  0.000000000  0.000000000     1.000000000  0.000000000  0.000000000
     0.000000000  0.050000000  0.000000000     0.000000000  1.000000000  0.000000000
     0.000000000  0.000000000  0.050000000     0.000000000  0.000000000  1.000000000

  Length of vectors
     0.050000000  0.050000000  0.050000000

  Shift w.r.t. Gamma in fractional coordinates (k-lattice)
     0.000000000  0.000000000  0.000000000

 
 Subroutine IBZKPT returns following result:
 ===========================================
 
 Found      1 irreducible k-points:
 
 Following reciprocal coordinates:
            Coordinates               Weight
  0.000000  0.000000  0.000000      1.000000
 
 Following cartesian coordinates:
            Coordinates               Weight
  0.000000  0.000000  0.000000      1.000000
 


--------------------------------------------------------------------------------------------------------




 Dimension of arrays:
   k-points           NKPTS =      1   k-points in BZ     NKDIM =      1   number of bands    NBANDS=     96
   number of dos      NEDOS =    301   number of ions     NIONS =      8
   non local maximal  LDIM  =      6   non local SUM 2l+1 LMDIM =     18
   total plane-waves  NPLWV = ******
   max r-space proj   IRMAX =   5390   max aug-charges    IRDMAX=  20940
   dimension x,y,z NGX =   150 NGY =  150 NGZ =  150
   dimension x,y,z NGXF=   300 NGYF=  300 NGZF=  300
   support grid    NGXF=   300 NGYF=  300 NGZF=  300
   ions per type =               8
   NGX,Y,Z   is equivalent  to a cutoff of  12.47, 12.47, 12.47 a.u.
   NGXF,Y,Z  is equivalent  to a cutoff of  24.94, 24.94, 24.94 a.u.

 SYSTEM =  MgO-rocksalt                            
 POSCAR =  Ag                                      

 Startparameter for this run:
   NWRITE =      2    write-flag & timer
   PREC   = accura    normal or accurate (medium, high low for compatibility)
   ISTART =      0    job   : 0-new  1-cont  2-samecut
   ICHARG =      2    charge: 1-file 2-atom 10-const
   ISPIN  =      1    spin polarized calculation?
   LNONCOLLINEAR =      F non collinear calculations
   LSORBIT =      F    spin-orbit coupling
   INIWAV =      1    electr: 0-lowe 1-rand  2-diag
   LASPH  =      T    aspherical Exc in radial PAW
 Electronic Relaxation 1
   ENCUT  =  520.0 eV  38.22 Ry    6.18 a.u.  37.19 37.19 37.19*2*pi/ulx,y,z
   ENINI  =  520.0     initial cutoff
   ENAUG  =  412.5 eV  augmentation charge cutoff
   NELM   =    200;   NELMIN=  8; NELMDL= -5     # of ELM steps 
   EDIFF  = 0.1E-05   stopping-criterion for ELM
   LREAL  =      T    real-space projection
   NLSPLINE    = F    spline interpolate recip. space projectors
   LCOMPAT=      F    compatible to vasp.4.4
   GGA_COMPAT  = T    GGA compatible to vasp.4.4-vasp.4.6
   LMAXPAW     = -100 max onsite density
   LMAXMIX     =    2 max onsite mixed and CHGCAR
   VOSKOWN=      0    Vosko Wilk Nusair interpolation
   ROPT   =   -0.00025
 Ionic relaxation
   EDIFFG = 0.1E-04   stopping-criterion for IOM
   NSW    =      0    number of steps for IOM
   NBLOCK =      1;   KBLOCK =      1    inner block; outer block 
   IBRION =     -1    ionic relax: 0-MD 1-quasi-New 2-CG
   NFREE  =      0    steps in history (QN), initial steepest desc. (CG)
   ISIF   =      2    stress and relaxation
   IWAVPR =     10    prediction:  0-non 1-charg 2-wave 3-comb
   ISYM   =      2    0-nonsym 1-usesym 2-fastsym
   LCORR  =      T    Harris-Foulkes like correction to forces

   POTIM  = 0.5000    time-step for ionic-motion
   TEIN   =    0.0    initial temperature
   TEBEG  =    0.0;   TEEND  =   0.0 temperature during run
   SMASS  =  -3.00    Nose mass-parameter (am)
   estimated Nose-frequenzy (Omega)   =  0.10E-29 period in steps = 0.13E+47 mass=  -0.914E-26a.u.
   SCALEE = 1.0000    scale energy and forces
   NPACO  =    256;   APACO  = 10.0  distance and # of slots for P.C.
   PSTRESS=    0.0 pullay stress

  Mass of Ions in am
   POMASS = 107.87
  Ionic Valenz
   ZVAL   =  11.00
  Atomic Wigner-Seitz radii
   RWIGS  =  -1.00
  virtual crystal weights 
   VCA    =   1.00
   NELECT =      88.0000    total number of electrons
   NUPDOWN=      -1.0000    fix difference up-down

 DOS related values:
   EMIN   =  10.00;   EMAX   =-10.00  energy-range for DOS
   EFERMI =   0.00
   ISMEAR =     0;   SIGMA  =   0.05  broadening in eV -4-tet -1-fermi 0-gaus

 Electronic relaxation 2 (details)
   IALGO  =     58    algorithm
   LDIAG  =      T    sub-space diagonalisation (order eigenvalues)
   LSUBROT=      F    optimize rotation matrix (better conditioning)
   TURBO    =      0    0=normal 1=particle mesh
   IRESTART =      0    0=no restart 2=restart with 2 vectors
   NREBOOT  =      0    no. of reboots
   NMIN     =      0    reboot dimension
   EREF     =   0.00    reference energy to select bands
   IMIX   =      4    mixing-type and parameters
     AMIX     =   0.40;   BMIX     =  1.00
     AMIX_MAG =   1.60;   BMIX_MAG =  1.00
     AMIN     =   0.10
     WC   =   100.;   INIMIX=   1;  MIXPRE=   1;  MAXMIX= -45

 Intra band minimization:
   WEIMIN = 0.0000     energy-eigenvalue tresh-hold
   EBREAK =  0.26E-08  absolut break condition
   DEPER  =   0.30     relativ break condition  

   TIME   =   0.40     timestep for ELM

  volume/ion in A,a.u.               =    1000.00      6748.33
  Fermi-wavevector in a.u.,A,eV,Ry     =   0.364087  0.688026  1.803584  0.132560
  Thomas-Fermi vector in A             =   1.286639

 Write flags
   LWAVE        =      F    write WAVECAR
   LDOWNSAMPLE  =      F    k-point downsampling of WAVECAR
   LCHARG       =      F    write CHGCAR
   LVTOT        =      F    write LOCPOT, total local potential
   LVHAR        =      F    write LOCPOT, Hartree potential only
   LELF         =      F    write electronic localiz. function (ELF)
   LORBIT       =      0    0 simple, 1 ext, 2 COOP (PROOUT), +10 PAW based schemes


 Dipole corrections
   LMONO  =      F    monopole corrections only (constant potential shift)
   LDIPOL =      F    correct potential (dipole corrections)
   IDIPOL =      0    1-x, 2-y, 3-z, 4-all directions 
   EPSILON=  1.0000000 bulk dielectric constant

 Exchange correlation treatment:
   GGA     =    PS    GGA type
   LEXCH   =    14    internal setting for exchange type
   LIBXC   =     F    Libxc                    
   VOSKOWN =     0    Vosko Wilk Nusair interpolation
   LHFCALC =     F    Hartree Fock is set to
   LHFONE  =     F    Hartree Fock one center treatment
   AEXX    =    0.0000 exact exchange contribution

 Linear response parameters
   LEPSILON=     F    determine dielectric tensor
   LRPA    =     F    only Hartree local field effects (RPA)
   LNABLA  =     F    use nabla operator in PAW spheres
   LVEL    =     F    velocity operator in full k-point grid
   CSHIFT  =0.1000    complex shift for real part using Kramers Kronig
   OMEGAMAX=  -1.0    maximum frequency
   DEG_THRESHOLD= 0.2000000E-02 threshold for treating states as degnerate
   RTIME   =   -0.100 relaxation time in fs
  (WPLASMAI=    0.000 imaginary part of plasma frequency in eV, 0.658/RTIME)
   DFIELD  = 0.0000000 0.0000000 0.0000000 field for delta impulse in time

  Optional k-point grid parameters
   LKPOINTS_OPT  =     F    use optional k-point grid
   KPOINTS_OPT_MODE=     1    mode for optional k-point grid

 Orbital magnetization related:
   ORBITALMAG=     F  switch on orbital magnetization
   LCHIMAG   =     F  perturbation theory with respect to B field
   DQ        =  0.001000  dq finite difference perturbation B field
   LLRAUG    =     F  two centre corrections for induced B field



--------------------------------------------------------------------------------------------------------


 Static calculation
 charge density and potential will be updated during run
 non-spin polarized calculation
 Conjugate gradient for all bands (Freysoldt, et al. PRB 79, 241103 (2009))
 preconditioned conjugated gradient                                        
 perform sub-space diagonalisation
    before iterative eigenvector-optimisation
 modified Broyden-mixing scheme, WC =      100.0
 initial mixing is a Kerker type mixing with AMIX =  0.4000 and BMIX =      1.0000
 Hartree-type preconditioning will be used
 using additional bands           52
 real space projection scheme for non local part
 use partial core corrections
 no Harris-corrections to forces 
 use gradient corrections 
 use of overlap-Matrix (Vanderbilt PP)
 Gauss-broadening in eV      SIGMA  =   0.05


--------------------------------------------------------------------------------------------------------


  energy-cutoff  :      520.00
  volume of cell :     8000.00
      direct lattice vectors                 reciprocal lattice vectors
    20.000000000  0.000000000  0.000000000     0.050000000  0.000000000  0.000000000
     0.000000000 20.000000000  0.000000000     0.000000000  0.050000000  0.000000000
     0.000000000  0.000000000 20.000000000     0.000000000  0.000000000  0.050000000

  length of vectors
    20.000000000 20.000000000 20.000000000     0.050000000  0.050000000  0.050000000



 k-points in units of 2pi/SCALE and weight: KPOINTS created by Atomic Simulation Env
   0.00000000  0.00000000  0.00000000       1.000

 k-points in reciprocal lattice and weights: KPOINTS created by Atomic Simulation Env
   0.00000000  0.00000000  0.00000000       1.000

 position of ions in fractional coordinates (direct lattice) 
   0.58787490  0.52139663  0.53530714
   0.59584142  0.44890208  0.64653280
   0.40371376  0.55196467  0.35347511
   0.36229895  0.39201163  0.55185699
   0.41202685  0.47874415  0.46423003
   0.51563969  0.56037533  0.42486391
   0.63771413  0.60795676  0.44753273
   0.48420777  0.43991487  0.57475793

 position of ions in cartesian coordinates  (Angst):
  11.75749795 10.42793250 10.70614277
  11.91682835  8.97804158 12.93065603
   8.07427520 11.03929339  7.06950223
   7.24597907  7.84023259 11.03713983
   8.24053703  9.57488299  9.28460052
  10.31279381 11.20750665  8.49727811
  12.75428260 12.15913519  8.95065451
   9.68415539  8.79829742 11.49515865



--------------------------------------------------------------------------------------------------------


 k-point   1 :   0.0000 0.0000 0.0000  plane waves:  215503

 maximum and minimum number of plane-waves per node :     53900    53857

 maximum number of plane-waves:    215503
 maximum index in each direction: 
   IXMAX=   37   IYMAX=   37   IZMAX=   37
   IXMIN=  -37   IYMIN=  -37   IZMIN=  -37


 real space projection operators:
  total allocation   :       5831.72 KBytes
  max/ min on nodes  :       1462.36       1450.97


 parallel 3D FFT for wavefunctions:
    minimum data exchange during FFTs selected (reduces bandwidth)
 parallel 3D FFT for charge:
    minimum data exchange during FFTs selected (reduces bandwidth)


 total amount of memory used by VASP MPI-rank0   102131. kBytes
=======================================================================

   base      :      30000. kBytes
   nonlr-proj:       2524. kBytes
   fftplans  :      28354. kBytes
   grid      :      38630. kBytes
   one-center:         31. kBytes
   wavefun   :       2592. kBytes

     INWAV:  cpu time      0.0001: real time      0.0001
 Broyden mixing: mesh for mixing (old mesh)
   NGX = 75   NGY = 75   NGZ = 75
  (NGX  =300   NGY  =300   NGZ  =300)
  gives a total of 421875 points

 initial charge density was supplied:
 charge density of overlapping atoms calculated
 number of electron      88.0000000 magnetization 
 keeping initial charge density in first step


--------------------------------------------------------------------------------------------------------


 Maximum index for non-local projection operator         1312
 Maximum index for augmentation-charges            0 (set IRDMAX)


--------------------------------------------------------------------------------------------------------


 First call to EWALD:  gamma=   0.089
 Maximum number of real-space cells 3x 3x 3
 Maximum number of reciprocal cells 3x 3x 3

    FEWALD:  cpu time      0.0012: real time      0.0012


--------------------------------------- Iteration      1(   1)  ---------------------------------------


    POTLOK:  cpu time      0.1170: real time      0.1171
    SETDIJ:  cpu time      0.1760: real time      0.1762
    TRIAL :  cpu time      0.5452: real time      0.5455
    CORREC:  cpu time      0.0010: real time      0.0010
    --------------------------------------------
      LOOP:  cpu time      0.8402: real time      0.8409

 eigenvalue-minimisations  :   192
 total energy-change (2. order) : 0.6839426E+03  (-0.1944371E+04)
 number of electron      88.0000000 magnetization 
 augmentation part       88.0000000 magnetization 

 Free energy of the ion-electron system (eV)
  ---------------------------------------------------
  alpha Z        PSCENC =         6.80462455
  Ewald energy   TEWEN  =      5502.46304071
  -Hartree energ DENC   =    -13432.00567167
  -exchange      EXHF   =         0.00000000
  -V(xc)+E(xc)   XCENC  =       -81.64355828
  PAW double counting   =      8017.58431434    -7657.30472003
  entropy T*S    EENTRO =        -0.03503395
  eigenvalues    EBANDS =        32.07439846
  atomic energy  EATOM  =      8296.00520382
  ---------------------------------------------------
  free energy    TOTEN  =       683.94259796 eV

  energy without entropy =      683.97763191  energy(sigma->0) =      683.96011494


--------------------------------------------------------------------------------------------------------




--------------------------------------- Iteration      1(   2)  ---------------------------------------


    TRIAL :  cpu time      1.9375: real time      1.9380
    CORREC:  cpu time      0.0003: real time      0.0003
    --------------------------------------------
      LOOP:  cpu time      1.9416: real time      1.9469

 eigenvalue-minimisations  :   384
 total energy-change (2. order) :-0.6590105E+03  (-0.6585313E+03)
 number of electron      88.0000000 magnetization 
 augmentation part       88.0000000 magnetization 

 Free energy of the ion-electron system (eV)
  ---------------------------------------------------
  alpha Z        PSCENC =         6.80462455
  Ewald energy   TEWEN  =      5502.46304071
  -Hartree energ DENC   =    -13432.00567167
  -exchange      EXHF   =         0.00000000
  -V(xc)+E(xc)   XCENC  =       -81.64355828
  PAW double counting   =      8017.58431434    -7657.30472003
  entropy T*S    EENTRO =        -0.00000000
  eigenvalues    EBANDS =      -626.97115199
  atomic energy  EATOM  =      8296.00520382
  ---------------------------------------------------
  free energy    TOTEN  =        24.93208146 eV

  energy without entropy =       24.93208146  energy(sigma->0) =       24.93208146


--------------------------------------------------------------------------------------------------------




--------------------------------------- Iteration      1(   3)  ---------------------------------------


    TRIAL :  cpu time      0.5431: real time      0.5433
    CORREC:  cpu time      0.0003: real time      0.0003
    --------------------------------------------
      LOOP:  cpu time      0.5466: real time      0.5510

 eigenvalue-minimisations  :   192
 total energy-change (2. order) :-0.4129287E+02  (-0.4129287E+02)
 number of electron      88.0000000 magnetization 
 augmentation part       88.0000000 magnetization 

 Free energy of the ion-electron system (eV)
  ---------------------------------------------------
  alpha Z        PSCENC =         6.80462455
  Ewald energy   TEWEN  =      5502.46304071
  -Hartree energ DENC   =    -13432.00567167
  -exchange      EXHF   =         0.00000000
  -V(xc)+E(xc)   XCENC  =       -81.64355828
  PAW double counting   =      8017.58431434    -7657.30472003
  entropy T*S    EENTRO =        -0.00000000
  eigenvalues    EBANDS =      -668.26401850
  atomic energy  EATOM  =      8296.00520382
  ---------------------------------------------------
  free energy    TOTEN  =       -16.36078505 eV

  energy without entropy =      -16.36078505  energy(sigma->0) =      -16.36078505


--------------------------------------------------------------------------------------------------------




--------------------------------------- Iteration      1(   4)  ---------------------------------------


    TRIAL :  cpu time      1.8617: real time      1.8622
    CORREC:  cpu time      0.0003: real time      0.0003
    --------------------------------------------
      LOOP:  cpu time      1.8694: real time      1.8701

 eigenvalue-minimisations  :   384
 total energy-change (2. order) :-0.2740281E+00  (-0.2740281E+00)
 number of electron      88.0000000 magnetization 
 augmentation part       88.0000000 magnetization 

 Free energy of the ion-electron system (eV)
  ---------------------------------------------------
  alpha Z        PSCENC =         6.80462455
  Ewald energy   TEWEN  =      5502.46304071
  -Hartree energ DENC   =    -13432.00567167
  -exchange      EXHF   =         0.00000000
  -V(xc)+E(xc)   XCENC  =       -81.64355828
  PAW double counting   =      8017.58431434    -7657.30472003
  entropy T*S    EENTRO =        -0.00000000
  eigenvalues    EBANDS =      -668.53804660
  atomic energy  EATOM  =      8296.00520382
  ---------------------------------------------------
  free energy    TOTEN  =       -16.63481315 eV

  energy without entropy =      -16.63481315  energy(sigma->0) =      -16.63481315


--------------------------------------------------------------------------------------------------------




--------------------------------------- Iteration      1(   5)  ---------------------------------------


    TRIAL :  cpu time      1.0312: real time      1.0315
    CORREC:  cpu time      0.0003: real time      0.0003
    CHARGE:  cpu time      0.0968: real time      0.0970
    --------------------------------------------
      LOOP:  cpu time      1.1317: real time      1.1362

 eigenvalue-minimisations  :   288
 total energy-change (2. order) :-0.2528764E-04  (-0.2528725E-04)
 number of electron      88.0000014 magnetization 
 augmentation part       41.5687229 magnetization 

 Free energy of the ion-electron system (eV)
  ---------------------------------------------------
  alpha Z        PSCENC =         6.80462455
  Ewald energy   TEWEN  =      5502.46304071
  -Hartree energ DENC   =    -13432.00567167
  -exchange      EXHF   =         0.00000000
  -V(xc)+E(xc)   XCENC  =       -81.64355828
  PAW double counting   =      8017.58431434    -7657.30472003
  entropy T*S    EENTRO =        -0.00000000
  eigenvalues    EBANDS =      -668.53807189
  atomic energy  EATOM  =      8296.00520382
  ---------------------------------------------------
  free energy    TOTEN  =       -16.63483843 eV

  energy without entropy =      -16.63483843  energy(sigma->0) =      -16.63483843


--------------------------------------------------------------------------------------------------------




--------------------------------------- Iteration      1(   6)  ---------------------------------------


    POTLOK:  cpu time      0.1001: real time      0.1001
    SETDIJ:  cpu time      0.1806: real time      0.1806
    TRIAL :  cpu time      1.3168: real time      1.3171
    CORREC:  cpu time      0.4532: real time      0.4534
    CHARGE:  cpu time      0.0951: real time      0.0951
    --------------------------------------------
      LOOP:  cpu time      2.1513: real time      2.1550

 eigenvalue-minimisations  :     0
 total energy-change (2. order) : 0.3274310E+01  (-0.1695228E+01)
 number of electron      88.0000014 magnetization 
 augmentation part       42.2852962 magnetization 

 Free energy of the ion-electron system (eV)
  ---------------------------------------------------
  alpha Z        PSCENC =         6.80462455
  Ewald energy   TEWEN  =      5502.46304071
  -Hartree energ DENC   =    -13464.53774322
  -exchange      EXHF   =         0.00000000
  -V(xc)+E(xc)   XCENC  =       -84.40039253
  PAW double counting   =      8491.02907561    -8142.29383450
  entropy T*S    EENTRO =        -0.00000000
  eigenvalues    EBANDS =      -618.43050290
  atomic energy  EATOM  =      8296.00520382
  ---------------------------------------------------
  free energy    TOTEN  =       -13.36052845 eV

  energy without entropy =      -13.36052845  energy(sigma->0) =      -13.36052845


--------------------------------------------------------------------------------------------------------




--------------------------------------- Iteration      1(   7)  ---------------------------------------


    POTLOK:  cpu time      0.1001: real time      0.1001
    SETDIJ:  cpu time      0.1785: real time      0.1785
    TRIAL :  cpu time      0.2049: real time      0.2049
    CORREC:  cpu time      0.4508: real time      0.4510
    CHARGE:  cpu time      0.0936: real time      0.0936
    --------------------------------------------
      LOOP:  cpu time      1.0361: real time      1.0368

 eigenvalue-minimisations  :     0
 total energy-change (2. order) :-0.1693924E+01  (-0.2008942E+00)
 number of electron      88.0000014 magnetization 
 augmentation part       42.1759461 magnetization 

 Free energy of the ion-electron system (eV)
  ---------------------------------------------------
  alpha Z        PSCENC =         6.80462455
  Ewald energy   TEWEN  =      5502.46304071
  -Hartree energ DENC   =    -13487.17467358
  -exchange      EXHF   =         0.00000000
  -V(xc)+E(xc)   XCENC  =       -82.28405930
  PAW double counting   =      8504.64958278    -8157.01007260
  entropy T*S    EENTRO =        -0.00000000
  eigenvalues    EBANDS =      -598.50809900
  atomic energy  EATOM  =      8296.00520382
  ---------------------------------------------------
  free energy    TOTEN  =       -15.05445261 eV

  energy without entropy =      -15.05445261  energy(sigma->0) =      -15.05445261


--------------------------------------------------------------------------------------------------------




--------------------------------------- Iteration      1(   8)  ---------------------------------------


    POTLOK:  cpu time      0.0994: real time      0.0994
    SETDIJ:  cpu time      0.1802: real time      0.1803
    TRIAL :  cpu time      0.2039: real time      0.2039
    CORREC:  cpu time      0.4494: real time      0.4496
    CHARGE:  cpu time      0.0948: real time      0.0948
    --------------------------------------------
      LOOP:  cpu time      1.0304: real time      1.0363

 eigenvalue-minimisations  :     0
 total energy-change (2. order) :-0.1998706E+00  (-0.6992060E-01)
 number of electron      88.0000014 magnetization 
 augmentation part       42.2114263 magnetization 

 Free energy of the ion-electron system (eV)
  ---------------------------------------------------
  alpha Z        PSCENC =         6.80462455
  Ewald energy   TEWEN  =      5502.46304071
  -Hartree energ DENC   =    -13443.26238984
  -exchange      EXHF   =         0.00000000
  -V(xc)+E(xc)   XCENC  =       -83.00775641
  PAW double counting   =      8460.44279813    -8112.33003627
  entropy T*S    EENTRO =        -0.00000000
  eigenvalues    EBANDS =      -642.36980785
  atomic energy  EATOM  =      8296.00520382
  ---------------------------------------------------
  free energy    TOTEN  =       -15.25432316 eV

  energy without entropy =      -15.25432316  energy(sigma->0) =      -15.25432316


--------------------------------------------------------------------------------------------------------




--------------------------------------- Iteration      1(   9)  ---------------------------------------


    POTLOK:  cpu time      0.1001: real time      0.1002
    SETDIJ:  cpu time      0.1788: real time      0.1788
    TRIAL :  cpu time      0.2034: real time      0.2034
    CORREC:  cpu time      0.4484: real time      0.4486
    CHARGE:  cpu time      0.0939: real time      0.0939
    --------------------------------------------
      LOOP:  cpu time      1.0272: real time      1.0323

 eigenvalue-minimisations  :     0
 total energy-change (2. order) :-0.6979507E-01  (-0.1561279E-01)
 number of electron      88.0000014 magnetization 
 augmentation part       42.2353844 magnetization 

 Free energy of the ion-electron system (eV)
  ---------------------------------------------------
  alpha Z        PSCENC =         6.80462455
  Ewald energy   TEWEN  =      5502.46304071
  -Hartree energ DENC   =    -13443.96567880
  -exchange      EXHF   =         0.00000000
  -V(xc)+E(xc)   XCENC  =       -82.88190718
  PAW double counting   =      8453.56618494    -8105.37466719
  entropy T*S    EENTRO =        -0.00000000
  eigenvalues    EBANDS =      -641.94091908
  atomic energy  EATOM  =      8296.00520382
  ---------------------------------------------------
  free energy    TOTEN  =       -15.32411823 eV

  energy without entropy =      -15.32411823  energy(sigma->0) =      -15.32411823


--------------------------------------------------------------------------------------------------------




--------------------------------------- Iteration      1(  10)  ---------------------------------------


    POTLOK:  cpu time      0.0998: real time      0.0998
    SETDIJ:  cpu time      0.1786: real time      0.1786
    TRIAL :  cpu time      0.2029: real time      0.2029
    CORREC:  cpu time      0.4480: real time      0.4482
    CHARGE:  cpu time      0.0963: real time      0.0963
    --------------------------------------------
      LOOP:  cpu time      1.0334: real time      1.0342

 eigenvalue-minimisations  :     0
 total energy-change (2. order) :-0.1563073E-01  (-0.4439360E-02)
 number of electron      88.0000014 magnetization 
 augmentation part       42.2209393 magnetization 

 Free energy of the ion-electron system (eV)
  ---------------------------------------------------
  alpha Z        PSCENC =         6.80462455
  Ewald energy   TEWEN  =      5502.46304071
  -Hartree energ DENC   =    -13448.55214454
  -exchange      EXHF   =         0.00000000
  -V(xc)+E(xc)   XCENC  =       -82.78286576
  PAW double counting   =      8454.96259905    -8106.64585066
  entropy T*S    EENTRO =        -0.00000000
  eigenvalues    EBANDS =      -637.59435613
  atomic energy  EATOM  =      8296.00520382
  ---------------------------------------------------
  free energy    TOTEN  =       -15.33974896 eV

  energy without entropy =      -15.33974896  energy(sigma->0) =      -15.33974896


--------------------------------------------------------------------------------------------------------




--------------------------------------- Iteration      1(  11)  ---------------------------------------


    POTLOK:  cpu time      0.1009: real time      0.1009
    SETDIJ:  cpu time      0.1769: real time      0.1769
    TRIAL :  cpu time      0.2030: real time      0.2030
    CORREC:  cpu time      0.4481: real time      0.4484
    CHARGE:  cpu time      0.0951: real time      0.0951
    --------------------------------------------
      LOOP:  cpu time      1.0270: real time      1.0317

 eigenvalue-minimisations  :     0
 total energy-change (2. order) :-0.4443196E-02  (-0.1691857E-02)
 number of electron      88.0000014 magnetization 
 augmentation part       42.2302840 magnetization 

 Free energy of the ion-electron system (eV)
  ---------------------------------------------------
  alpha Z        PSCENC =         6.80462455
  Ewald energy   TEWEN  =      5502.46304071
  -Hartree energ DENC   =    -13444.30278043
  -exchange      EXHF   =         0.00000000
  -V(xc)+E(xc)   XCENC  =       -82.85163214
  PAW double counting   =      8449.67282012    -8101.18195094
  entropy T*S    EENTRO =        -0.00000000
  eigenvalues    EBANDS =      -641.95351785
  atomic energy  EATOM  =      8296.00520382
  ---------------------------------------------------
  free energy    TOTEN  =       -15.34419215 eV

  energy without entropy =      -15.34419215  energy(sigma->0) =      -15.34419215


--------------------------------------------------------------------------------------------------------




--------------------------------------- Iteration      1(  12)  ---------------------------------------


    POTLOK:  cpu time      0.0981: real time      0.0981
    SETDIJ:  cpu time      0.1800: real time      0.1800
    TRIAL :  cpu time      0.2050: real time      0.2052
    CORREC:  cpu time      0.4448: real time      0.4448
    CHARGE:  cpu time      0.0958: real time      0.0958
    --------------------------------------------
      LOOP:  cpu time      1.0263: real time      1.0311

 eigenvalue-minimisations  :     0
 total energy-change (2. order) :-0.1692246E-02  (-0.3471724E-03)
 number of electron      88.0000014 magnetization 
 augmentation part       42.2304661 magnetization 

 Free energy of the ion-electron system (eV)
  ---------------------------------------------------
  alpha Z        PSCENC =         6.80462455
  Ewald energy   TEWEN  =      5502.46304071
  -Hartree energ DENC   =    -13446.13013206
  -exchange      EXHF   =         0.00000000
  -V(xc)+E(xc)   XCENC  =       -82.81550131
  PAW double counting   =      8446.83475374    -8098.28800713
  entropy T*S    EENTRO =        -0.00000000
  eigenvalues    EBANDS =      -640.21986672
  atomic energy  EATOM  =      8296.00520382
  ---------------------------------------------------
  free energy    TOTEN  =       -15.34588440 eV

  energy without entropy =      -15.34588440  energy(sigma->0) =      -15.34588440


--------------------------------------------------------------------------------------------------------




--------------------------------------- Iteration      1(  13)  ---------------------------------------


    POTLOK:  cpu time      0.0977: real time      0.0977
    SETDIJ:  cpu time      0.1794: real time      0.1794
    TRIAL :  cpu time      0.2025: real time      0.2028
    CORREC:  cpu time      0.4458: real time      0.4459
    CHARGE:  cpu time      0.0950: real time      0.0950
    --------------------------------------------
      LOOP:  cpu time      1.0278: real time      1.0282

 eigenvalue-minimisations  :     0
 total energy-change (2. order) :-0.3476074E-03  (-0.4264364E-04)
 number of electron      88.0000014 magnetization 
 augmentation part       42.2301669 magnetization 

 Free energy of the ion-electron system (eV)
  ---------------------------------------------------
  alpha Z        PSCENC =         6.80462455
  Ewald energy   TEWEN  =      5502.46304071
  -Hartree energ DENC   =    -13446.35958010
  -exchange      EXHF   =         0.00000000
  -V(xc)+E(xc)   XCENC  =       -82.81193087
  PAW double counting   =      8444.34840499    -8095.79347463
  entropy T*S    EENTRO =        -0.00000000
  eigenvalues    EBANDS =      -640.00252049
  atomic energy  EATOM  =      8296.00520382
  ---------------------------------------------------
  free energy    TOTEN  =       -15.34623201 eV

  energy without entropy =      -15.34623201  energy(sigma->0) =      -15.34623201


--------------------------------------------------------------------------------------------------------




--------------------------------------- Iteration      1(  14)  ---------------------------------------


    POTLOK:  cpu time      0.0988: real time      0.0988
    SETDIJ:  cpu time      0.1792: real time      0.1792
    TRIAL :  cpu time      0.2025: real time      0.2028
    CORREC:  cpu time      0.4460: real time      0.4460
    CHARGE:  cpu time      0.0957: real time      0.0957
    --------------------------------------------
      LOOP:  cpu time      1.0251: real time      1.0298

 eigenvalue-minimisations  :     0
 total energy-change (2. order) :-0.4283872E-04  (-0.7861515E-05)
 number of electron      88.0000014 magnetization 
 augmentation part       42.2304714 magnetization 

 Free energy of the ion-electron system (eV)
  ---------------------------------------------------
  alpha Z        PSCENC =         6.80462455
  Ewald energy   TEWEN  =      5502.46304071
  -Hartree energ DENC   =    -13446.28124490
  -exchange      EXHF   =         0.00000000
  -V(xc)+E(xc)   XCENC  =       -82.81270403
  PAW double counting   =      8443.63651265    -8095.07986917
  entropy T*S    EENTRO =        -0.00000000
  eigenvalues    EBANDS =      -640.08183849
  atomic energy  EATOM  =      8296.00520382
  ---------------------------------------------------
  free energy    TOTEN  =       -15.34627484 eV

  energy without entropy =      -15.34627484  energy(sigma->0) =      -15.34627484


--------------------------------------------------------------------------------------------------------




--------------------------------------- Iteration      1(  15)  ---------------------------------------


    POTLOK:  cpu time      0.1013: real time      0.1013
    SETDIJ:  cpu time      0.1751: real time      0.1751
    TRIAL :  cpu time      0.2031: real time      0.2033
    CORREC:  cpu time      0.4448: real time      0.4455
    CHARGE:  cpu time      0.0946: real time      0.0946
    --------------------------------------------
      LOOP:  cpu time      1.0216: real time      1.0273

 eigenvalue-minimisations  :     0
 total energy-change (2. order) :-0.7839181E-05  (-0.2110695E-05)
 number of electron      88.0000014 magnetization 
 augmentation part       42.2304707 magnetization 

 Free energy of the ion-electron system (eV)
  ---------------------------------------------------
  alpha Z        PSCENC =         6.80462455
  Ewald energy   TEWEN  =      5502.46304071
  -Hartree energ DENC   =    -13446.40264054
  -exchange      EXHF   =         0.00000000
  -V(xc)+E(xc)   XCENC  =       -82.81131682
  PAW double counting   =      8443.45178215    -8094.89544579
  entropy T*S    EENTRO =        -0.00000000
  eigenvalues    EBANDS =      -639.96153077
  atomic energy  EATOM  =      8296.00520382
  ---------------------------------------------------
  free energy    TOTEN  =       -15.34628268 eV

  energy without entropy =      -15.34628268  energy(sigma->0) =      -15.34628268


--------------------------------------------------------------------------------------------------------




--------------------------------------- Iteration      1(  16)  ---------------------------------------


    POTLOK:  cpu time      0.0987: real time      0.0987
    SETDIJ:  cpu time      0.1791: real time      0.1791
    TRIAL :  cpu time      0.2029: real time      0.2031
    CORREC:  cpu time      0.4447: real time      0.4447
    CHARGE:  cpu time      0.0956: real time      0.0956
    --------------------------------------------
      LOOP:  cpu time      1.0234: real time      1.0295

 eigenvalue-minimisations  :     0
 total energy-change (2. order) :-0.2126063E-05  (-0.2218185E-06)
 number of electron      88.0000014 magnetization 
 augmentation part       42.2303713 magnetization 

 Free energy of the ion-electron system (eV)
  ---------------------------------------------------
  alpha Z        PSCENC =         6.80462455
  Ewald energy   TEWEN  =      5502.46304071
  -Hartree energ DENC   =    -13446.39417986
  -exchange      EXHF   =         0.00000000
  -V(xc)+E(xc)   XCENC  =       -82.81122270
  PAW double counting   =      8443.20677465    -8094.64999364
  entropy T*S    EENTRO =        -0.00000000
  eigenvalues    EBANDS =      -639.97053236
  atomic energy  EATOM  =      8296.00520382
  ---------------------------------------------------
  free energy    TOTEN  =       -15.34628481 eV

  energy without entropy =      -15.34628481  energy(sigma->0) =      -15.34628481


--------------------------------------------------------------------------------------------------------




--------------------------------------- Iteration      1(  17)  ---------------------------------------


    POTLOK:  cpu time      0.0990: real time      0.0990
    SETDIJ:  cpu time      0.1763: real time      0.1763
    TRIAL :  cpu time      0.2031: real time      0.2033
    CORREC:  cpu time      0.4468: real time      0.4468
    EDDIAG:  cpu time      0.0936: real time      0.0936
    CHARGE:  cpu time      0.0956: real time      0.0956
    --------------------------------------------
      LOOP:  cpu time      1.1179: real time      1.1218

 eigenvalue-minimisations  :     0
 total energy-change (2. order) :-0.2204015E-06  (-0.1199762E-06)
 number of electron      88.0000014 magnetization 
 augmentation part       42.2303526 magnetization 

 Free energy of the ion-electron system (eV)
  ---------------------------------------------------
  alpha Z        PSCENC =         6.80462455
  Ewald energy   TEWEN  =      5502.46304071
  -Hartree energ DENC   =    -13446.37821916
  -exchange      EXHF   =         0.00000000
  -V(xc)+E(xc)   XCENC  =       -82.81160758
  PAW double counting   =      8443.05692115    -8094.49995375
  entropy T*S    EENTRO =        -0.00000000
  eigenvalues    EBANDS =      -639.98629477
  atomic energy  EATOM  =      8296.00520382
  ---------------------------------------------------
  free energy    TOTEN  =       -15.34628503 eV

  energy without entropy =      -15.34628503  energy(sigma->0) =      -15.34628503


--------------------------------------------------------------------------------------------------------


  average scaling for gradient   1.4221


 average (electrostatic) potential at core
  the test charge radii are     1.1249
  (the norm of the test charge is              1.0000)
       1 -82.0905       2 -81.9642       3 -81.9637       4 -81.9652       5 -82.0904
       6 -82.0909       7 -81.9649       8 -82.0912



 E-fermi :  -4.3824     XC(G=0):  -0.4899     alpha+bet : -0.2295

 Fermi energy:        -4.3824343676

 k-point     1 :       0.0000    0.0000    0.0000
  band No.  band energies     occupation 
      1      -9.2475      2.00000
      2      -8.9248      2.00000
      3      -8.9225      2.00000
      4      -8.6096      2.00000
      5      -8.2823      2.00000
      6      -8.2526      2.00000
      7      -8.1166      2.00000
      8      -8.0009      2.00000
      9      -7.9993      2.00000
     10      -7.9833      2.00000
     11      -7.9798      2.00000
     12      -7.9762      2.00000
     13      -7.7977      2.00000
     14      -7.5072      2.00000
     15      -7.4791      2.00000
     16      -7.4772      2.00000
     17      -7.4726      2.00000
     18      -7.4592      2.00000
     19      -7.4582      2.00000
     20      -7.3948      2.00000
     21      -7.3668      2.00000
     22      -7.3659      2.00000
     23      -7.3631      2.00000
     24      -7.2628      2.00000
     25      -7.1042      2.00000
     26      -7.1036      2.00000
     27      -7.1025      2.00000
     28      -6.9632      2.00000
     29      -6.8226      2.00000
     30      -6.8176      2.00000
     31      -6.8173      2.00000
     32      -6.8138      2.00000
     33      -6.7933      2.00000
     34      -6.7123      2.00000
     35      -6.7119      2.00000
     36      -6.6774      2.00000
     37      -6.5604      2.00000
     38      -6.5534      2.00000
     39      -6.5505      2.00000
     40      -6.4550      2.00000
     41      -6.1666      2.00000
     42      -5.4767      2.00000
     43      -5.4751      2.00000
     44      -4.6153      2.00000
     45      -3.2648      0.00000
     46      -2.6880      0.00000
     47      -2.0357      0.00000
     48      -2.0338      0.00000
     49      -1.9352      0.00000
     50      -0.8402      0.00000
     51      -0.8386      0.00000
     52      -0.7876      0.00000
     53      -0.7873      0.00000
     54      -0.7842      0.00000
     55      -0.1516      0.00000
     56       0.0705      0.00000
     57       0.1874      0.00000
     58       0.4325      0.00000
     59       0.4769      0.00000
     60       0.5072      0.00000
     61       0.5362      0.00000
     62       0.5406      0.00000
     63       0.5464      0.00000
     64       0.5588      0.00000
     65       0.7477      0.00000
     66       0.7971      0.00000
     67       0.8340      0.00000
     68       0.8371      0.00000
     69       0.8684      0.00000
     70       0.8804      0.00000
     71       0.9102      0.00000
     72       0.9197      0.00000
     73       0.9391      0.00000
     74       0.9740      0.00000
     75       0.9873      0.00000
     76       1.0324      0.00000
     77       1.0481      0.00000
     78       1.1414      0.00000
     79       1.1828      0.00000
     80       1.2041      0.00000
     81       1.2080      0.00000
     82       1.2978      0.00000
     83       1.3269      0.00000
     84       1.3441      0.00000
     85       1.4457      0.00000
     86       1.5271      0.00000
     87       1.5295      0.00000
     88       1.5568      0.00000
     89       1.6130      0.00000
     90       1.6220      0.00000
     91       1.7017      0.00000
     92       1.7230      0.00000
     93       1.7399      0.00000
     94       1.7767      0.00000
     95       1.8102      0.00000
     96       1.8644      0.00000


--------------------------------------------------------------------------------------------------------


 soft charge-density along one line, spin component           1
         0         1         2         3         4         5         6         7         8         9
 total charge-density along one line

 pseudopotential strength for first ion, spin component:           1
-10.384  -0.006   0.013   0.013  -0.000 -10.357  -0.006   0.013
 -0.006 -10.375   0.007  -0.008  -0.009  -0.006 -10.348   0.007
  0.013   0.007 -10.381  -0.009   0.011   0.013   0.007 -10.354
  0.013  -0.008  -0.009 -10.392  -0.008   0.012  -0.008  -0.008
 -0.000  -0.009   0.011  -0.008 -10.379  -0.000  -0.008   0.010
-10.357  -0.006   0.013   0.012  -0.000 -10.306  -0.006   0.012
 -0.006 -10.348   0.007  -0.008  -0.008  -0.006 -10.297   0.007
  0.013   0.007 -10.354  -0.008   0.010   0.012   0.007 -10.303
  0.012  -0.008  -0.008 -10.364  -0.008   0.012  -0.008  -0.008
 -0.000  -0.008   0.010  -0.008 -10.352  -0.000  -0.008   0.010
  0.007  -0.014   0.004   0.002   0.001   0.007  -0.014   0.004
  0.011  -0.024   0.007   0.003   0.002   0.011  -0.023   0.007
  0.006   0.002  -0.001   0.000  -0.002   0.006   0.002  -0.001
  0.000   0.002   0.003   0.006  -0.000   0.000   0.001   0.003
  0.001   0.000  -0.003   0.002   0.006   0.001   0.000  -0.003
  0.007   0.003  -0.001   0.000  -0.002   0.007   0.003  -0.001
  0.000   0.002   0.003   0.007  -0.000   0.000   0.002   0.003
  0.001   0.000  -0.004   0.003   0.007   0.001   0.000  -0.004
 total augmentation occupancy for first ion, spin component:           1
  2.564  -0.160  -0.010  -0.123   0.003  -0.605   0.175   0.095   0.267  -0.003  -0.442   0.061   0.023  -0.004   0.029   0.002
 -0.160   3.037  -0.253   0.078   0.195   0.175  -1.112   0.329  -0.108  -0.276   1.132  -0.113   0.004   0.000   0.001   0.002
 -0.010  -0.253   2.674  -0.021  -0.030   0.095   0.329  -0.745  -0.040   0.040  -0.408   0.030  -0.014   0.008  -0.022   0.001
 -0.123   0.078  -0.021   2.599   0.041   0.267  -0.108  -0.040  -0.684  -0.051   0.002   0.025  -0.003   0.036   0.035   0.001
  0.003   0.195  -0.030   0.041   2.539  -0.003  -0.276   0.040  -0.051  -0.506   0.083   0.020   0.009   0.016   0.047  -0.002
 -0.605   0.175   0.095   0.267  -0.003   0.618  -0.189  -0.166  -0.389   0.003   0.399  -0.058  -0.031   0.003  -0.033   0.002
  0.175  -1.112   0.329  -0.108  -0.276  -0.189   1.158  -0.395   0.132   0.344  -1.058   0.140  -0.008  -0.003  -0.004   0.000
  0.095   0.329  -0.745  -0.040   0.040  -0.166  -0.395   0.782   0.093  -0.049   0.391  -0.049   0.015  -0.009   0.029  -0.001
  0.267  -0.108  -0.040  -0.684  -0.051  -0.389   0.132   0.093   0.733   0.059  -0.023  -0.004   0.002  -0.044  -0.043  -0.001
 -0.003  -0.276   0.040  -0.051  -0.506   0.003   0.344  -0.049   0.059   0.453  -0.102   0.005  -0.008  -0.019  -0.060   0.001
 -0.442   1.132  -0.408   0.002   0.083   0.399  -1.058   0.391  -0.023  -0.102   1.654  -0.179  -0.015  -0.025  -0.062   0.001
  0.061  -0.113   0.030   0.025   0.020  -0.058   0.140  -0.049  -0.004   0.005  -0.179   0.028   0.003   0.006   0.015  -0.000
  0.023   0.004  -0.014  -0.003   0.009  -0.031  -0.008   0.015   0.002  -0.008  -0.015   0.003   0.092  -0.090   0.027  -0.005
 -0.004   0.000   0.008   0.036   0.016   0.003  -0.003  -0.009  -0.044  -0.019  -0.025   0.006  -0.090   0.137  -0.012   0.004
  0.029   0.001  -0.022   0.035   0.047  -0.033  -0.004   0.029  -0.043  -0.060  -0.062   0.015   0.027  -0.012   0.050  -0.001
  0.002   0.002   0.001   0.001  -0.002   0.002   0.000  -0.001  -0.001   0.001   0.001  -0.000  -0.005   0.004  -0.001   0.000
  0.001   0.002   0.001   0.002  -0.001  -0.001  -0.000   0.001   0.003   0.001   0.002  -0.000   0.004  -0.007   0.000  -0.000
 -0.001   0.002  -0.002   0.000   0.002   0.003  -0.001  -0.001   0.002   0.003   0.006  -0.001  -0.001   0.000  -0.003   0.000


------------------------ aborting loop because EDIFF is reached ----------------------------------------


    FORLOC:  cpu time      0.0035: real time      0.0035
    FORNL :  cpu time      0.1051: real time      0.1052
    STRESS:  cpu time      0.3097: real time      0.3098
    FORCOR:  cpu time      0.0701: real time      0.0701
    OFIELD:  cpu time      0.0002: real time      0.0002
    FORVDW:  cpu time      0.0063: real time      0.0063

  FORCE on cell =-STRESS in cart. coord.  units (eV):
  Direction    XX          YY          ZZ          XY          YZ          ZX
  --------------------------------------------------------------------------------------
  Alpha Z     6.80462     6.80462     6.80462
  Ewald    3057.36835   207.50095  2237.59013  1849.55754 -2465.59540  1280.62859
  Hartree  5503.20329  3124.29518  4818.88058  1516.04269 -2022.13893  1049.35857
  E(xc)    -457.20756  -458.10074  -457.46453     0.63929    -0.84952     0.44402
  Local   -9846.78306 -4632.25242 -8346.78268 -3355.40078  4474.18078 -2322.91533
  n-local   -88.75763   -87.37827   -88.35332    -0.97493     1.29633    -0.68183
  augment   730.11475   734.58192   731.39833    -3.20074     4.25425    -2.21839
  Kinetic  1093.01602  1103.37660  1095.99574    -7.41670     9.85720    -5.14618
  Fock        0.00000     0.00000     0.00000     0.00000     0.00000     0.00000
  vdW        -0.12506    -0.06402    -0.10756    -0.04328     0.05761    -0.03001
  -------------------------------------------------------------------------------------
  Total      -2.36627    -1.23617    -2.03870    -0.79693     1.06232    -0.56056
  in kB      -0.47390    -0.24757    -0.40829    -0.15960     0.21275    -0.11226
  external pressure =       -0.38 kB  Pullay stress =        0.00 kB


 VOLUME and BASIS-vectors are now :
 -----------------------------------------------------------------------------
  energy-cutoff  :      520.00
  volume of cell :     8000.00
      direct lattice vectors                 reciprocal lattice vectors
    20.000000000  0.000000000  0.000000000     0.050000000  0.000000000  0.000000000
     0.000000000 20.000000000  0.000000000     0.000000000  0.050000000  0.000000000
     0.000000000  0.000000000 20.000000000     0.000000000  0.000000000  0.050000000

  length of vectors
    20.000000000 20.000000000 20.000000000     0.050000000  0.050000000  0.050000000


 FORCES acting on ions:
    Electron-Ion                     Ewald-Force                    Non-Local-Force
 -----------------------------------------------------------------------------------------------
   -.380E+03 -.921E+02 -.154E+03   0.379E+03 0.918E+02 0.153E+03   0.130E+01 0.311E+00 0.529E+00
   -.343E+03 0.184E+03 -.524E+03   0.339E+03 -.181E+03 0.517E+03   0.452E+01 -.240E+01 0.691E+01
   0.345E+03 -.187E+03 0.522E+03   -.340E+03 0.184E+03 -.515E+03   -.454E+01 0.245E+01 -.687E+01
   0.492E+03 0.389E+03 -.187E+03   -.485E+03 -.384E+03 0.184E+03   -.649E+01 -.509E+01 0.245E+01
   0.379E+03 0.935E+02 0.155E+03   -.378E+03 -.931E+02 -.155E+03   -.129E+01 -.326E+00 -.545E+00
   -.677E+02 -.262E+03 0.325E+03   0.675E+02 0.261E+03 -.323E+03   0.227E+00 0.909E+00 -.113E+01
   -.493E+03 -.387E+03 0.188E+03   0.486E+03 0.382E+03 -.185E+03   0.650E+01 0.507E+01 -.246E+01
   0.677E+02 0.262E+03 -.325E+03   -.675E+02 -.261E+03 0.323E+03   -.229E+00 -.912E+00 0.113E+01
 -----------------------------------------------------------------------------------------------
   0.914E-02 -.184E-01 -.101E-01   0.000E+00 -.114E-12 -.114E-12   -.956E-02 0.146E-01 0.128E-01


 POSITION                                       TOTAL-FORCE (eV/Angst)
 -----------------------------------------------------------------------------------
     11.75750     10.42793     10.70614        -0.106541     -0.026020     -0.039284
     11.91683      8.97804     12.93066        -0.162956      0.085386     -0.248853
      8.07428     11.03929      7.06950         0.163950     -0.088694      0.249060
      7.24598      7.84023     11.03714         0.229863      0.175728     -0.087669
      8.24054      9.57488      9.28460         0.105991      0.031397      0.040143
     10.31279     11.20751      8.49728        -0.025027     -0.074479      0.087977
     12.75428     12.15914      8.95065        -0.228812     -0.177459      0.086922
      9.68416      8.79830     11.49516         0.023531      0.074141     -0.088295
 -----------------------------------------------------------------------------------
    total drift:                               -0.000415     -0.003785      0.002706


--------------------------------------------------------------------------------------------------------



  FREE ENERGIE OF THE ION-ELECTRON SYSTEM (eV)
  ---------------------------------------------------
  free  energy   TOTEN  =       -15.61402504 eV

  energy  without entropy=      -15.61402504  energy(sigma->0) =      -15.61402504



--------------------------------------------------------------------------------------------------------


    POTLOK:  cpu time      0.2740: real time      0.2740


--------------------------------------------------------------------------------------------------------


     LOOP+:  cpu time     20.8309: real time     20.9008
    4ORBIT:  cpu time      0.0000: real time      0.0000

 total amount of memory used by VASP MPI-rank0   102131. kBytes
=======================================================================

   base      :      30000. kBytes
   nonlr-proj:       2524. kBytes
   fftplans  :      28354. kBytes
   grid      :      38630. kBytes
   one-center:         31. kBytes
   wavefun   :       2592. kBytes

  
  
 General timing and accounting informations for this job:
 ========================================================
  
                  Total CPU time used (sec):       41.854
                            User time (sec):       40.786
                          System time (sec):        1.068
                         Elapsed time (sec):       43.976
  
                   Maximum memory used (kb):      212136.
                   Average memory used (kb):          N/A
  
                          Minor page faults:        25520
                          Major page faults:            0
                 Voluntary context switches:         9951
