 vasp.6.3.0 20Jan22 (build Apr  1 2022 16:44:48) complex                         
 executed on        HPECrayEX_GCC date 2022.08.15  20:08:18
 running  512 mpi-ranks, with    1 threads/rank
 distrk:  each k-point on  256 cores,    2 groups
 distr:  one band on NCORE=   4 cores,   64 groups


--------------------------------------------------------------------------------------------------------


 INCAR:
   SYSTEM = MgO-rocksalt
   ISMEAR = 0
   SIGMA = 0.05
   EDIFF = 1E-6
   ALGO = ALL
   ISTART = 0
   IBRION = -1
   NSW = 0
   ISYM = 2
   DIPOL = 0.5 0.5 0.5
   IDIPOL = 3
   LDIPOL = .TRUE.
   GGA = RE
   LUSE_VDW = .TRUE.
   AGGAC = 0.0
   ENCUT = 520
   PREC = Accurate
   LASPH = .TRUE.
   LREAL = Auto
   ISPIN = 1
   NELM = 200
   NELMIN = 8
   NCORE = 4
   KPAR = 2
   LWAVE = .FALSE.
   LCHARG = .FALSE.

 POTCAR:    PAW_PBE Au 04Oct2007                  
 -----------------------------------------------------------------------------
|                                                                             |
|               ----> ADVICE to this user running VASP <----                  |
|                                                                             |
|     You have switched on vdW-DFT.                                           |
|     This routine was written and supplied by Jiri Klimes. We recommend      |
|     that you carefully read and cite the following publications:            |
|       J. Klimes, D.R. Bowler, A. Michelides                                 |
|          J. Phys.: Cond Matt. 22 022201 (2010)                              |
|       J. Klimes, D.R. Bowler, A. Michelides                                 |
|          Phys. Rev. B. 83, 195131 (2011)                                    |
|     and references therein.                                                 |
|                                                                             |
 -----------------------------------------------------------------------------

 POTCAR:    PAW_PBE Au 04Oct2007                  
   SHA256 =  d0044ae04e2bdce24051b198fc5c053d722a5bc6fe3c3b100514a13fc5d2db88 Au/POTCAR             
   COPYR  = (c) Copyright 04Oct2007 Georg Kresse                                                    
   COPYR  = This file is part of the software VASP. Any use, copying, and all other rights are regul
   COPYR  = If you do not have a valid VASP license, you may not use, copy or distribute this file. 
   VRHFIN =Au: s1d10                                                                                
   LEXCH  = PE                                                                                      
   EATOM  =   926.0867 eV,   68.0654 Ry                                                             
                                                                                                    
   TITEL  = PAW_PBE Au 04Oct2007                                                                    
   LULTRA =        F    use ultrasoft PP ?                                                          
   IUNSCR =        1    unscreen: 0-lin 1-nonlin 2-no                                               
   RPACOR =    2.330    partial core radius                                                         
   POMASS =  196.966; ZVAL   =   11.000    mass and valenz                                          
   RCORE  =    2.500    outmost cutoff radius                                                       
   RWIGS  =    2.840; RWIGS  =    1.503    wigner-seitz radius (au A)                               
   ENMAX  =  229.943; ENMIN  =  172.457 eV                                                          
   ICORE  =        3    local potential                                                             
   LCOR   =        T    correct aug charges                                                         
   LPAW   =        T    paw PP                                                                      
   EAUG   =  356.670                                                                                
   DEXC   =    0.000                                                                                
   RMAX   =    2.562    core radius for proj-oper                                                   
   RAUG   =    1.300    factor for augmentation sphere                                              
   RDEP   =    2.598    radius for radial grids                                                     
   RDEPT  =    2.193    core radius for aug-charge                                                  
                                                                                                    
   Atomic configuration                                                                             
   16 entries                                                                                       
     n  l   j            E        occ.                                                              
     1  0  0.50    -80748.5001   2.0000                                                             
     2  0  0.50    -14244.7466   2.0000                                                             
     2  1  1.50    -12310.9591   6.0000                                                             
     3  0  0.50     -3362.1768   2.0000                                                             
     3  1  1.50     -2801.5463   6.0000                                                             
     3  2  2.50     -2203.8206  10.0000                                                             
     4  0  0.50      -729.8168   2.0000                                                             
     4  1  1.50      -546.0527   6.0000                                                             
     4  2  2.50      -325.7302  10.0000                                                             
     4  3  3.50       -81.1472  14.0000                                                             
     5  0  0.50      -108.3201   2.0000                                                             
     5  1  1.50       -59.7479   6.0000                                                             
     5  2  2.50        -6.8783  10.0000                                                             
     6  0  0.50        -5.7602   1.0000                                                             
     6  1  1.50        -6.8029   0.0000                                                             
     5  3  2.50        -1.3606   0.0000                                                             
   Description                                                                                      
     l       E           TYP  RCUT    TYP  RCUT                                                     
     2     -6.8782861     23  2.500                                                                 
     2     -8.2388687     23  2.500                                                                 
     0     -5.7601759     23  2.500                                                                 
     0     -0.8493231     23  2.500                                                                 
     1     -2.7211652     23  2.500                                                                 
     1     27.2116520     23  2.500                                                                 
     3     -1.3605826     23  2.500                                                                 
  local pseudopotential read in
  partial core-charges read in
  partial kinetic energy density read in
  atomic valenz-charges read in
  non local Contribution for L=           2  read in
    real space projection operators read in
  non local Contribution for L=           2  read in
    real space projection operators read in
  non local Contribution for L=           0  read in
    real space projection operators read in
  non local Contribution for L=           0  read in
    real space projection operators read in
  non local Contribution for L=           1  read in
    real space projection operators read in
  non local Contribution for L=           1  read in
    real space projection operators read in
    PAW grid and wavefunctions read in

   number of l-projection  operators is LMAX  =           6
   number of lm-projection operators is LMMAX =          18

 -----------------------------------------------------------------------------
|                                                                             |
|               ----> ADVICE to this user running VASP <----                  |
|                                                                             |
|     You have a (more or less) 'small supercell' and for smaller cells       |
|     it is recommended to use the reciprocal-space projection scheme!        |
|     The real-space optimization is not efficient for small cells and it     |
|     is also less accurate ...                                               |
|     Therefore, set LREAL=.FALSE. in the INCAR file.                         |
|                                                                             |
 -----------------------------------------------------------------------------

 Optimization of the real space projectors (new method)

 maximal supplied QI-value         = 15.12
 optimisation between [QCUT,QGAM] = [ 11.64, 23.28] = [ 37.95,151.78] Ry 
 Optimized for a Real-space Cutoff    1.49 Angstroem

   l    n(q)    QCUT    max X(q) W(low)/X(q) W(high)/X(q)  e(spline) 
   2      9    11.641    60.898    0.24E-03    0.10E-03    0.19E-06
   2      9    11.641    58.894    0.25E-03    0.10E-03    0.19E-06
   0     10    11.641   109.617    0.73E-04    0.33E-04    0.11E-06
   0     10    11.641    75.026    0.71E-04    0.32E-04    0.11E-06
   1     10    11.641    16.344    0.27E-04    0.97E-04    0.16E-06
   1     10    11.641    10.160    0.23E-04    0.77E-04    0.13E-06
 -----------------------------------------------------------------------------
|                                                                             |
|               ----> ADVICE to this user running VASP <----                  |
|                                                                             |
|     You enforced a specific xc type in the INCAR file but a different       |
|     type was found in the POTCAR file.                                      |
|     I HOPE YOU KNOW WHAT YOU ARE DOING!                                     |
|                                                                             |
 -----------------------------------------------------------------------------

  PAW_PBE Au 04Oct2007                  :
 energy of atom  1       EATOM= -926.0867
 kinetic energy error for atom=    0.0034 (will be added to EATOM!!)


 POSCAR: Au
  positions in direct lattice
  No initial velocities read in
 exchange correlation table for  LEXCH =       40
   RHO(1)=    0.500       N(1)  =     2000
   RHO(2)=  100.500       N(2)  =     4000



--------------------------------------------------------------------------------------------------------


 ion  position               nearest neighbor table
   1  0.543  0.457  0.618-   2 2.55
   2  0.457  0.543  0.618-   1 2.55

  LATTYP: Found a simple tetragonal cell.
 ALAT       =    21.1388521970
 C/A-ratio  =     1.0461251639
  
  Lattice vectors:
  
 A1 = (  21.1388521970,   0.0000000000,   0.0000000000)
 A2 = (   0.0000000000,  21.1388521970,   0.0000000000)
 A3 = (   0.0000000000,   0.0000000000,  22.1138852197)


Analysis of symmetry for initial positions (statically):
=====================================================================
 Subroutine PRICEL returns:
 Original cell was already a primitive cell.
 

 Routine SETGRP: Setting up the symmetry group for a 
 simple tetragonal supercell.


 Subroutine GETGRP returns: Found  8 space group operations
 (whereof  4 operations were pure point group operations)
 out of a pool of 16 trial point group operations.


The static configuration has the point symmetry C_2v.
 The point group associated with its full space group is D_2h.


Analysis of symmetry for dynamics (positions and initial velocities):
=====================================================================
 Subroutine PRICEL returns:
 Original cell was already a primitive cell.
 

 Routine SETGRP: Setting up the symmetry group for a 
 simple tetragonal supercell.


 Subroutine GETGRP returns: Found  8 space group operations
 (whereof  4 operations were pure point group operations)
 out of a pool of 16 trial point group operations.


The dynamic configuration has the point symmetry C_2v.
 The point group associated with its full space group is D_2h.


 Subroutine INISYM returns: Found  8 space group operations
 (whereof  4 operations are pure point group operations),
 and found     1 'primitive' translations


----------------------------------------------------------------------------------------

                                     Primitive cell                                     

  volume of cell :    9881.6133

  direct lattice vectors                    reciprocal lattice vectors
    21.138852197  0.000000000  0.000000000     0.047306258  0.000000000  0.000000000
     0.000000000 21.138852197  0.000000000     0.000000000  0.047306258  0.000000000
     0.000000000  0.000000000 22.113885220     0.000000000  0.000000000  0.045220457

  length of vectors
    21.138852197 21.138852197 22.113885220     0.047306258  0.047306258  0.045220457

  position of ions in fractional coordinates (direct lattice)
     0.542717991  0.457282009  0.618300337
     0.457282009  0.542717991  0.618300337

  ion indices of the primitive-cell ions
   primitive index   ion index
                 1           1
                 2           2

----------------------------------------------------------------------------------------



 KPOINTS: KPOINTS created by Atomic Simulation Env

Automatic generation of k-mesh.
 Grid dimensions read from file:
 generate k-points for:    1    1    1

 Generating k-lattice:

  Cartesian coordinates                     Fractional coordinates (reciprocal lattice)
     0.047306258  0.000000000  0.000000000     1.000000000  0.000000000  0.000000000
     0.000000000  0.047306258  0.000000000     0.000000000  1.000000000  0.000000000
     0.000000000  0.000000000  0.045220457     0.000000000  0.000000000  1.000000000

  Length of vectors
     0.047306258  0.047306258  0.045220457

  Shift w.r.t. Gamma in fractional coordinates (k-lattice)
     0.000000000  0.000000000  0.000000000

 
 Subroutine IBZKPT returns following result:
 ===========================================
 
 Found      1 irreducible k-points:
 
 Following reciprocal coordinates:
            Coordinates               Weight
  0.000000  0.000000  0.000000      1.000000
 
 Following cartesian coordinates:
            Coordinates               Weight
  0.000000  0.000000  0.000000      1.000000
 


--------------------------------------------------------------------------------------------------------




 Dimension of arrays:
   k-points           NKPTS =      1   k-points in BZ     NKDIM =      1   number of bands    NBANDS=     64
   number of dos      NEDOS =    301   number of ions     NIONS =      2
   non local maximal  LDIM  =      6   non local SUM 2l+1 LMDIM =     18
   total plane-waves  NPLWV = ******
   max r-space proj   IRMAX =   6070   max aug-charges    IRDMAX=  26812
   dimension x,y,z NGX =   160 NGY =  160 NGZ =  168
   dimension x,y,z NGXF=   320 NGYF=  320 NGZF=  336
   support grid    NGXF=   320 NGYF=  320 NGZF=  336
   ions per type =               2
   NGX,Y,Z   is equivalent  to a cutoff of  12.58, 12.58, 12.63 a.u.
   NGXF,Y,Z  is equivalent  to a cutoff of  25.17, 25.17, 25.26 a.u.

 SYSTEM =  MgO-rocksalt                            
 POSCAR =  Au                                      

 Startparameter for this run:
   NWRITE =      2    write-flag & timer
   PREC   = accura    normal or accurate (medium, high low for compatibility)
   ISTART =      0    job   : 0-new  1-cont  2-samecut
   ICHARG =      2    charge: 1-file 2-atom 10-const
   ISPIN  =      1    spin polarized calculation?
   LNONCOLLINEAR =      F non collinear calculations
   LSORBIT =      F    spin-orbit coupling
   INIWAV =      1    electr: 0-lowe 1-rand  2-diag
   LASPH  =      T    aspherical Exc in radial PAW
 Electronic Relaxation 1
   ENCUT  =  520.0 eV  38.22 Ry    6.18 a.u.  39.30 39.30 41.12*2*pi/ulx,y,z
   ENINI  =  520.0     initial cutoff
   ENAUG  =  356.7 eV  augmentation charge cutoff
   NELM   =    200;   NELMIN=  8; NELMDL= -5     # of ELM steps 
   EDIFF  = 0.1E-05   stopping-criterion for ELM
   LREAL  =      T    real-space projection
   NLSPLINE    = F    spline interpolate recip. space projectors
   LCOMPAT=      F    compatible to vasp.4.4
   GGA_COMPAT  = T    GGA compatible to vasp.4.4-vasp.4.6
   LMAXPAW     = -100 max onsite density
   LMAXMIX     =    2 max onsite mixed and CHGCAR
   VOSKOWN=      0    Vosko Wilk Nusair interpolation
   ROPT   =   -0.00025
 Ionic relaxation
   EDIFFG = 0.1E-04   stopping-criterion for IOM
   NSW    =      0    number of steps for IOM
   NBLOCK =      1;   KBLOCK =      1    inner block; outer block 
   IBRION =     -1    ionic relax: 0-MD 1-quasi-New 2-CG
   NFREE  =      0    steps in history (QN), initial steepest desc. (CG)
   ISIF   =      2    stress and relaxation
   IWAVPR =     10    prediction:  0-non 1-charg 2-wave 3-comb
   ISYM   =      2    0-nonsym 1-usesym 2-fastsym
   LCORR  =      T    Harris-Foulkes like correction to forces

   POTIM  = 0.5000    time-step for ionic-motion
   TEIN   =    0.0    initial temperature
   TEBEG  =    0.0;   TEEND  =   0.0 temperature during run
   SMASS  =  -3.00    Nose mass-parameter (am)
   estimated Nose-frequenzy (Omega)   =  0.10E-29 period in steps = 0.13E+47 mass=  -0.102E-25a.u.
   SCALEE = 1.0000    scale energy and forces
   NPACO  =    256;   APACO  = 10.0  distance and # of slots for P.C.
   PSTRESS=    0.0 pullay stress

  Mass of Ions in am
   POMASS = 196.97
  Ionic Valenz
   ZVAL   =  11.00
  Atomic Wigner-Seitz radii
   RWIGS  =  -1.00
  virtual crystal weights 
   VCA    =   1.00
   NELECT =      22.0000    total number of electrons
   NUPDOWN=      -1.0000    fix difference up-down

 DOS related values:
   EMIN   =  10.00;   EMAX   =-10.00  energy-range for DOS
   EFERMI =   0.00
   ISMEAR =     0;   SIGMA  =   0.05  broadening in eV -4-tet -1-fermi 0-gaus

 Electronic relaxation 2 (details)
   IALGO  =     58    algorithm
   LDIAG  =      T    sub-space diagonalisation (order eigenvalues)
   LSUBROT=      F    optimize rotation matrix (better conditioning)
   TURBO    =      0    0=normal 1=particle mesh
   IRESTART =      0    0=no restart 2=restart with 2 vectors
   NREBOOT  =      0    no. of reboots
   NMIN     =      0    reboot dimension
   EREF     =   0.00    reference energy to select bands
   IMIX   =      4    mixing-type and parameters
     AMIX     =   0.40;   BMIX     =  1.00
     AMIX_MAG =   1.60;   BMIX_MAG =  1.00
     AMIN     =   0.10
     WC   =   100.;   INIMIX=   1;  MIXPRE=   1;  MAXMIX= -45

 Intra band minimization:
   WEIMIN = 0.0000     energy-eigenvalue tresh-hold
   EBREAK =  0.39E-08  absolut break condition
   DEPER  =   0.30     relativ break condition  

   TIME   =   0.40     timestep for ELM

  volume/ion in A,a.u.               =    4940.81     33342.21
  Fermi-wavevector in a.u.,A,eV,Ry     =   0.213767  0.403960  0.621734  0.045696
  Thomas-Fermi vector in A             =   0.985879

 Write flags
   LWAVE        =      F    write WAVECAR
   LDOWNSAMPLE  =      F    k-point downsampling of WAVECAR
   LCHARG       =      F    write CHGCAR
   LVTOT        =      F    write LOCPOT, total local potential
   LVHAR        =      F    write LOCPOT, Hartree potential only
   LELF         =      F    write electronic localiz. function (ELF)
   LORBIT       =      0    0 simple, 1 ext, 2 COOP (PROOUT), +10 PAW based schemes


 Dipole corrections
   LMONO  =      F    monopole corrections only (constant potential shift)
   LDIPOL =      T    correct potential (dipole corrections)
   IDIPOL =      3    1-x, 2-y, 3-z, 4-all directions 
   EPSILON=  1.0000000 bulk dielectric constant

 Exchange correlation treatment:
   GGA     =    RE    GGA type
   LEXCH   =    40    internal setting for exchange type
   LIBXC   =     F    Libxc                    
   VOSKOWN =     0    Vosko Wilk Nusair interpolation
   LHFCALC =     F    Hartree Fock is set to
   LHFONE  =     F    Hartree Fock one center treatment
   AEXX    =    0.0000 exact exchange contribution

 vdW DFT:
   LUSE_VDW   =     T    switch on vdW DFT
   Zab_VDW    =-.8491    correlation parameter
   PARAM1     =0.1234
   PARAM2     =1.0000
   PARAM3     =0.0000
   -- rVV10 --
   BPARAM     = 6.3000
   CPARAM     = 0.0093

 Linear response parameters
   LEPSILON=     F    determine dielectric tensor
   LRPA    =     F    only Hartree local field effects (RPA)
   LNABLA  =     F    use nabla operator in PAW spheres
   LVEL    =     F    velocity operator in full k-point grid
   CSHIFT  =0.1000    complex shift for real part using Kramers Kronig
   OMEGAMAX=  -1.0    maximum frequency
   DEG_THRESHOLD= 0.2000000E-02 threshold for treating states as degnerate
   RTIME   =   -0.100 relaxation time in fs
  (WPLASMAI=    0.000 imaginary part of plasma frequency in eV, 0.658/RTIME)
   DFIELD  = 0.0000000 0.0000000 0.0000000 field for delta impulse in time

  Optional k-point grid parameters
   LKPOINTS_OPT  =     F    use optional k-point grid
   KPOINTS_OPT_MODE=     1    mode for optional k-point grid

 Orbital magnetization related:
   ORBITALMAG=     F  switch on orbital magnetization
   LCHIMAG   =     F  perturbation theory with respect to B field
   DQ        =  0.001000  dq finite difference perturbation B field
   LLRAUG    =     F  two centre corrections for induced B field



--------------------------------------------------------------------------------------------------------


 Static calculation
 charge density and potential will be updated during run
 non-spin polarized calculation
 Conjugate gradient for all bands (Freysoldt, et al. PRB 79, 241103 (2009))
 preconditioned conjugated gradient                                        
 perform sub-space diagonalisation
    before iterative eigenvector-optimisation
 modified Broyden-mixing scheme, WC =      100.0
 initial mixing is a Kerker type mixing with AMIX =  0.4000 and BMIX =      1.0000
 Hartree-type preconditioning will be used
 using additional bands           53
 real space projection scheme for non local part
 use partial core corrections
 no Harris-corrections to forces 
 use gradient corrections 
 use of overlap-Matrix (Vanderbilt PP)
 Gauss-broadening in eV      SIGMA  =   0.05


--------------------------------------------------------------------------------------------------------


  energy-cutoff  :      520.00
  volume of cell :     9881.61
      direct lattice vectors                 reciprocal lattice vectors
    21.138852197  0.000000000  0.000000000     0.047306258  0.000000000  0.000000000
     0.000000000 21.138852197  0.000000000     0.000000000  0.047306258  0.000000000
     0.000000000  0.000000000 22.113885220     0.000000000  0.000000000  0.045220457

  length of vectors
    21.138852197 21.138852197 22.113885220     0.047306258  0.047306258  0.045220457



 k-points in units of 2pi/SCALE and weight: KPOINTS created by Atomic Simulation Env
   0.00000000  0.00000000  0.00000000       1.000

 k-points in reciprocal lattice and weights: KPOINTS created by Atomic Simulation Env
   0.00000000  0.00000000  0.00000000       1.000

 position of ions in fractional coordinates (direct lattice) 
   0.54271799  0.45728201  0.61830034
   0.45728201  0.54271799  0.61830034

 position of ions in cartesian coordinates  (Angst):
  11.47243539  9.66641680 13.67302268
   9.66641680 11.47243539 13.67302268



--------------------------------------------------------------------------------------------------------


 k-point   1 :   0.0000 0.0000 0.0000  plane waves:  265979

 maximum and minimum number of plane-waves per node :     66495    66494

 maximum number of plane-waves:    265979
 maximum index in each direction: 
   IXMAX=   39   IYMAX=   39   IZMAX=   41
   IXMIN=  -39   IYMIN=  -39   IZMIN=  -41


 real space projection operators:
  total allocation   :       1640.53 KBytes
  max/ min on nodes  :        413.30        405.84


 parallel 3D FFT for wavefunctions:
    minimum data exchange during FFTs selected (reduces bandwidth)
 parallel 3D FFT for charge:
    minimum data exchange during FFTs selected (reduces bandwidth)


 total amount of memory used by VASP MPI-rank0   125810. kBytes
=======================================================================

   base      :      30000. kBytes
   nonlr-proj:        706. kBytes
   fftplans  :      38424. kBytes
   grid      :      53473. kBytes
   one-center:         15. kBytes
   wavefun   :       3192. kBytes

     INWAV:  cpu time      0.0000: real time      0.0000
 Broyden mixing: mesh for mixing (old mesh)
   NGX = 79   NGY = 79   NGZ = 83
  (NGX  =320   NGY  =320   NGZ  =336)
  gives a total of 518003 points

 initial charge density was supplied:
 charge density of overlapping atoms calculated
 number of electron      22.0000000 magnetization 
 keeping initial charge density in first step


--------------------------------------------------------------------------------------------------------


 Maximum index for non-local projection operator         1451
 Maximum index for augmentation-charges            0 (set IRDMAX)


--------------------------------------------------------------------------------------------------------


 First call to EWALD:  gamma=   0.083
 Maximum number of real-space cells 3x 3x 3
 Maximum number of reciprocal cells 3x 3x 3

    FEWALD:  cpu time      0.0007: real time      0.0007


--------------------------------------- Iteration      1(   1)  ---------------------------------------


vdW kernel read from vdw_kernel.bindat
  0.0000  0.2424  0.5071  0.7962  1.1119  1.4567  1.8333  2.2446  2.6937  3.1842
  3.7199  4.3049  4.9438  5.6415  6.4036  7.2358  8.1446  9.1372 10.2212 11.4050
 12.6979 14.1099 15.6519 17.3360 19.1751 21.1837 23.3773 25.7729 28.3892 31.2465
 34.3669 37.7748 41.4965 45.5611 50.0000

    POTLOK:  cpu time      2.0797: real time      2.0806
    SETDIJ:  cpu time      0.1191: real time      0.1192
    TRIAL :  cpu time      0.4327: real time      0.4333
    CORREC:  cpu time      0.0013: real time      0.0013
    --------------------------------------------
      LOOP:  cpu time      2.6352: real time      2.6369

 eigenvalue-minimisations  :   128
 total energy-change (2. order) : 0.1525122E+03  (-0.3778445E+03)
 number of electron      22.0000000 magnetization 
 augmentation part       22.0000000 magnetization 

 DIPCOR: dipole corrections for dipol
 direction  3 min pos     1,
 dipolmoment           0.000000      0.000000     -0.000012 electrons x Angstroem
 Tr[quadrupol]     -4110.734252

 energy correction for charged system         0.000000 eV
 dipol+quadrupol energy correction           -0.000000 eV
 added-field ion interaction          0.000014 eV  (added to PSCEN)


 Free energy of the ion-electron system (eV)
  ---------------------------------------------------
  alpha Z        PSCENC =         0.47151422
  Ewald energy   TEWEN  =       224.31077076
  -Hartree energ DENC   =     -1998.48365710
  -exchange      EXHF   =         0.00000000
  -V(xc)+E(xc)   XCENC  =        25.67506762
  PAW double counting   =      1752.59065627    -1703.61669791
  entropy T*S    EENTRO =        -0.00389147
  eigenvalues    EBANDS =        -8.05135800
  atomic energy  EATOM  =      1859.61980172
  ---------------------------------------------------
  free energy    TOTEN  =       152.51220612 eV

  energy without entropy =      152.51609758  energy(sigma->0) =      152.51415185


--------------------------------------------------------------------------------------------------------




--------------------------------------- Iteration      1(   2)  ---------------------------------------


    TRIAL :  cpu time      0.9306: real time      0.9306
    CORREC:  cpu time      0.0007: real time      0.0007
    --------------------------------------------
      LOOP:  cpu time      0.9369: real time      0.9452

 eigenvalue-minimisations  :   256
 total energy-change (2. order) :-0.1379354E+03  (-0.1379085E+03)
 number of electron      22.0000000 magnetization 
 augmentation part       22.0000000 magnetization 

 DIPCOR: dipole corrections for dipol
 direction  3 min pos     1,
 dipolmoment           0.000000      0.000000     -0.000012 electrons x Angstroem
 Tr[quadrupol]     -4110.734252

 energy correction for charged system         0.000000 eV
 dipol+quadrupol energy correction           -0.000000 eV
 added-field ion interaction          0.000014 eV  (added to PSCEN)


 Free energy of the ion-electron system (eV)
  ---------------------------------------------------
  alpha Z        PSCENC =         0.47151422
  Ewald energy   TEWEN  =       224.31077076
  -Hartree energ DENC   =     -1998.48365710
  -exchange      EXHF   =         0.00000000
  -V(xc)+E(xc)   XCENC  =        25.67506762
  PAW double counting   =      1752.59065627    -1703.61669791
  entropy T*S    EENTRO =        -0.00000000
  eigenvalues    EBANDS =      -145.99064263
  atomic energy  EATOM  =      1859.61980172
  ---------------------------------------------------
  free energy    TOTEN  =        14.57681296 eV

  energy without entropy =       14.57681296  energy(sigma->0) =       14.57681296


--------------------------------------------------------------------------------------------------------




--------------------------------------- Iteration      1(   3)  ---------------------------------------


    TRIAL :  cpu time      0.4230: real time      0.4231
    CORREC:  cpu time      0.0002: real time      0.0002
    --------------------------------------------
      LOOP:  cpu time      0.4274: real time      0.4359

 eigenvalue-minimisations  :   128
 total energy-change (2. order) :-0.1126049E+02  (-0.1126049E+02)
 number of electron      22.0000000 magnetization 
 augmentation part       22.0000000 magnetization 

 DIPCOR: dipole corrections for dipol
 direction  3 min pos     1,
 dipolmoment           0.000000      0.000000     -0.000012 electrons x Angstroem
 Tr[quadrupol]     -4110.734252

 energy correction for charged system         0.000000 eV
 dipol+quadrupol energy correction           -0.000000 eV
 added-field ion interaction          0.000014 eV  (added to PSCEN)


 Free energy of the ion-electron system (eV)
  ---------------------------------------------------
  alpha Z        PSCENC =         0.47151422
  Ewald energy   TEWEN  =       224.31077076
  -Hartree energ DENC   =     -1998.48365710
  -exchange      EXHF   =         0.00000000
  -V(xc)+E(xc)   XCENC  =        25.67506762
  PAW double counting   =      1752.59065627    -1703.61669791
  entropy T*S    EENTRO =        -0.00000000
  eigenvalues    EBANDS =      -157.25112766
  atomic energy  EATOM  =      1859.61980172
  ---------------------------------------------------
  free energy    TOTEN  =         3.31632793 eV

  energy without entropy =        3.31632793  energy(sigma->0) =        3.31632793


--------------------------------------------------------------------------------------------------------




--------------------------------------- Iteration      1(   4)  ---------------------------------------


    TRIAL :  cpu time      0.4232: real time      0.4232
    CORREC:  cpu time      0.0002: real time      0.0002
    --------------------------------------------
      LOOP:  cpu time      0.4274: real time      0.4357

 eigenvalue-minimisations  :   128
 total energy-change (2. order) :-0.7267202E-01  (-0.7267202E-01)
 number of electron      22.0000000 magnetization 
 augmentation part       22.0000000 magnetization 

 DIPCOR: dipole corrections for dipol
 direction  3 min pos     1,
 dipolmoment           0.000000      0.000000     -0.000012 electrons x Angstroem
 Tr[quadrupol]     -4110.734252

 energy correction for charged system         0.000000 eV
 dipol+quadrupol energy correction           -0.000000 eV
 added-field ion interaction          0.000014 eV  (added to PSCEN)


 Free energy of the ion-electron system (eV)
  ---------------------------------------------------
  alpha Z        PSCENC =         0.47151422
  Ewald energy   TEWEN  =       224.31077076
  -Hartree energ DENC   =     -1998.48365710
  -exchange      EXHF   =         0.00000000
  -V(xc)+E(xc)   XCENC  =        25.67506762
  PAW double counting   =      1752.59065627    -1703.61669791
  entropy T*S    EENTRO =        -0.00000000
  eigenvalues    EBANDS =      -157.32379968
  atomic energy  EATOM  =      1859.61980172
  ---------------------------------------------------
  free energy    TOTEN  =         3.24365590 eV

  energy without entropy =        3.24365590  energy(sigma->0) =        3.24365590


--------------------------------------------------------------------------------------------------------




--------------------------------------- Iteration      1(   5)  ---------------------------------------


    TRIAL :  cpu time      0.9159: real time      0.9161
    CORREC:  cpu time      0.0004: real time      0.0004
    CHARGE:  cpu time      0.5699: real time      0.5708
    --------------------------------------------
      LOOP:  cpu time      1.4899: real time      1.4995

 eigenvalue-minimisations  :   256
 total energy-change (2. order) :-0.1282600E-02  (-0.1282600E-02)
 number of electron      21.9999998 magnetization 
 augmentation part        8.0627834 magnetization 

 DIPCOR: dipole corrections for dipol
 direction  3 min pos     1,
 dipolmoment           0.000000      0.000000     -0.000012 electrons x Angstroem
 Tr[quadrupol]     -4110.734252

 energy correction for charged system         0.000000 eV
 dipol+quadrupol energy correction           -0.000000 eV
 added-field ion interaction          0.000014 eV  (added to PSCEN)


 Free energy of the ion-electron system (eV)
  ---------------------------------------------------
  alpha Z        PSCENC =         0.47151422
  Ewald energy   TEWEN  =       224.31077076
  -Hartree energ DENC   =     -1998.48365710
  -exchange      EXHF   =         0.00000000
  -V(xc)+E(xc)   XCENC  =        25.67506762
  PAW double counting   =      1752.59065627    -1703.61669791
  entropy T*S    EENTRO =        -0.00000000
  eigenvalues    EBANDS =      -157.32508228
  atomic energy  EATOM  =      1859.61980172
  ---------------------------------------------------
  free energy    TOTEN  =         3.24237330 eV

  energy without entropy =        3.24237330  energy(sigma->0) =        3.24237330


--------------------------------------------------------------------------------------------------------




--------------------------------------- Iteration      1(   6)  ---------------------------------------


    POTLOK:  cpu time      1.6861: real time      1.6864
    SETDIJ:  cpu time      0.1119: real time      0.1119
    TRIAL :  cpu time      0.2437: real time      0.2442
    CORREC:  cpu time      2.4835: real time      2.4841
    CHARGE:  cpu time      0.5608: real time      0.5611
    --------------------------------------------
      LOOP:  cpu time      5.0991: real time      5.1011

 eigenvalue-minimisations  :     0
 total energy-change (2. order) : 0.7277843E+00  (-0.3294744E+00)
 number of electron      21.9999998 magnetization 
 augmentation part        8.1850595 magnetization 

 DIPCOR: dipole corrections for dipol
 direction  3 min pos     1,
 dipolmoment           0.000000      0.000000     -0.000493 electrons x Angstroem
 Tr[quadrupol]     -4110.475041

 energy correction for charged system         0.000000 eV
 dipol+quadrupol energy correction           -0.000000 eV
 added-field ion interaction          0.000562 eV  (added to PSCEN)


 Free energy of the ion-electron system (eV)
  ---------------------------------------------------
  alpha Z        PSCENC =         0.47150218
  Ewald energy   TEWEN  =       224.31077076
  -Hartree energ DENC   =     -1992.06662987
  -exchange      EXHF   =         0.00000000
  -V(xc)+E(xc)   XCENC  =        25.21943667
  PAW double counting   =      1850.82239601    -1804.15460565
  entropy T*S    EENTRO =        -0.00000000
  eigenvalues    EBANDS =      -160.25251426
  atomic energy  EATOM  =      1859.61980172
  ---------------------------------------------------
  free energy    TOTEN  =         3.97015756 eV

  energy without entropy =        3.97015756  energy(sigma->0) =        3.97015756


--------------------------------------------------------------------------------------------------------




--------------------------------------- Iteration      1(   7)  ---------------------------------------


    POTLOK:  cpu time      1.7352: real time      1.7355
    SETDIJ:  cpu time      0.1059: real time      0.1059
    TRIAL :  cpu time      0.2369: real time      0.2369
    CORREC:  cpu time      2.4738: real time      2.4742
    CHARGE:  cpu time      0.5599: real time      0.5600
    --------------------------------------------
      LOOP:  cpu time      5.1158: real time      5.1251

 eigenvalue-minimisations  :     0
 total energy-change (2. order) :-0.3295913E+00  (-0.5343241E-01)
 number of electron      21.9999998 magnetization 
 augmentation part        8.1638387 magnetization 

 DIPCOR: dipole corrections for dipol
 direction  3 min pos     1,
 dipolmoment           0.000000      0.000000     -0.000363 electrons x Angstroem
 Tr[quadrupol]     -4110.465233

 energy correction for charged system         0.000000 eV
 dipol+quadrupol energy correction           -0.000000 eV
 added-field ion interaction          0.000413 eV  (added to PSCEN)


 Free energy of the ion-electron system (eV)
  ---------------------------------------------------
  alpha Z        PSCENC =         0.47212784
  Ewald energy   TEWEN  =       224.31077076
  -Hartree energ DENC   =     -1999.96057444
  -exchange      EXHF   =         0.00000000
  -V(xc)+E(xc)   XCENC  =        25.62170752
  PAW double counting   =      1865.91402435    -1818.87010650
  entropy T*S    EENTRO =        -0.00000000
  eigenvalues    EBANDS =      -153.46718501
  atomic energy  EATOM  =      1859.61980172
  ---------------------------------------------------
  free energy    TOTEN  =         3.64056625 eV

  energy without entropy =        3.64056625  energy(sigma->0) =        3.64056625


--------------------------------------------------------------------------------------------------------




--------------------------------------- Iteration      1(   8)  ---------------------------------------


    POTLOK:  cpu time      1.7327: real time      1.7330
    SETDIJ:  cpu time      0.1097: real time      0.1097
    TRIAL :  cpu time      0.2370: real time      0.2370
    CORREC:  cpu time      2.4674: real time      2.4679
    CHARGE:  cpu time      0.5603: real time      0.5603
    --------------------------------------------
      LOOP:  cpu time      5.1208: real time      5.1219

 eigenvalue-minimisations  :     0
 total energy-change (2. order) :-0.5271734E-01  (-0.1829719E-01)
 number of electron      21.9999998 magnetization 
 augmentation part        8.1959890 magnetization 

 DIPCOR: dipole corrections for dipol
 direction  3 min pos     1,
 dipolmoment           0.000000      0.000000     -0.000050 electrons x Angstroem
 Tr[quadrupol]     -4110.502025

 energy correction for charged system         0.000000 eV
 dipol+quadrupol energy correction           -0.000000 eV
 added-field ion interaction          0.000057 eV  (added to PSCEN)


 Free energy of the ion-electron system (eV)
  ---------------------------------------------------
  alpha Z        PSCENC =         0.47178624
  Ewald energy   TEWEN  =       224.31077076
  -Hartree energ DENC   =     -1992.89241391
  -exchange      EXHF   =         0.00000000
  -V(xc)+E(xc)   XCENC  =        25.40418836
  PAW double counting   =      1853.27922142    -1806.14876247
  entropy T*S    EENTRO =        -0.00000000
  eigenvalues    EBANDS =      -160.45674321
  atomic energy  EATOM  =      1859.61980172
  ---------------------------------------------------
  free energy    TOTEN  =         3.58784891 eV

  energy without entropy =        3.58784891  energy(sigma->0) =        3.58784891


--------------------------------------------------------------------------------------------------------




--------------------------------------- Iteration      1(   9)  ---------------------------------------


    POTLOK:  cpu time      1.7271: real time      1.7275
    SETDIJ:  cpu time      0.1071: real time      0.1071
    TRIAL :  cpu time      0.2364: real time      0.2364
    CORREC:  cpu time      2.4436: real time      2.4441
    CHARGE:  cpu time      0.5609: real time      0.5609
    --------------------------------------------
      LOOP:  cpu time      5.0813: real time      5.0887

 eigenvalue-minimisations  :     0
 total energy-change (2. order) :-0.1831658E-01  (-0.4551560E-02)
 number of electron      21.9999998 magnetization 
 augmentation part        8.1981691 magnetization 

 DIPCOR: dipole corrections for dipol
 direction  3 min pos     1,
 dipolmoment           0.000000      0.000000     -0.000006 electrons x Angstroem
 Tr[quadrupol]     -4110.519455

 energy correction for charged system         0.000000 eV
 dipol+quadrupol energy correction           -0.000000 eV
 added-field ion interaction          0.000007 eV  (added to PSCEN)


 Free energy of the ion-electron system (eV)
  ---------------------------------------------------
  alpha Z        PSCENC =         0.47153147
  Ewald energy   TEWEN  =       224.31077076
  -Hartree energ DENC   =     -1997.42567273
  -exchange      EXHF   =         0.00000000
  -V(xc)+E(xc)   XCENC  =        25.54421227
  PAW double counting   =      1860.12899827    -1812.86509370
  entropy T*S    EENTRO =        -0.00000000
  eigenvalues    EBANDS =      -156.21501574
  atomic energy  EATOM  =      1859.61980172
  ---------------------------------------------------
  free energy    TOTEN  =         3.56953233 eV

  energy without entropy =        3.56953233  energy(sigma->0) =        3.56953233


--------------------------------------------------------------------------------------------------------




--------------------------------------- Iteration      1(  10)  ---------------------------------------


    POTLOK:  cpu time      1.7018: real time      1.7021
    SETDIJ:  cpu time      0.1053: real time      0.1053
    TRIAL :  cpu time      0.2363: real time      0.2363
    CORREC:  cpu time      2.4314: real time      2.4318
    CHARGE:  cpu time      0.5598: real time      0.5599
    --------------------------------------------
      LOOP:  cpu time      5.0480: real time      5.0493

 eigenvalue-minimisations  :     0
 total energy-change (2. order) :-0.4552457E-02  (-0.7864343E-03)
 number of electron      21.9999998 magnetization 
 augmentation part        8.1957814 magnetization 

 DIPCOR: dipole corrections for dipol
 direction  3 min pos     1,
 dipolmoment           0.000000      0.000000     -0.000002 electrons x Angstroem
 Tr[quadrupol]     -4110.518646

 energy correction for charged system         0.000000 eV
 dipol+quadrupol energy correction           -0.000000 eV
 added-field ion interaction          0.000003 eV  (added to PSCEN)


 Free energy of the ion-electron system (eV)
  ---------------------------------------------------
  alpha Z        PSCENC =         0.47150514
  Ewald energy   TEWEN  =       224.31077076
  -Hartree energ DENC   =     -1997.23734496
  -exchange      EXHF   =         0.00000000
  -V(xc)+E(xc)   XCENC  =        25.53779193
  PAW double counting   =      1859.12266456    -1811.79837028
  entropy T*S    EENTRO =        -0.00000000
  eigenvalues    EBANDS =      -156.46183900
  atomic energy  EATOM  =      1859.61980172
  ---------------------------------------------------
  free energy    TOTEN  =         3.56497987 eV

  energy without entropy =        3.56497987  energy(sigma->0) =        3.56497987


--------------------------------------------------------------------------------------------------------




--------------------------------------- Iteration      1(  11)  ---------------------------------------


    POTLOK:  cpu time      1.6937: real time      1.6941
    SETDIJ:  cpu time      0.1079: real time      0.1079
    TRIAL :  cpu time      0.2361: real time      0.2361
    CORREC:  cpu time      2.4313: real time      2.4322
    CHARGE:  cpu time      0.5602: real time      0.5602
    --------------------------------------------
      LOOP:  cpu time      5.0345: real time      5.0434

 eigenvalue-minimisations  :     0
 total energy-change (2. order) :-0.7882700E-03  (-0.1642778E-03)
 number of electron      21.9999998 magnetization 
 augmentation part        8.1986521 magnetization 

 DIPCOR: dipole corrections for dipol
 direction  3 min pos     1,
 dipolmoment           0.000000      0.000000     -0.000002 electrons x Angstroem
 Tr[quadrupol]     -4110.521053

 energy correction for charged system         0.000000 eV
 dipol+quadrupol energy correction           -0.000000 eV
 added-field ion interaction          0.000002 eV  (added to PSCEN)


 Free energy of the ion-electron system (eV)
  ---------------------------------------------------
  alpha Z        PSCENC =         0.47150314
  Ewald energy   TEWEN  =       224.31077076
  -Hartree energ DENC   =     -1996.68436480
  -exchange      EXHF   =         0.00000000
  -V(xc)+E(xc)   XCENC  =        25.52047829
  PAW double counting   =      1857.67367395    -1810.34261011
  entropy T*S    EENTRO =        -0.00000000
  eigenvalues    EBANDS =      -157.00506137
  atomic energy  EATOM  =      1859.61980172
  ---------------------------------------------------
  free energy    TOTEN  =         3.56419160 eV

  energy without entropy =        3.56419160  energy(sigma->0) =        3.56419160


--------------------------------------------------------------------------------------------------------




--------------------------------------- Iteration      1(  12)  ---------------------------------------


    POTLOK:  cpu time      1.6901: real time      1.6905
    SETDIJ:  cpu time      0.1116: real time      0.1116
    TRIAL :  cpu time      0.2364: real time      0.2364
    CORREC:  cpu time      2.4297: real time      2.4301
    CHARGE:  cpu time      0.5587: real time      0.5588
    --------------------------------------------
      LOOP:  cpu time      5.0314: real time      5.0406

 eigenvalue-minimisations  :     0
 total energy-change (2. order) :-0.1638776E-03  (-0.4034725E-04)
 number of electron      21.9999998 magnetization 
 augmentation part        8.1979932 magnetization 

 DIPCOR: dipole corrections for dipol
 direction  3 min pos     1,
 dipolmoment           0.000000      0.000000     -0.000002 electrons x Angstroem
 Tr[quadrupol]     -4110.520635

 energy correction for charged system         0.000000 eV
 dipol+quadrupol energy correction           -0.000000 eV
 added-field ion interaction          0.000002 eV  (added to PSCEN)


 Free energy of the ion-electron system (eV)
  ---------------------------------------------------
  alpha Z        PSCENC =         0.47150245
  Ewald energy   TEWEN  =       224.31077076
  -Hartree energ DENC   =     -1997.14995182
  -exchange      EXHF   =         0.00000000
  -V(xc)+E(xc)   XCENC  =        25.53548206
  PAW double counting   =      1858.29363405    -1810.95723433
  entropy T*S    EENTRO =        -0.00000000
  eigenvalues    EBANDS =      -156.55997717
  atomic energy  EATOM  =      1859.61980172
  ---------------------------------------------------
  free energy    TOTEN  =         3.56402772 eV

  energy without entropy =        3.56402772  energy(sigma->0) =        3.56402772


--------------------------------------------------------------------------------------------------------




--------------------------------------- Iteration      1(  13)  ---------------------------------------


    POTLOK:  cpu time      1.6894: real time      1.6898
    SETDIJ:  cpu time      0.1072: real time      0.1072
    TRIAL :  cpu time      0.2366: real time      0.2366
    CORREC:  cpu time      2.4313: real time      2.4318
    CHARGE:  cpu time      0.5607: real time      0.5607
    --------------------------------------------
      LOOP:  cpu time      5.0305: real time      5.0391

 eigenvalue-minimisations  :     0
 total energy-change (2. order) :-0.4062723E-04  (-0.6571358E-05)
 number of electron      21.9999998 magnetization 
 augmentation part        8.1979463 magnetization 

 DIPCOR: dipole corrections for dipol
 direction  3 min pos     1,
 dipolmoment           0.000000      0.000000     -0.000002 electrons x Angstroem
 Tr[quadrupol]     -4110.519999

 energy correction for charged system         0.000000 eV
 dipol+quadrupol energy correction           -0.000000 eV
 added-field ion interaction          0.000002 eV  (added to PSCEN)


 Free energy of the ion-electron system (eV)
  ---------------------------------------------------
  alpha Z        PSCENC =         0.47150223
  Ewald energy   TEWEN  =       224.31077076
  -Hartree energ DENC   =     -1997.02284222
  -exchange      EXHF   =         0.00000000
  -V(xc)+E(xc)   XCENC  =        25.53101922
  PAW double counting   =      1858.05394540    -1810.71892239
  entropy T*S    EENTRO =        -0.00000000
  eigenvalues    EBANDS =      -156.68128762
  atomic energy  EATOM  =      1859.61980172
  ---------------------------------------------------
  free energy    TOTEN  =         3.56398710 eV

  energy without entropy =        3.56398710  energy(sigma->0) =        3.56398710


--------------------------------------------------------------------------------------------------------




--------------------------------------- Iteration      1(  14)  ---------------------------------------


    POTLOK:  cpu time      1.6896: real time      1.6900
    SETDIJ:  cpu time      0.1090: real time      0.1090
    TRIAL :  cpu time      0.2369: real time      0.2370
    CORREC:  cpu time      2.4318: real time      2.4321
    CHARGE:  cpu time      0.5586: real time      0.5587
    --------------------------------------------
      LOOP:  cpu time      5.0390: real time      5.0404

 eigenvalue-minimisations  :     0
 total energy-change (2. order) :-0.6615012E-05  (-0.1239574E-05)
 number of electron      21.9999998 magnetization 
 augmentation part        8.1980970 magnetization 

 DIPCOR: dipole corrections for dipol
 direction  3 min pos     1,
 dipolmoment           0.000000      0.000000     -0.000002 electrons x Angstroem
 Tr[quadrupol]     -4110.519988

 energy correction for charged system         0.000000 eV
 dipol+quadrupol energy correction           -0.000000 eV
 added-field ion interaction          0.000002 eV  (added to PSCEN)


 Free energy of the ion-electron system (eV)
  ---------------------------------------------------
  alpha Z        PSCENC =         0.47150218
  Ewald energy   TEWEN  =       224.31077076
  -Hartree energ DENC   =     -1997.00169398
  -exchange      EXHF   =         0.00000000
  -V(xc)+E(xc)   XCENC  =        25.53041249
  PAW double counting   =      1858.07295214    -1810.73815500
  entropy T*S    EENTRO =        -0.00000000
  eigenvalues    EBANDS =      -156.70160984
  atomic energy  EATOM  =      1859.61980172
  ---------------------------------------------------
  free energy    TOTEN  =         3.56398048 eV

  energy without entropy =        3.56398048  energy(sigma->0) =        3.56398048


--------------------------------------------------------------------------------------------------------




--------------------------------------- Iteration      1(  15)  ---------------------------------------


    POTLOK:  cpu time      1.6899: real time      1.6901
    SETDIJ:  cpu time      0.1077: real time      0.1077
    TRIAL :  cpu time      0.2361: real time      0.2363
    CORREC:  cpu time      2.4305: real time      2.4310
    CHARGE:  cpu time      0.5603: real time      0.5604
    --------------------------------------------
      LOOP:  cpu time      5.0296: real time      5.0390

 eigenvalue-minimisations  :     0
 total energy-change (2. order) :-0.1092783E-05  (-0.1831254E-06)
 number of electron      21.9999998 magnetization 
 augmentation part        8.1979987 magnetization 

 DIPCOR: dipole corrections for dipol
 direction  3 min pos     1,
 dipolmoment           0.000000      0.000000     -0.000002 electrons x Angstroem
 Tr[quadrupol]     -4110.519786

 energy correction for charged system         0.000000 eV
 dipol+quadrupol energy correction           -0.000000 eV
 added-field ion interaction          0.000002 eV  (added to PSCEN)


 Free energy of the ion-electron system (eV)
  ---------------------------------------------------
  alpha Z        PSCENC =         0.47150216
  Ewald energy   TEWEN  =       224.31077076
  -Hartree energ DENC   =     -1997.03094363
  -exchange      EXHF   =         0.00000000
  -V(xc)+E(xc)   XCENC  =        25.53137704
  PAW double counting   =      1858.16123412    -1810.82653863
  entropy T*S    EENTRO =        -0.00000000
  eigenvalues    EBANDS =      -156.67322416
  atomic energy  EATOM  =      1859.61980172
  ---------------------------------------------------
  free energy    TOTEN  =         3.56397939 eV

  energy without entropy =        3.56397939  energy(sigma->0) =        3.56397939


--------------------------------------------------------------------------------------------------------




--------------------------------------- Iteration      1(  16)  ---------------------------------------


    POTLOK:  cpu time      1.6908: real time      1.6910
    SETDIJ:  cpu time      0.1083: real time      0.1083
    TRIAL :  cpu time      0.2370: real time      0.2371
    CORREC:  cpu time      2.4290: real time      2.4294
    EDDIAG:  cpu time      0.0974: real time      0.0977
    CHARGE:  cpu time      0.5608: real time      0.5610
    --------------------------------------------
      LOOP:  cpu time      5.1280: real time      5.1375

 eigenvalue-minimisations  :     0
 total energy-change (2. order) :-0.1575036E-06  (-0.6446494E-07)
 number of electron      21.9999998 magnetization 
 augmentation part        8.1979451 magnetization 

 DIPCOR: dipole corrections for dipol
 direction  3 min pos     1,
 dipolmoment           0.000000      0.000000     -0.000002 electrons x Angstroem
 Tr[quadrupol]     -4110.519681

 energy correction for charged system         0.000000 eV
 dipol+quadrupol energy correction           -0.000000 eV
 added-field ion interaction          0.000002 eV  (added to PSCEN)


 Free energy of the ion-electron system (eV)
  ---------------------------------------------------
  alpha Z        PSCENC =         0.47150216
  Ewald energy   TEWEN  =       224.31077076
  -Hartree energ DENC   =     -1997.01550584
  -exchange      EXHF   =         0.00000000
  -V(xc)+E(xc)   XCENC  =        25.53087883
  PAW double counting   =      1858.14450683    -1810.81010363
  entropy T*S    EENTRO =        -0.00000000
  eigenvalues    EBANDS =      -156.68787161
  atomic energy  EATOM  =      1859.61980172
  ---------------------------------------------------
  free energy    TOTEN  =         3.56397923 eV

  energy without entropy =        3.56397923  energy(sigma->0) =        3.56397923


--------------------------------------------------------------------------------------------------------


  average scaling for gradient   1.5216


 average (electrostatic) potential at core
  the test charge radii are     1.2098
  (the norm of the test charge is              1.0000)
       1 -76.9243       2 -76.9243



 E-fermi :  -6.1800     XC(G=0):  -0.1955     alpha+bet : -0.0481

 Fermi energy:        -6.1799809328

 k-point     1 :       0.0000    0.0000    0.0000
  band No.  band energies     occupation 
      1      -8.9987      2.00000
      2      -7.9130      2.00000
      3      -7.9130      2.00000
      4      -7.0289      2.00000
      5      -7.0289      2.00000
      6      -6.7336      2.00000
      7      -6.7336      2.00000
      8      -6.5526      2.00000
      9      -6.5047      2.00000
     10      -6.5047      2.00000
     11      -6.4400      2.00000
     12      -4.5263      0.00000
     13      -1.4938      0.00000
     14      -1.4933      0.00000
     15      -1.1661      0.00000
     16      -0.0596      0.00000
     17      -0.0110      0.00000
     18       0.0046      0.00000
     19       0.1317      0.00000
     20       0.1951      0.00000
     21       0.3174      0.00000
     22       0.3242      0.00000
     23       0.3609      0.00000
     24       0.4127      0.00000
     25       0.5123      0.00000
     26       0.5485      0.00000
     27       0.5595      0.00000
     28       0.6225      0.00000
     29       0.6529      0.00000
     30       0.6618      0.00000
     31       0.6648      0.00000
     32       0.6648      0.00000
     33       0.6817      0.00000
     34       0.6947      0.00000
     35       0.7072      0.00000
     36       0.7232      0.00000
     37       0.8742      0.00000
     38       0.9199      0.00000
     39       0.9330      0.00000
     40       0.9454      0.00000
     41       0.9703      0.00000
     42       0.9806      0.00000
     43       0.9967      0.00000
     44       1.0670      0.00000
     45       1.0869      0.00000
     46       1.2208      0.00000
     47       1.2355      0.00000
     48       1.2934      0.00000
     49       1.3050      0.00000
     50       1.3116      0.00000
     51       1.3830      0.00000
     52       1.4104      0.00000
     53       1.4162      0.00000
     54       1.4642      0.00000
     55       1.5232      0.00000
     56       1.5393      0.00000
     57       1.5416      0.00000
     58       1.5485      0.00000
     59       1.5812      0.00000
     60       1.5818      0.00000
     61       1.5933      0.00000
     62       1.6036      0.00000
     63       1.6189      0.00000
     64       1.6230      0.00000


--------------------------------------------------------------------------------------------------------


 soft charge-density along one line, spin component           1
         0         1         2         3         4         5         6         7         8         9
 total charge-density along one line

 pseudopotential strength for first ion, spin component:           1
 -9.232   0.000  -0.065  -0.000  -0.000  -9.353   0.000  -0.064
  0.000  -9.166   0.000   0.047  -0.000   0.000  -9.289   0.000
 -0.065   0.000  -9.156  -0.000  -0.000  -0.064   0.000  -9.279
 -0.000   0.047  -0.000  -9.166  -0.000  -0.000   0.046  -0.000
 -0.000  -0.000  -0.000  -0.000  -9.214  -0.000  -0.000  -0.000
 -9.353   0.000  -0.064  -0.000  -0.000  -9.459   0.000  -0.063
  0.000  -9.289   0.000   0.046  -0.000   0.000  -9.395   0.000
 -0.064   0.000  -9.279  -0.000  -0.000  -0.063   0.000  -9.386
 -0.000   0.046  -0.000  -9.289  -0.000  -0.000   0.045  -0.000
 -0.000  -0.000  -0.000  -0.000  -9.335  -0.000  -0.000  -0.000
 -0.039  -0.000  -0.022   0.000   0.000  -0.039  -0.000  -0.022
 -0.056  -0.000  -0.032   0.000   0.000  -0.056  -0.000  -0.032
  0.023   0.000   0.013   0.000   0.023   0.022  -0.000   0.013
  0.000  -0.023   0.000   0.023   0.000   0.000  -0.023   0.000
 -0.023   0.000  -0.013   0.000   0.023  -0.022   0.000  -0.013
  0.027   0.000   0.015   0.000   0.026   0.026   0.000   0.015
  0.000  -0.026   0.000   0.026   0.000   0.000  -0.026   0.000
 -0.027   0.000  -0.015   0.000   0.026  -0.026   0.000  -0.015
 total augmentation occupancy for first ion, spin component:           1
  2.936  -0.000   0.348   0.000  -0.000  -1.073  -0.000  -0.514   0.000   0.000   1.360  -0.208   0.108  -0.000  -0.108   0.013
  0.000   2.532  -0.000  -0.200  -0.000   0.000  -0.414   0.000   0.232  -0.000  -0.000  -0.000   0.000  -0.028  -0.000   0.000
  0.348  -0.000   2.534  -0.000  -0.000  -0.514  -0.000  -0.479   0.000   0.000   0.785  -0.120   0.062   0.000  -0.062   0.008
 -0.000  -0.200  -0.000   2.532   0.000  -0.000   0.232   0.000  -0.414  -0.000  -0.000   0.000   0.000   0.028   0.000   0.000
 -0.000  -0.000  -0.000   0.000   2.732   0.000  -0.000   0.000  -0.000  -0.647  -0.000   0.000   0.028  -0.000   0.028   0.025
 -1.073   0.000  -0.514  -0.000   0.000   1.149  -0.000   0.643   0.000  -0.000  -1.101   0.176  -0.164   0.000   0.164   0.010
  0.000  -0.414  -0.000   0.232  -0.000  -0.000   0.295   0.000  -0.259   0.000  -0.000  -0.000   0.000   0.050   0.000  -0.000
 -0.514  -0.000  -0.479  -0.000   0.000   0.643   0.000   0.406   0.000  -0.000  -0.636   0.102  -0.095  -0.000   0.095   0.006
 -0.000   0.232   0.000  -0.414  -0.000   0.000  -0.259   0.000   0.295   0.000   0.000  -0.000   0.000  -0.050   0.000   0.000
  0.000  -0.000   0.000  -0.000  -0.647  -0.000   0.000  -0.000   0.000   0.554   0.000  -0.000  -0.050   0.000  -0.050  -0.000
  1.360  -0.000   0.785  -0.000  -0.000  -1.101  -0.000  -0.636   0.000   0.000   1.733  -0.212   0.169   0.000  -0.169  -0.008
 -0.208  -0.000  -0.120   0.000   0.000   0.176  -0.000   0.102  -0.000  -0.000  -0.212   0.030  -0.025   0.000   0.025   0.001
  0.108   0.000   0.062  -0.000   0.028  -0.164   0.000  -0.095   0.000  -0.050   0.169  -0.025   0.030   0.000  -0.021  -0.003
  0.000  -0.028   0.000   0.028  -0.000   0.000   0.050  -0.000  -0.050   0.000   0.000   0.000   0.000   0.010  -0.000   0.000
 -0.108  -0.000  -0.062   0.000   0.028   0.164  -0.000   0.095   0.000  -0.050  -0.169   0.025  -0.021   0.000   0.030   0.002
  0.013   0.000   0.008   0.000   0.025   0.010   0.000   0.006   0.000  -0.000  -0.008   0.001  -0.003   0.000   0.002   0.001
  0.000  -0.025   0.000   0.025   0.000   0.000   0.000  -0.000  -0.000   0.000   0.000   0.000   0.000  -0.001   0.000  -0.000
 -0.013   0.000  -0.008   0.000   0.025  -0.010   0.000  -0.006   0.000  -0.000   0.008  -0.001   0.002   0.000  -0.003  -0.000


------------------------ aborting loop because EDIFF is reached ----------------------------------------


    FORLOC:  cpu time      0.0022: real time      0.0022
    FORNL :  cpu time      0.1180: real time      0.1180
    STRESS:  cpu time      0.3547: real time      0.3548
    FORCOR:  cpu time      1.6309: real time      1.6312
    OFIELD:  cpu time      0.0007: real time      0.0007

  FORCE on cell =-STRESS in cart. coord.  units (eV):
  Direction    XX          YY          ZZ          XY          YZ          ZX
  --------------------------------------------------------------------------------------
  Alpha Z     0.47150     0.47150     0.47150
  Ewald     196.45008   196.45008  -168.58943  -337.27127    -0.00000    -0.00000
  Hartree   749.94363   749.94363   497.11959  -225.63210     0.00000    -0.00000
  E(xc)    -100.19274  -100.19274  -100.71957    -0.52682     0.00000    -0.00000
  Local   -1276.86327 -1276.86327  -673.58096   548.32347    -0.00000     0.00000
  n-local   -14.64613   -14.64613    -6.06837     8.57864     0.00000    -0.00000
  augment   135.52983   135.52983   137.25229     1.72194    -0.00000     0.00000
  Kinetic   309.26265   309.26265   314.08522     4.82146    -0.00000     0.00000
  Fock        0.00000     0.00000     0.00000     0.00000     0.00000     0.00000
  -------------------------------------------------------------------------------------
  Total      -0.04446    -0.04446    -0.02973     0.01531     0.00000     0.00000
  in kB      -0.00721    -0.00721    -0.00482     0.00248     0.00000     0.00000
  external pressure =       -0.01 kB  Pullay stress =        0.00 kB


 VOLUME and BASIS-vectors are now :
 -----------------------------------------------------------------------------
  energy-cutoff  :      520.00
  volume of cell :     9881.61
      direct lattice vectors                 reciprocal lattice vectors
    21.138852197  0.000000000  0.000000000     0.047306258  0.000000000  0.000000000
     0.000000000 21.138852197  0.000000000     0.000000000  0.047306258  0.000000000
     0.000000000  0.000000000 22.113885220     0.000000000  0.000000000  0.045220457

  length of vectors
    21.138852197 21.138852197 22.113885220     0.047306258  0.047306258  0.045220457


 FORCES acting on ions:
    Electron-Ion                     Ewald-Force                    Non-Local-Force
 -----------------------------------------------------------------------------------------------
   -.192E+03 0.192E+03 0.171E-04   0.187E+03 -.187E+03 -.664E-16   0.480E+01 -.480E+01 -.766E-19
   0.192E+03 -.192E+03 0.171E-04   -.187E+03 0.187E+03 -.483E-17   -.480E+01 0.480E+01 -.188E-19
 -----------------------------------------------------------------------------------------------
   0.151E-06 0.105E-05 0.423E-04   0.000E+00 0.000E+00 -.713E-16   0.000E+00 0.000E+00 -.954E-19


 POSITION                                       TOTAL-FORCE (eV/Angst)
 -----------------------------------------------------------------------------------
     11.47244      9.66642     13.67302        -0.007336      0.007336      0.000000
      9.66642     11.47244     13.67302         0.007336     -0.007336     -0.000000
 -----------------------------------------------------------------------------------
    total drift:                                0.000000      0.000001      0.000042


--------------------------------------------------------------------------------------------------------



  FREE ENERGIE OF THE ION-ELECTRON SYSTEM (eV)
  ---------------------------------------------------
  free  energy   TOTEN  =         3.56397923 eV

  energy  without entropy=        3.56397923  energy(sigma->0) =        3.56397923



--------------------------------------------------------------------------------------------------------


    POTLOK:  cpu time      1.8156: real time      1.8162


--------------------------------------------------------------------------------------------------------


     LOOP+:  cpu time     65.7116: real time     65.8287
    4ORBIT:  cpu time      0.0000: real time      0.0000

 total amount of memory used by VASP MPI-rank0   125810. kBytes
=======================================================================

   base      :      30000. kBytes
   nonlr-proj:        706. kBytes
   fftplans  :      38424. kBytes
   grid      :      53473. kBytes
   one-center:         15. kBytes
   wavefun   :       3192. kBytes

  
  
 General timing and accounting informations for this job:
 ========================================================
  
                  Total CPU time used (sec):       80.506
                            User time (sec):       78.186
                          System time (sec):        2.320
                         Elapsed time (sec):       84.753
  
                   Maximum memory used (kb):      478932.
                   Average memory used (kb):          N/A
  
                          Minor page faults:        86444
                          Major page faults:            0
                 Voluntary context switches:         6572
