 **********************************************************************
                          MRCC program system
 **********************************************************************
 
                              Written by
     Mihaly Kallay, Peter R. Nagy, David Mester, Laszlo Gyevi-Nagy,
        Jozsef Csoka, P. Bernat Szabo, Zoltan Rolik, Gyula Samu,
     Jozsef Csontos, Bence Hegely, Adam Ganyecz, Istvan Ladjanszki,
       Lorant Szegedy, Bence Ladoczki, Klara Petrov, Mate Farkas,
                    Pal D. Mezei, and Reka A. Horvath
 
        Department of Physical Chemistry and Materials Science
            Budapest University of Technology and Economics
                  Budapest P.O.Box 91, H-1521 Hungary
 
                              www.mrcc.hu
 
                      Release date: March 18, 2022

 ************************ 2023-02-15 01:34:33 *************************
 Executing minp...

 Reading input from MINP...
 
 Input file:
 
calc=LB2PLYP
verbosity=3
mem=220GB
symm=off
unit=angs
scfiguess=small
scfalg=locfit1
lcorthr=normal
bpedo=0.99999
ECP=MCDHF-ECP-60
basis=bse_ACVQZ
basis_sm=def2-SVP
dfbasis_scf=def2-QZVPP-RI-JK
dfbasis_cor=bse_ACVQZ_mp2fit
core=0
unit=angs
geom=xyz
8
Au8_1
Au     1.74800503     0.42186009     0.70533166
Au     1.88185150    -1.00638254     2.88004678
Au    -1.88714535     1.01683496    -2.87310569
Au    -2.70161707    -2.12323251     1.02191598
Au    -1.74660266    -0.42487478    -0.70759025
Au     0.31278998     1.19631087    -1.48983560
Au     2.70508730     2.11663389    -1.02631589
Au    -0.31236874    -1.19714998     1.48955302

ghost=serialno


 
 
 Checking keyword combinations...
 
 Keywords:
 
 active=none
 agrid=ld0006-ld0590
 agrid_pssp=ld0006-ld0194
 agrid_pssp_sm=ld0006-ld0074
 basis=bse_acvqz
 basis_sm=def2-svp
 basopt=off
 bfbasis=none
 bfgsmem=10
 bfgstol=1.0d-3
 bpcompo=0.985
 bpcompv=0.98
 bpdfo=0.985
 bpocc=0.99999
 bppdo=0.999d0
 bppdv=0.98
 bpedo=0.99999
 bpedv=0.995d0
 calc=mp2
 ccmaxit=50
 ccprog=mrcc
 ccsdalg=disk
 ccsdmkl=seq
 ccsdrest=off
 ccsdthreads=2
 cctol=5
 charge=0
 cialg=direct
 ciguess=off
 cmpgrp=auto
 comprest=off
 core=corr
 corembed=off
 csapprox=off
 cvs=off
 dboc=off
 delocsomofact=
 dendec=cholesky
 dens=0
 dfalg=lineq
 dfbasis_cab=none
 dfbasis_cor=bse_acvqz_mp2fit
 dfbasis_scf=def2-qzvpp-ri-jk
 dfbasis_scf_sm=def2-qzvpp-ri-jk
 dfintran=drpa
 dft=b2plyp
 dhexc=adc(2)
 diag=david
 docc=
 domrad=10.d0
 drpaalg=auto
 dual=off
 dual_df=off
 ecp=mcdhf-ecp-60
 edisp=off
 edisp_embed=off
 embed=off
 etemp=300
 epert=none
 eps=
 espcharge=off
 excrad=1.0
 excrad_fin=0.100000000D-02
 fitting=coulomb
 fmm=off
 fmmord=8
 freq=off
 gamma=1.d0
 gauss=spher
 geom=xyz
 gopt=off
 ghost=serialno
 gtol=7
 grdens=off
 gridbatch_cos=2000
 grtol=10
 guido_ct=off
 hamilton=dc
 iface=none
 intalg=auto
 itol=10
 laptol=1.d-2
 lccoporder=trffirst
 lcorthr=normal
 lccrest=off
 lmp2dens=on
 lnoepso=0.d0
 lnoepsv=1e-6
 boysalg=jacobi
 localcc=2021
 localcorrsymm=off
 locintrf=directai
 mact=
 maxact=off
 maxdim=100
 maxex=0
 maxmicroit=100
 mcscfiguess=hf
 mem=220gb
 mmprog=
 molden=on
 mpitasks=1
 mulmet=3
 mult=
 nacto=0
 nactv=0
 naf_amp=1.d-2
 naf_cor=off
 naf_scf=off
 nafalg=albe
 naftyp=
 nchol=auto
 ndeps=1e-3
 nstate=1
 nsing=0
 nto=off
 ntrip=0
 occ=
 occri=off
 oniom=off
 oniom_eechg=off
 oniom_pcm=off
 oniom_qcorr=off
 optalg=
 optmaxit=50
 optetol=1e-6
 optex=0
 optgtol=1e-4
 optstol=1e-3
 orblocc=boys
 orbloce=off
 orbloco=boys
 orblocv=pao
 orblocguess=cholesky
 osveps=-1.d0
 ovirt=off
 ovltol=1e-7
 ovosnorb=80.0
 pcm=off
 popul=off
 pressure=100000
 pssp=off
 ptfreq=0.0
 ptthreads=2
 qro=off
 qscf=off
 qmmm=off
 redcost_exc=off
 redcost_tddft=0.985d0
 refdet=none
 rest=0
 rgrid=log3
 rism=off
 rohfcore=standard
 rohftype=semicanonical
 scfalg=locfit1
 scf_conv=difficult
 scfdamp=0.7d0
 scfdamp_mode=1
 scfdamp_end=3
 scfdamp_dampstep=0.d0
 scfdamp_dtol=0.0d0
 scfdamp_maxfact=0.7d0
 scfdamp_minfact=0.7d0
 scfdiis=on
 scfdiis_dtol=0.0d0
 scfdiis_end=50
 scfdiis_start=2
 scfdiis_step=1
 scfdiis_watch=off
 scfdiis_wrange=10
 scfdiis_wlimit=5
 scfdiis_delmax=2
 scfdtol=7
 scfext=10
 scfguessdens=
 scfiguess=small
 scfloc=pm
 scflshift=0.20
 scflshift_end=8
 scflshift_dtol=0.0
 scflshift_gaptol=0.20
 scfmaxit=50
 scftype=
 scftol=6
 scspe=1.d0
 scsph=1.d0
 scsps=1.2d0
 scsps_t=1.2d0
 scspt=0.33333333333333
 scspt_t=0.33333333333333
 scspv=1.d0
 spairtol=-1.d0
 sqmprog=
 subminp=top
 symm=0
 talg=lapl
 temp=298.15
 test=off
 theodore=off
 tlmo=0.999
 tpao=0.94
 tprint=off
 uncontract=off
 unit=angs
 usedisk=2
 verbosity=3
 wpairtol=1.d-5
 
 Calculating integrals for small-basis SCF...

 ************************ 2023-02-15 01:34:34 *************************
 Executing integ...

 Allocation of 220.0 Gbytes of memory...
 
 
 Number of atoms:                  8
 Charge:                           0
 Number of electrons:            152
 Number of core electrons:         0
 Spin multiplicity:                1
 
                 Cartesian coordinates [bohr]      Atomic mass [AMU]  Z
   1  Au    3.30325077    0.79720003    1.33288367   196.966543      79
   2  Au    3.55618394   -1.90178738    5.44249964   196.966543      79
   3  Au   -3.56618787    1.92153959   -5.42938288   196.966543      79
   4  Au   -5.10531636   -4.01232794    1.93114133   196.966543      79
   5  Au   -3.30060068   -0.80289697   -1.33715178   196.966543      79
   6  Au    0.59108740    2.26069991   -2.81538126   196.966543      79
   7  Au    5.11187414    3.99985836   -1.93945595   196.966543      79
   8  Au   -0.59029137   -2.26228559    2.81484726   196.966543      79
 
 This molecule is an asymmetric top.
 
 Point group: C1  
 Computational point group: C1  
 
 Cartesian coordinates in standard orientation [bohr]
   1  Au    0.45834266    3.62125553   -0.00167732
   2  Au   -4.14989263    5.35371635    0.01242046
   3  Au    4.15039142   -5.35371672    0.01330946
   4  Au   -5.35289234   -4.15196723   -0.00701207
   5  Au   -0.45820290   -3.62168448   -0.00590499
   6  Au    3.62987460   -0.45883590    0.00004805
   7  Au    5.35266819    4.15216444   -0.00934455
   8  Au   -3.63028900    0.45906802   -0.00183904
 
 Nuclear repulsion energy [au]:       1466.312006305894
 
 
 Basis set information:
 
 Maximum angular momentum: i
 Maximum number of contracted Gaussians:   13
 Maximum number of primitive Gaussians:    13
 Spherical harmonic GTOs are used.
 
 
 Conventional basis set:
 
   1  Au def2-svp [ 7s 6p 5d 1f | 6s 3p 2d 1f ]
   2  Au def2-svp [ 7s 6p 5d 1f | 6s 3p 2d 1f ]
   3  Au def2-svp [ 7s 6p 5d 1f | 6s 3p 2d 1f ]
   4  Au def2-svp [ 7s 6p 5d 1f | 6s 3p 2d 1f ]
   5  Au def2-svp [ 7s 6p 5d 1f | 6s 3p 2d 1f ]
   6  Au def2-svp [ 7s 6p 5d 1f | 6s 3p 2d 1f ]
   7  Au def2-svp [ 7s 6p 5d 1f | 6s 3p 2d 1f ]
   8  Au def2-svp [ 7s 6p 5d 1f | 6s 3p 2d 1f ]
 
 Basis functions:
            1             2             3             4             5             6             7             8             9            10
    0    1Au1s         1Au2s         1Au3s         1Au4s         1Au5s         1Au6s         1Au1pz        1Au1py        1Au1px        1Au2pz    
    1    1Au2py        1Au2px        1Au3pz        1Au3py        1Au3px        1Au1d-2       1Au1d-1       1Au1d0        1Au1d+1       1Au1d+2   
    2    1Au2d-2       1Au2d-1       1Au2d0        1Au2d+1       1Au2d+2       1Au1f-3       1Au1f-2       1Au1f-1       1Au1f0        1Au1f+1   
    3    1Au1f+2       1Au1f+3       2Au1s         2Au2s         2Au3s         2Au4s         2Au5s         2Au6s         2Au1pz        2Au1py    
    4    2Au1px        2Au2pz        2Au2py        2Au2px        2Au3pz        2Au3py        2Au3px        2Au1d-2       2Au1d-1       2Au1d0    
    5    2Au1d+1       2Au1d+2       2Au2d-2       2Au2d-1       2Au2d0        2Au2d+1       2Au2d+2       2Au1f-3       2Au1f-2       2Au1f-1   
    6    2Au1f0        2Au1f+1       2Au1f+2       2Au1f+3       3Au1s         3Au2s         3Au3s         3Au4s         3Au5s         3Au6s     
    7    3Au1pz        3Au1py        3Au1px        3Au2pz        3Au2py        3Au2px        3Au3pz        3Au3py        3Au3px        3Au1d-2   
    8    3Au1d-1       3Au1d0        3Au1d+1       3Au1d+2       3Au2d-2       3Au2d-1       3Au2d0        3Au2d+1       3Au2d+2       3Au1f-3   
    9    3Au1f-2       3Au1f-1       3Au1f0        3Au1f+1       3Au1f+2       3Au1f+3       4Au1s         4Au2s         4Au3s         4Au4s     
   10    4Au5s         4Au6s         4Au1pz        4Au1py        4Au1px        4Au2pz        4Au2py        4Au2px        4Au3pz        4Au3py    
   11    4Au3px        4Au1d-2       4Au1d-1       4Au1d0        4Au1d+1       4Au1d+2       4Au2d-2       4Au2d-1       4Au2d0        4Au2d+1   
   12    4Au2d+2       4Au1f-3       4Au1f-2       4Au1f-1       4Au1f0        4Au1f+1       4Au1f+2       4Au1f+3       5Au1s         5Au2s     
   13    5Au3s         5Au4s         5Au5s         5Au6s         5Au1pz        5Au1py        5Au1px        5Au2pz        5Au2py        5Au2px    
   14    5Au3pz        5Au3py        5Au3px        5Au1d-2       5Au1d-1       5Au1d0        5Au1d+1       5Au1d+2       5Au2d-2       5Au2d-1   
   15    5Au2d0        5Au2d+1       5Au2d+2       5Au1f-3       5Au1f-2       5Au1f-1       5Au1f0        5Au1f+1       5Au1f+2       5Au1f+3   
   16    6Au1s         6Au2s         6Au3s         6Au4s         6Au5s         6Au6s         6Au1pz        6Au1py        6Au1px        6Au2pz    
   17    6Au2py        6Au2px        6Au3pz        6Au3py        6Au3px        6Au1d-2       6Au1d-1       6Au1d0        6Au1d+1       6Au1d+2   
   18    6Au2d-2       6Au2d-1       6Au2d0        6Au2d+1       6Au2d+2       6Au1f-3       6Au1f-2       6Au1f-1       6Au1f0        6Au1f+1   
   19    6Au1f+2       6Au1f+3       7Au1s         7Au2s         7Au3s         7Au4s         7Au5s         7Au6s         7Au1pz        7Au1py    
   20    7Au1px        7Au2pz        7Au2py        7Au2px        7Au3pz        7Au3py        7Au3px        7Au1d-2       7Au1d-1       7Au1d0    
   21    7Au1d+1       7Au1d+2       7Au2d-2       7Au2d-1       7Au2d0        7Au2d+1       7Au2d+2       7Au1f-3       7Au1f-2       7Au1f-1   
   22    7Au1f0        7Au1f+1       7Au1f+2       7Au1f+3       8Au1s         8Au2s         8Au3s         8Au4s         8Au5s         8Au6s     
   23    8Au1pz        8Au1py        8Au1px        8Au2pz        8Au2py        8Au2px        8Au3pz        8Au3py        8Au3px        8Au1d-2   
   24    8Au1d-1       8Au1d0        8Au1d+1       8Au1d+2       8Au2d-2       8Au2d-1       8Au2d0        8Au2d+1       8Au2d+2       8Au1f-3   
   25    8Au1f-2       8Au1f-1       8Au1f0        8Au1f+1       8Au1f+2       8Au1f+3   
 
 Maximum number of basis functions per shell:   10
 Total number of basis functions:    256
 
 
 Fitting basis set for the SCF calculation:
 
   1  Au def2-qzvpp-ri-jk [ 13s 12p 11d 9f 5g 3h 2i | 13s 11p 10d 8f 4g 3h 2i ]
   2  Au def2-qzvpp-ri-jk [ 13s 12p 11d 9f 5g 3h 2i | 13s 11p 10d 8f 4g 3h 2i ]
   3  Au def2-qzvpp-ri-jk [ 13s 12p 11d 9f 5g 3h 2i | 13s 11p 10d 8f 4g 3h 2i ]
   4  Au def2-qzvpp-ri-jk [ 13s 12p 11d 9f 5g 3h 2i | 13s 11p 10d 8f 4g 3h 2i ]
   5  Au def2-qzvpp-ri-jk [ 13s 12p 11d 9f 5g 3h 2i | 13s 11p 10d 8f 4g 3h 2i ]
   6  Au def2-qzvpp-ri-jk [ 13s 12p 11d 9f 5g 3h 2i | 13s 11p 10d 8f 4g 3h 2i ]
   7  Au def2-qzvpp-ri-jk [ 13s 12p 11d 9f 5g 3h 2i | 13s 11p 10d 8f 4g 3h 2i ]
   8  Au def2-qzvpp-ri-jk [ 13s 12p 11d 9f 5g 3h 2i | 13s 11p 10d 8f 4g 3h 2i ]
 
 Basis functions:
            1             2             3             4             5             6             7             8             9            10
    0    1Au1s         1Au2s         1Au3s         1Au4s         1Au5s         1Au6s         1Au7s         1Au8s         1Au9s         1Au10s    
    1    1Au11s        1Au12s        1Au13s        1Au1pz        1Au1py        1Au1px        1Au2pz        1Au2py        1Au2px        1Au3pz    
    2    1Au3py        1Au3px        1Au4pz        1Au4py        1Au4px        1Au5pz        1Au5py        1Au5px        1Au6pz        1Au6py    
    3    1Au6px        1Au7pz        1Au7py        1Au7px        1Au8pz        1Au8py        1Au8px        1Au9pz        1Au9py        1Au9px    
    4    1Au10pz       1Au10py       1Au10px       1Au11pz       1Au11py       1Au11px       1Au1d-2       1Au1d-1       1Au1d0        1Au1d+1   
    5    1Au1d+2       1Au2d-2       1Au2d-1       1Au2d0        1Au2d+1       1Au2d+2       1Au3d-2       1Au3d-1       1Au3d0        1Au3d+1   
    6    1Au3d+2       1Au4d-2       1Au4d-1       1Au4d0        1Au4d+1       1Au4d+2       1Au5d-2       1Au5d-1       1Au5d0        1Au5d+1   
    7    1Au5d+2       1Au6d-2       1Au6d-1       1Au6d0        1Au6d+1       1Au6d+2       1Au7d-2       1Au7d-1       1Au7d0        1Au7d+1   
    8    1Au7d+2       1Au8d-2       1Au8d-1       1Au8d0        1Au8d+1       1Au8d+2       1Au9d-2       1Au9d-1       1Au9d0        1Au9d+1   
    9    1Au9d+2       1Au10d-2      1Au10d-1      1Au10d0       1Au10d+1      1Au10d+2      1Au1f-3       1Au1f-2       1Au1f-1       1Au1f0    
   10    1Au1f+1       1Au1f+2       1Au1f+3       1Au2f-3       1Au2f-2       1Au2f-1       1Au2f0        1Au2f+1       1Au2f+2       1Au2f+3   
   11    1Au3f-3       1Au3f-2       1Au3f-1       1Au3f0        1Au3f+1       1Au3f+2       1Au3f+3       1Au4f-3       1Au4f-2       1Au4f-1   
   12    1Au4f0        1Au4f+1       1Au4f+2       1Au4f+3       1Au5f-3       1Au5f-2       1Au5f-1       1Au5f0        1Au5f+1       1Au5f+2   
   13    1Au5f+3       1Au6f-3       1Au6f-2       1Au6f-1       1Au6f0        1Au6f+1       1Au6f+2       1Au6f+3       1Au7f-3       1Au7f-2   
   14    1Au7f-1       1Au7f0        1Au7f+1       1Au7f+2       1Au7f+3       1Au8f-3       1Au8f-2       1Au8f-1       1Au8f0        1Au8f+1   
   15    1Au8f+2       1Au8f+3       1Au1g-4       1Au1g-3       1Au1g-2       1Au1g-1       1Au1g0        1Au1g+1       1Au1g+2       1Au1g+3   
   16    1Au1g+4       1Au2g-4       1Au2g-3       1Au2g-2       1Au2g-1       1Au2g0        1Au2g+1       1Au2g+2       1Au2g+3       1Au2g+4   
   17    1Au3g-4       1Au3g-3       1Au3g-2       1Au3g-1       1Au3g0        1Au3g+1       1Au3g+2       1Au3g+3       1Au3g+4       1Au4g-4   
   18    1Au4g-3       1Au4g-2       1Au4g-1       1Au4g0        1Au4g+1       1Au4g+2       1Au4g+3       1Au4g+4       1Au1h-5       1Au1h-4   
   19    1Au1h-3       1Au1h-2       1Au1h-1       1Au1h0        1Au1h+1       1Au1h+2       1Au1h+3       1Au1h+4       1Au1h+5       1Au2h-5   
   20    1Au2h-4       1Au2h-3       1Au2h-2       1Au2h-1       1Au2h0        1Au2h+1       1Au2h+2       1Au2h+3       1Au2h+4       1Au2h+5   
   21    1Au3h-5       1Au3h-4       1Au3h-3       1Au3h-2       1Au3h-1       1Au3h0        1Au3h+1       1Au3h+2       1Au3h+3       1Au3h+4   
   22    1Au3h+5       1Au1i-6       1Au1i-5       1Au1i-4       1Au1i-3       1Au1i-2       1Au1i-1       1Au1i0        1Au1i+1       1Au1i+2   
   23    1Au1i+3       1Au1i+4       1Au1i+5       1Au1i+6       1Au2i-6       1Au2i-5       1Au2i-4       1Au2i-3       1Au2i-2       1Au2i-1   
   24    1Au2i0        1Au2i+1       1Au2i+2       1Au2i+3       1Au2i+4       1Au2i+5       1Au2i+6       2Au1s         2Au2s         2Au3s     
   25    2Au4s         2Au5s         2Au6s         2Au7s         2Au8s         2Au9s         2Au10s        2Au11s        2Au12s        2Au13s    
   26    2Au1pz        2Au1py        2Au1px        2Au2pz        2Au2py        2Au2px        2Au3pz        2Au3py        2Au3px        2Au4pz    
   27    2Au4py        2Au4px        2Au5pz        2Au5py        2Au5px        2Au6pz        2Au6py        2Au6px        2Au7pz        2Au7py    
   28    2Au7px        2Au8pz        2Au8py        2Au8px        2Au9pz        2Au9py        2Au9px        2Au10pz       2Au10py       2Au10px   
   29    2Au11pz       2Au11py       2Au11px       2Au1d-2       2Au1d-1       2Au1d0        2Au1d+1       2Au1d+2       2Au2d-2       2Au2d-1   
   30    2Au2d0        2Au2d+1       2Au2d+2       2Au3d-2       2Au3d-1       2Au3d0        2Au3d+1       2Au3d+2       2Au4d-2       2Au4d-1   
   31    2Au4d0        2Au4d+1       2Au4d+2       2Au5d-2       2Au5d-1       2Au5d0        2Au5d+1       2Au5d+2       2Au6d-2       2Au6d-1   
   32    2Au6d0        2Au6d+1       2Au6d+2       2Au7d-2       2Au7d-1       2Au7d0        2Au7d+1       2Au7d+2       2Au8d-2       2Au8d-1   
   33    2Au8d0        2Au8d+1       2Au8d+2       2Au9d-2       2Au9d-1       2Au9d0        2Au9d+1       2Au9d+2       2Au10d-2      2Au10d-1  
   34    2Au10d0       2Au10d+1      2Au10d+2      2Au1f-3       2Au1f-2       2Au1f-1       2Au1f0        2Au1f+1       2Au1f+2       2Au1f+3   
   35    2Au2f-3       2Au2f-2       2Au2f-1       2Au2f0        2Au2f+1       2Au2f+2       2Au2f+3       2Au3f-3       2Au3f-2       2Au3f-1   
   36    2Au3f0        2Au3f+1       2Au3f+2       2Au3f+3       2Au4f-3       2Au4f-2       2Au4f-1       2Au4f0        2Au4f+1       2Au4f+2   
   37    2Au4f+3       2Au5f-3       2Au5f-2       2Au5f-1       2Au5f0        2Au5f+1       2Au5f+2       2Au5f+3       2Au6f-3       2Au6f-2   
   38    2Au6f-1       2Au6f0        2Au6f+1       2Au6f+2       2Au6f+3       2Au7f-3       2Au7f-2       2Au7f-1       2Au7f0        2Au7f+1   
   39    2Au7f+2       2Au7f+3       2Au8f-3       2Au8f-2       2Au8f-1       2Au8f0        2Au8f+1       2Au8f+2       2Au8f+3       2Au1g-4   
   40    2Au1g-3       2Au1g-2       2Au1g-1       2Au1g0        2Au1g+1       2Au1g+2       2Au1g+3       2Au1g+4       2Au2g-4       2Au2g-3   
   41    2Au2g-2       2Au2g-1       2Au2g0        2Au2g+1       2Au2g+2       2Au2g+3       2Au2g+4       2Au3g-4       2Au3g-3       2Au3g-2   
   42    2Au3g-1       2Au3g0        2Au3g+1       2Au3g+2       2Au3g+3       2Au3g+4       2Au4g-4       2Au4g-3       2Au4g-2       2Au4g-1   
   43    2Au4g0        2Au4g+1       2Au4g+2       2Au4g+3       2Au4g+4       2Au1h-5       2Au1h-4       2Au1h-3       2Au1h-2       2Au1h-1   
   44    2Au1h0        2Au1h+1       2Au1h+2       2Au1h+3       2Au1h+4       2Au1h+5       2Au2h-5       2Au2h-4       2Au2h-3       2Au2h-2   
   45    2Au2h-1       2Au2h0        2Au2h+1       2Au2h+2       2Au2h+3       2Au2h+4       2Au2h+5       2Au3h-5       2Au3h-4       2Au3h-3   
   46    2Au3h-2       2Au3h-1       2Au3h0        2Au3h+1       2Au3h+2       2Au3h+3       2Au3h+4       2Au3h+5       2Au1i-6       2Au1i-5   
   47    2Au1i-4       2Au1i-3       2Au1i-2       2Au1i-1       2Au1i0        2Au1i+1       2Au1i+2       2Au1i+3       2Au1i+4       2Au1i+5   
   48    2Au1i+6       2Au2i-6       2Au2i-5       2Au2i-4       2Au2i-3       2Au2i-2       2Au2i-1       2Au2i0        2Au2i+1       2Au2i+2   
   49    2Au2i+3       2Au2i+4       2Au2i+5       2Au2i+6       3Au1s         3Au2s         3Au3s         3Au4s         3Au5s         3Au6s     
   50    3Au7s         3Au8s         3Au9s         3Au10s        3Au11s        3Au12s        3Au13s        3Au1pz        3Au1py        3Au1px    
   51    3Au2pz        3Au2py        3Au2px        3Au3pz        3Au3py        3Au3px        3Au4pz        3Au4py        3Au4px        3Au5pz    
   52    3Au5py        3Au5px        3Au6pz        3Au6py        3Au6px        3Au7pz        3Au7py        3Au7px        3Au8pz        3Au8py    
   53    3Au8px        3Au9pz        3Au9py        3Au9px        3Au10pz       3Au10py       3Au10px       3Au11pz       3Au11py       3Au11px   
   54    3Au1d-2       3Au1d-1       3Au1d0        3Au1d+1       3Au1d+2       3Au2d-2       3Au2d-1       3Au2d0        3Au2d+1       3Au2d+2   
   55    3Au3d-2       3Au3d-1       3Au3d0        3Au3d+1       3Au3d+2       3Au4d-2       3Au4d-1       3Au4d0        3Au4d+1       3Au4d+2   
   56    3Au5d-2       3Au5d-1       3Au5d0        3Au5d+1       3Au5d+2       3Au6d-2       3Au6d-1       3Au6d0        3Au6d+1       3Au6d+2   
   57    3Au7d-2       3Au7d-1       3Au7d0        3Au7d+1       3Au7d+2       3Au8d-2       3Au8d-1       3Au8d0        3Au8d+1       3Au8d+2   
   58    3Au9d-2       3Au9d-1       3Au9d0        3Au9d+1       3Au9d+2       3Au10d-2      3Au10d-1      3Au10d0       3Au10d+1      3Au10d+2  
   59    3Au1f-3       3Au1f-2       3Au1f-1       3Au1f0        3Au1f+1       3Au1f+2       3Au1f+3       3Au2f-3       3Au2f-2       3Au2f-1   
   60    3Au2f0        3Au2f+1       3Au2f+2       3Au2f+3       3Au3f-3       3Au3f-2       3Au3f-1       3Au3f0        3Au3f+1       3Au3f+2   
   61    3Au3f+3       3Au4f-3       3Au4f-2       3Au4f-1       3Au4f0        3Au4f+1       3Au4f+2       3Au4f+3       3Au5f-3       3Au5f-2   
   62    3Au5f-1       3Au5f0        3Au5f+1       3Au5f+2       3Au5f+3       3Au6f-3       3Au6f-2       3Au6f-1       3Au6f0        3Au6f+1   
   63    3Au6f+2       3Au6f+3       3Au7f-3       3Au7f-2       3Au7f-1       3Au7f0        3Au7f+1       3Au7f+2       3Au7f+3       3Au8f-3   
   64    3Au8f-2       3Au8f-1       3Au8f0        3Au8f+1       3Au8f+2       3Au8f+3       3Au1g-4       3Au1g-3       3Au1g-2       3Au1g-1   
   65    3Au1g0        3Au1g+1       3Au1g+2       3Au1g+3       3Au1g+4       3Au2g-4       3Au2g-3       3Au2g-2       3Au2g-1       3Au2g0    
   66    3Au2g+1       3Au2g+2       3Au2g+3       3Au2g+4       3Au3g-4       3Au3g-3       3Au3g-2       3Au3g-1       3Au3g0        3Au3g+1   
   67    3Au3g+2       3Au3g+3       3Au3g+4       3Au4g-4       3Au4g-3       3Au4g-2       3Au4g-1       3Au4g0        3Au4g+1       3Au4g+2   
   68    3Au4g+3       3Au4g+4       3Au1h-5       3Au1h-4       3Au1h-3       3Au1h-2       3Au1h-1       3Au1h0        3Au1h+1       3Au1h+2   
   69    3Au1h+3       3Au1h+4       3Au1h+5       3Au2h-5       3Au2h-4       3Au2h-3       3Au2h-2       3Au2h-1       3Au2h0        3Au2h+1   
   70    3Au2h+2       3Au2h+3       3Au2h+4       3Au2h+5       3Au3h-5       3Au3h-4       3Au3h-3       3Au3h-2       3Au3h-1       3Au3h0    
   71    3Au3h+1       3Au3h+2       3Au3h+3       3Au3h+4       3Au3h+5       3Au1i-6       3Au1i-5       3Au1i-4       3Au1i-3       3Au1i-2   
   72    3Au1i-1       3Au1i0        3Au1i+1       3Au1i+2       3Au1i+3       3Au1i+4       3Au1i+5       3Au1i+6       3Au2i-6       3Au2i-5   
   73    3Au2i-4       3Au2i-3       3Au2i-2       3Au2i-1       3Au2i0        3Au2i+1       3Au2i+2       3Au2i+3       3Au2i+4       3Au2i+5   
   74    3Au2i+6       4Au1s         4Au2s         4Au3s         4Au4s         4Au5s         4Au6s         4Au7s         4Au8s         4Au9s     
   75    4Au10s        4Au11s        4Au12s        4Au13s        4Au1pz        4Au1py        4Au1px        4Au2pz        4Au2py        4Au2px    
   76    4Au3pz        4Au3py        4Au3px        4Au4pz        4Au4py        4Au4px        4Au5pz        4Au5py        4Au5px        4Au6pz    
   77    4Au6py        4Au6px        4Au7pz        4Au7py        4Au7px        4Au8pz        4Au8py        4Au8px        4Au9pz        4Au9py    
   78    4Au9px        4Au10pz       4Au10py       4Au10px       4Au11pz       4Au11py       4Au11px       4Au1d-2       4Au1d-1       4Au1d0    
   79    4Au1d+1       4Au1d+2       4Au2d-2       4Au2d-1       4Au2d0        4Au2d+1       4Au2d+2       4Au3d-2       4Au3d-1       4Au3d0    
   80    4Au3d+1       4Au3d+2       4Au4d-2       4Au4d-1       4Au4d0        4Au4d+1       4Au4d+2       4Au5d-2       4Au5d-1       4Au5d0    
   81    4Au5d+1       4Au5d+2       4Au6d-2       4Au6d-1       4Au6d0        4Au6d+1       4Au6d+2       4Au7d-2       4Au7d-1       4Au7d0    
   82    4Au7d+1       4Au7d+2       4Au8d-2       4Au8d-1       4Au8d0        4Au8d+1       4Au8d+2       4Au9d-2       4Au9d-1       4Au9d0    
   83    4Au9d+1       4Au9d+2       4Au10d-2      4Au10d-1      4Au10d0       4Au10d+1      4Au10d+2      4Au1f-3       4Au1f-2       4Au1f-1   
   84    4Au1f0        4Au1f+1       4Au1f+2       4Au1f+3       4Au2f-3       4Au2f-2       4Au2f-1       4Au2f0        4Au2f+1       4Au2f+2   
   85    4Au2f+3       4Au3f-3       4Au3f-2       4Au3f-1       4Au3f0        4Au3f+1       4Au3f+2       4Au3f+3       4Au4f-3       4Au4f-2   
   86    4Au4f-1       4Au4f0        4Au4f+1       4Au4f+2       4Au4f+3       4Au5f-3       4Au5f-2       4Au5f-1       4Au5f0        4Au5f+1   
   87    4Au5f+2       4Au5f+3       4Au6f-3       4Au6f-2       4Au6f-1       4Au6f0        4Au6f+1       4Au6f+2       4Au6f+3       4Au7f-3   
   88    4Au7f-2       4Au7f-1       4Au7f0        4Au7f+1       4Au7f+2       4Au7f+3       4Au8f-3       4Au8f-2       4Au8f-1       4Au8f0    
   89    4Au8f+1       4Au8f+2       4Au8f+3       4Au1g-4       4Au1g-3       4Au1g-2       4Au1g-1       4Au1g0        4Au1g+1       4Au1g+2   
   90    4Au1g+3       4Au1g+4       4Au2g-4       4Au2g-3       4Au2g-2       4Au2g-1       4Au2g0        4Au2g+1       4Au2g+2       4Au2g+3   
   91    4Au2g+4       4Au3g-4       4Au3g-3       4Au3g-2       4Au3g-1       4Au3g0        4Au3g+1       4Au3g+2       4Au3g+3       4Au3g+4   
   92    4Au4g-4       4Au4g-3       4Au4g-2       4Au4g-1       4Au4g0        4Au4g+1       4Au4g+2       4Au4g+3       4Au4g+4       4Au1h-5   
   93    4Au1h-4       4Au1h-3       4Au1h-2       4Au1h-1       4Au1h0        4Au1h+1       4Au1h+2       4Au1h+3       4Au1h+4       4Au1h+5   
   94    4Au2h-5       4Au2h-4       4Au2h-3       4Au2h-2       4Au2h-1       4Au2h0        4Au2h+1       4Au2h+2       4Au2h+3       4Au2h+4   
   95    4Au2h+5       4Au3h-5       4Au3h-4       4Au3h-3       4Au3h-2       4Au3h-1       4Au3h0        4Au3h+1       4Au3h+2       4Au3h+3   
   96    4Au3h+4       4Au3h+5       4Au1i-6       4Au1i-5       4Au1i-4       4Au1i-3       4Au1i-2       4Au1i-1       4Au1i0        4Au1i+1   
   97    4Au1i+2       4Au1i+3       4Au1i+4       4Au1i+5       4Au1i+6       4Au2i-6       4Au2i-5       4Au2i-4       4Au2i-3       4Au2i-2   
   98    4Au2i-1       4Au2i0        4Au2i+1       4Au2i+2       4Au2i+3       4Au2i+4       4Au2i+5       4Au2i+6       5Au1s         5Au2s     
   99    5Au3s         5Au4s         5Au5s         5Au6s         5Au7s         5Au8s         5Au9s         5Au10s        5Au11s        5Au12s    
  100    5Au13s        5Au1pz        5Au1py        5Au1px        5Au2pz        5Au2py        5Au2px        5Au3pz        5Au3py        5Au3px    
  101    5Au4pz        5Au4py        5Au4px        5Au5pz        5Au5py        5Au5px        5Au6pz        5Au6py        5Au6px        5Au7pz    
  102    5Au7py        5Au7px        5Au8pz        5Au8py        5Au8px        5Au9pz        5Au9py        5Au9px        5Au10pz       5Au10py   
  103    5Au10px       5Au11pz       5Au11py       5Au11px       5Au1d-2       5Au1d-1       5Au1d0        5Au1d+1       5Au1d+2       5Au2d-2   
  104    5Au2d-1       5Au2d0        5Au2d+1       5Au2d+2       5Au3d-2       5Au3d-1       5Au3d0        5Au3d+1       5Au3d+2       5Au4d-2   
  105    5Au4d-1       5Au4d0        5Au4d+1       5Au4d+2       5Au5d-2       5Au5d-1       5Au5d0        5Au5d+1       5Au5d+2       5Au6d-2   
  106    5Au6d-1       5Au6d0        5Au6d+1       5Au6d+2       5Au7d-2       5Au7d-1       5Au7d0        5Au7d+1       5Au7d+2       5Au8d-2   
  107    5Au8d-1       5Au8d0        5Au8d+1       5Au8d+2       5Au9d-2       5Au9d-1       5Au9d0        5Au9d+1       5Au9d+2       5Au10d-2  
  108    5Au10d-1      5Au10d0       5Au10d+1      5Au10d+2      5Au1f-3       5Au1f-2       5Au1f-1       5Au1f0        5Au1f+1       5Au1f+2   
  109    5Au1f+3       5Au2f-3       5Au2f-2       5Au2f-1       5Au2f0        5Au2f+1       5Au2f+2       5Au2f+3       5Au3f-3       5Au3f-2   
  110    5Au3f-1       5Au3f0        5Au3f+1       5Au3f+2       5Au3f+3       5Au4f-3       5Au4f-2       5Au4f-1       5Au4f0        5Au4f+1   
  111    5Au4f+2       5Au4f+3       5Au5f-3       5Au5f-2       5Au5f-1       5Au5f0        5Au5f+1       5Au5f+2       5Au5f+3       5Au6f-3   
  112    5Au6f-2       5Au6f-1       5Au6f0        5Au6f+1       5Au6f+2       5Au6f+3       5Au7f-3       5Au7f-2       5Au7f-1       5Au7f0    
  113    5Au7f+1       5Au7f+2       5Au7f+3       5Au8f-3       5Au8f-2       5Au8f-1       5Au8f0        5Au8f+1       5Au8f+2       5Au8f+3   
  114    5Au1g-4       5Au1g-3       5Au1g-2       5Au1g-1       5Au1g0        5Au1g+1       5Au1g+2       5Au1g+3       5Au1g+4       5Au2g-4   
  115    5Au2g-3       5Au2g-2       5Au2g-1       5Au2g0        5Au2g+1       5Au2g+2       5Au2g+3       5Au2g+4       5Au3g-4       5Au3g-3   
  116    5Au3g-2       5Au3g-1       5Au3g0        5Au3g+1       5Au3g+2       5Au3g+3       5Au3g+4       5Au4g-4       5Au4g-3       5Au4g-2   
  117    5Au4g-1       5Au4g0        5Au4g+1       5Au4g+2       5Au4g+3       5Au4g+4       5Au1h-5       5Au1h-4       5Au1h-3       5Au1h-2   
  118    5Au1h-1       5Au1h0        5Au1h+1       5Au1h+2       5Au1h+3       5Au1h+4       5Au1h+5       5Au2h-5       5Au2h-4       5Au2h-3   
  119    5Au2h-2       5Au2h-1       5Au2h0        5Au2h+1       5Au2h+2       5Au2h+3       5Au2h+4       5Au2h+5       5Au3h-5       5Au3h-4   
  120    5Au3h-3       5Au3h-2       5Au3h-1       5Au3h0        5Au3h+1       5Au3h+2       5Au3h+3       5Au3h+4       5Au3h+5       5Au1i-6   
  121    5Au1i-5       5Au1i-4       5Au1i-3       5Au1i-2       5Au1i-1       5Au1i0        5Au1i+1       5Au1i+2       5Au1i+3       5Au1i+4   
  122    5Au1i+5       5Au1i+6       5Au2i-6       5Au2i-5       5Au2i-4       5Au2i-3       5Au2i-2       5Au2i-1       5Au2i0        5Au2i+1   
  123    5Au2i+2       5Au2i+3       5Au2i+4       5Au2i+5       5Au2i+6       6Au1s         6Au2s         6Au3s         6Au4s         6Au5s     
  124    6Au6s         6Au7s         6Au8s         6Au9s         6Au10s        6Au11s        6Au12s        6Au13s        6Au1pz        6Au1py    
  125    6Au1px        6Au2pz        6Au2py        6Au2px        6Au3pz        6Au3py        6Au3px        6Au4pz        6Au4py        6Au4px    
  126    6Au5pz        6Au5py        6Au5px        6Au6pz        6Au6py        6Au6px        6Au7pz        6Au7py        6Au7px        6Au8pz    
  127    6Au8py        6Au8px        6Au9pz        6Au9py        6Au9px        6Au10pz       6Au10py       6Au10px       6Au11pz       6Au11py   
  128    6Au11px       6Au1d-2       6Au1d-1       6Au1d0        6Au1d+1       6Au1d+2       6Au2d-2       6Au2d-1       6Au2d0        6Au2d+1   
  129    6Au2d+2       6Au3d-2       6Au3d-1       6Au3d0        6Au3d+1       6Au3d+2       6Au4d-2       6Au4d-1       6Au4d0        6Au4d+1   
  130    6Au4d+2       6Au5d-2       6Au5d-1       6Au5d0        6Au5d+1       6Au5d+2       6Au6d-2       6Au6d-1       6Au6d0        6Au6d+1   
  131    6Au6d+2       6Au7d-2       6Au7d-1       6Au7d0        6Au7d+1       6Au7d+2       6Au8d-2       6Au8d-1       6Au8d0        6Au8d+1   
  132    6Au8d+2       6Au9d-2       6Au9d-1       6Au9d0        6Au9d+1       6Au9d+2       6Au10d-2      6Au10d-1      6Au10d0       6Au10d+1  
  133    6Au10d+2      6Au1f-3       6Au1f-2       6Au1f-1       6Au1f0        6Au1f+1       6Au1f+2       6Au1f+3       6Au2f-3       6Au2f-2   
  134    6Au2f-1       6Au2f0        6Au2f+1       6Au2f+2       6Au2f+3       6Au3f-3       6Au3f-2       6Au3f-1       6Au3f0        6Au3f+1   
  135    6Au3f+2       6Au3f+3       6Au4f-3       6Au4f-2       6Au4f-1       6Au4f0        6Au4f+1       6Au4f+2       6Au4f+3       6Au5f-3   
  136    6Au5f-2       6Au5f-1       6Au5f0        6Au5f+1       6Au5f+2       6Au5f+3       6Au6f-3       6Au6f-2       6Au6f-1       6Au6f0    
  137    6Au6f+1       6Au6f+2       6Au6f+3       6Au7f-3       6Au7f-2       6Au7f-1       6Au7f0        6Au7f+1       6Au7f+2       6Au7f+3   
  138    6Au8f-3       6Au8f-2       6Au8f-1       6Au8f0        6Au8f+1       6Au8f+2       6Au8f+3       6Au1g-4       6Au1g-3       6Au1g-2   
  139    6Au1g-1       6Au1g0        6Au1g+1       6Au1g+2       6Au1g+3       6Au1g+4       6Au2g-4       6Au2g-3       6Au2g-2       6Au2g-1   
  140    6Au2g0        6Au2g+1       6Au2g+2       6Au2g+3       6Au2g+4       6Au3g-4       6Au3g-3       6Au3g-2       6Au3g-1       6Au3g0    
  141    6Au3g+1       6Au3g+2       6Au3g+3       6Au3g+4       6Au4g-4       6Au4g-3       6Au4g-2       6Au4g-1       6Au4g0        6Au4g+1   
  142    6Au4g+2       6Au4g+3       6Au4g+4       6Au1h-5       6Au1h-4       6Au1h-3       6Au1h-2       6Au1h-1       6Au1h0        6Au1h+1   
  143    6Au1h+2       6Au1h+3       6Au1h+4       6Au1h+5       6Au2h-5       6Au2h-4       6Au2h-3       6Au2h-2       6Au2h-1       6Au2h0    
  144    6Au2h+1       6Au2h+2       6Au2h+3       6Au2h+4       6Au2h+5       6Au3h-5       6Au3h-4       6Au3h-3       6Au3h-2       6Au3h-1   
  145    6Au3h0        6Au3h+1       6Au3h+2       6Au3h+3       6Au3h+4       6Au3h+5       6Au1i-6       6Au1i-5       6Au1i-4       6Au1i-3   
  146    6Au1i-2       6Au1i-1       6Au1i0        6Au1i+1       6Au1i+2       6Au1i+3       6Au1i+4       6Au1i+5       6Au1i+6       6Au2i-6   
  147    6Au2i-5       6Au2i-4       6Au2i-3       6Au2i-2       6Au2i-1       6Au2i0        6Au2i+1       6Au2i+2       6Au2i+3       6Au2i+4   
  148    6Au2i+5       6Au2i+6       7Au1s         7Au2s         7Au3s         7Au4s         7Au5s         7Au6s         7Au7s         7Au8s     
  149    7Au9s         7Au10s        7Au11s        7Au12s        7Au13s        7Au1pz        7Au1py        7Au1px        7Au2pz        7Au2py    
  150    7Au2px        7Au3pz        7Au3py        7Au3px        7Au4pz        7Au4py        7Au4px        7Au5pz        7Au5py        7Au5px    
  151    7Au6pz        7Au6py        7Au6px        7Au7pz        7Au7py        7Au7px        7Au8pz        7Au8py        7Au8px        7Au9pz    
  152    7Au9py        7Au9px        7Au10pz       7Au10py       7Au10px       7Au11pz       7Au11py       7Au11px       7Au1d-2       7Au1d-1   
  153    7Au1d0        7Au1d+1       7Au1d+2       7Au2d-2       7Au2d-1       7Au2d0        7Au2d+1       7Au2d+2       7Au3d-2       7Au3d-1   
  154    7Au3d0        7Au3d+1       7Au3d+2       7Au4d-2       7Au4d-1       7Au4d0        7Au4d+1       7Au4d+2       7Au5d-2       7Au5d-1   
  155    7Au5d0        7Au5d+1       7Au5d+2       7Au6d-2       7Au6d-1       7Au6d0        7Au6d+1       7Au6d+2       7Au7d-2       7Au7d-1   
  156    7Au7d0        7Au7d+1       7Au7d+2       7Au8d-2       7Au8d-1       7Au8d0        7Au8d+1       7Au8d+2       7Au9d-2       7Au9d-1   
  157    7Au9d0        7Au9d+1       7Au9d+2       7Au10d-2      7Au10d-1      7Au10d0       7Au10d+1      7Au10d+2      7Au1f-3       7Au1f-2   
  158    7Au1f-1       7Au1f0        7Au1f+1       7Au1f+2       7Au1f+3       7Au2f-3       7Au2f-2       7Au2f-1       7Au2f0        7Au2f+1   
  159    7Au2f+2       7Au2f+3       7Au3f-3       7Au3f-2       7Au3f-1       7Au3f0        7Au3f+1       7Au3f+2       7Au3f+3       7Au4f-3   
  160    7Au4f-2       7Au4f-1       7Au4f0        7Au4f+1       7Au4f+2       7Au4f+3       7Au5f-3       7Au5f-2       7Au5f-1       7Au5f0    
  161    7Au5f+1       7Au5f+2       7Au5f+3       7Au6f-3       7Au6f-2       7Au6f-1       7Au6f0        7Au6f+1       7Au6f+2       7Au6f+3   
  162    7Au7f-3       7Au7f-2       7Au7f-1       7Au7f0        7Au7f+1       7Au7f+2       7Au7f+3       7Au8f-3       7Au8f-2       7Au8f-1   
  163    7Au8f0        7Au8f+1       7Au8f+2       7Au8f+3       7Au1g-4       7Au1g-3       7Au1g-2       7Au1g-1       7Au1g0        7Au1g+1   
  164    7Au1g+2       7Au1g+3       7Au1g+4       7Au2g-4       7Au2g-3       7Au2g-2       7Au2g-1       7Au2g0        7Au2g+1       7Au2g+2   
  165    7Au2g+3       7Au2g+4       7Au3g-4       7Au3g-3       7Au3g-2       7Au3g-1       7Au3g0        7Au3g+1       7Au3g+2       7Au3g+3   
  166    7Au3g+4       7Au4g-4       7Au4g-3       7Au4g-2       7Au4g-1       7Au4g0        7Au4g+1       7Au4g+2       7Au4g+3       7Au4g+4   
  167    7Au1h-5       7Au1h-4       7Au1h-3       7Au1h-2       7Au1h-1       7Au1h0        7Au1h+1       7Au1h+2       7Au1h+3       7Au1h+4   
  168    7Au1h+5       7Au2h-5       7Au2h-4       7Au2h-3       7Au2h-2       7Au2h-1       7Au2h0        7Au2h+1       7Au2h+2       7Au2h+3   
  169    7Au2h+4       7Au2h+5       7Au3h-5       7Au3h-4       7Au3h-3       7Au3h-2       7Au3h-1       7Au3h0        7Au3h+1       7Au3h+2   
  170    7Au3h+3       7Au3h+4       7Au3h+5       7Au1i-6       7Au1i-5       7Au1i-4       7Au1i-3       7Au1i-2       7Au1i-1       7Au1i0    
  171    7Au1i+1       7Au1i+2       7Au1i+3       7Au1i+4       7Au1i+5       7Au1i+6       7Au2i-6       7Au2i-5       7Au2i-4       7Au2i-3   
  172    7Au2i-2       7Au2i-1       7Au2i0        7Au2i+1       7Au2i+2       7Au2i+3       7Au2i+4       7Au2i+5       7Au2i+6       8Au1s     
  173    8Au2s         8Au3s         8Au4s         8Au5s         8Au6s         8Au7s         8Au8s         8Au9s         8Au10s        8Au11s    
  174    8Au12s        8Au13s        8Au1pz        8Au1py        8Au1px        8Au2pz        8Au2py        8Au2px        8Au3pz        8Au3py    
  175    8Au3px        8Au4pz        8Au4py        8Au4px        8Au5pz        8Au5py        8Au5px        8Au6pz        8Au6py        8Au6px    
  176    8Au7pz        8Au7py        8Au7px        8Au8pz        8Au8py        8Au8px        8Au9pz        8Au9py        8Au9px        8Au10pz   
  177    8Au10py       8Au10px       8Au11pz       8Au11py       8Au11px       8Au1d-2       8Au1d-1       8Au1d0        8Au1d+1       8Au1d+2   
  178    8Au2d-2       8Au2d-1       8Au2d0        8Au2d+1       8Au2d+2       8Au3d-2       8Au3d-1       8Au3d0        8Au3d+1       8Au3d+2   
  179    8Au4d-2       8Au4d-1       8Au4d0        8Au4d+1       8Au4d+2       8Au5d-2       8Au5d-1       8Au5d0        8Au5d+1       8Au5d+2   
  180    8Au6d-2       8Au6d-1       8Au6d0        8Au6d+1       8Au6d+2       8Au7d-2       8Au7d-1       8Au7d0        8Au7d+1       8Au7d+2   
  181    8Au8d-2       8Au8d-1       8Au8d0        8Au8d+1       8Au8d+2       8Au9d-2       8Au9d-1       8Au9d0        8Au9d+1       8Au9d+2   
  182    8Au10d-2      8Au10d-1      8Au10d0       8Au10d+1      8Au10d+2      8Au1f-3       8Au1f-2       8Au1f-1       8Au1f0        8Au1f+1   
  183    8Au1f+2       8Au1f+3       8Au2f-3       8Au2f-2       8Au2f-1       8Au2f0        8Au2f+1       8Au2f+2       8Au2f+3       8Au3f-3   
  184    8Au3f-2       8Au3f-1       8Au3f0        8Au3f+1       8Au3f+2       8Au3f+3       8Au4f-3       8Au4f-2       8Au4f-1       8Au4f0    
  185    8Au4f+1       8Au4f+2       8Au4f+3       8Au5f-3       8Au5f-2       8Au5f-1       8Au5f0        8Au5f+1       8Au5f+2       8Au5f+3   
  186    8Au6f-3       8Au6f-2       8Au6f-1       8Au6f0        8Au6f+1       8Au6f+2       8Au6f+3       8Au7f-3       8Au7f-2       8Au7f-1   
  187    8Au7f0        8Au7f+1       8Au7f+2       8Au7f+3       8Au8f-3       8Au8f-2       8Au8f-1       8Au8f0        8Au8f+1       8Au8f+2   
  188    8Au8f+3       8Au1g-4       8Au1g-3       8Au1g-2       8Au1g-1       8Au1g0        8Au1g+1       8Au1g+2       8Au1g+3       8Au1g+4   
  189    8Au2g-4       8Au2g-3       8Au2g-2       8Au2g-1       8Au2g0        8Au2g+1       8Au2g+2       8Au2g+3       8Au2g+4       8Au3g-4   
  190    8Au3g-3       8Au3g-2       8Au3g-1       8Au3g0        8Au3g+1       8Au3g+2       8Au3g+3       8Au3g+4       8Au4g-4       8Au4g-3   
  191    8Au4g-2       8Au4g-1       8Au4g0        8Au4g+1       8Au4g+2       8Au4g+3       8Au4g+4       8Au1h-5       8Au1h-4       8Au1h-3   
  192    8Au1h-2       8Au1h-1       8Au1h0        8Au1h+1       8Au1h+2       8Au1h+3       8Au1h+4       8Au1h+5       8Au2h-5       8Au2h-4   
  193    8Au2h-3       8Au2h-2       8Au2h-1       8Au2h0        8Au2h+1       8Au2h+2       8Au2h+3       8Au2h+4       8Au2h+5       8Au3h-5   
  194    8Au3h-4       8Au3h-3       8Au3h-2       8Au3h-1       8Au3h0        8Au3h+1       8Au3h+2       8Au3h+3       8Au3h+4       8Au3h+5   
  195    8Au1i-6       8Au1i-5       8Au1i-4       8Au1i-3       8Au1i-2       8Au1i-1       8Au1i0        8Au1i+1       8Au1i+2       8Au1i+3   
  196    8Au1i+4       8Au1i+5       8Au1i+6       8Au2i-6       8Au2i-5       8Au2i-4       8Au2i-3       8Au2i-2       8Au2i-1       8Au2i0    
  197    8Au2i+1       8Au2i+2       8Au2i+3       8Au2i+4       8Au2i+5       8Au2i+6   
 
 Maximum number of basis functions per shell:   56
 Total number of basis functions:   1976
 
 
 Effective core potentials:
 
   1  Au mcdhf-ecp-60        
   2  Au mcdhf-ecp-60        
   3  Au mcdhf-ecp-60        
   4  Au mcdhf-ecp-60        
   5  Au mcdhf-ecp-60        
   6  Au mcdhf-ecp-60        
   7  Au mcdhf-ecp-60        
   8  Au mcdhf-ecp-60        
 
 Initializing the SAD routines for the initial guess...
 Checking the files required for the initial guess...
 Density files have not been found for the initial guess.
 Generating SCFDENSITIES.Au.def2-svp.0
 CPU time [min]:     0.120                   Wall time [min]:     0.176
 
 Character table for point group C1:
 
          E  
    A     1
 
 Number of basis functions per irrep:
    A     256
 
 
 Density functional: B2PLYP
 Constructing integration grid for DFT...
 Angular integration grid: adaptive 590-point Lebedev quadrature
 Radial integration grid: Log3 quadrature
 Total number of grid points: 155676      
 CPU time [min]:     1.676                   Wall time [min]:     0.221
 
 Calculation of overlap integrals...
 CPU time [min]:     1.680                   Wall time [min]:     0.221
 
 Calculation of the square root of the overlap matrix...
 Minimum eigenvalue of the overlap matrix: 0.121155E-02
 CPU time [min]:     1.778                   Wall time [min]:     0.226
 
 Calculation of kinetic energy integrals...
 CPU time [min]:     1.780                   Wall time [min]:     0.226
 Calculation of dipole moment integrals...
 CPU time [min]:     1.782                   Wall time [min]:     0.226
 Calculation of nuclear attraction integrals...
 CPU time [min]:     1.786                   Wall time [min]:     0.226
 Calculation of core potential integrals...
 CPU time [min]:     2.516                   Wall time [min]:     0.845
 
 Calculation of prescreening integrals...
 CPU time [min]:     3.095                   Wall time [min]:     0.861
 
 Calculation of two-center Coulomb integrals...
   1% done.
  12% done.
  24% done.
  35% done.
  49% done.
  60% done.
  71% done.
  85% done.
  97% done.
 100% done.
 CPU time [min]:     3.207                   Wall time [min]:     0.864
 
 Cholesky decomposition of the two-center matrix...
 Reciprocal of the condition number:  0.147664E-05
 CPU time [min]:     3.338                   Wall time [min]:     0.868
 
 
 Running small-basis SCF...

 ************************ 2023-02-15 01:35:26 *************************
 Executing scf...

 @scfsetup: integrals calculated directly
            mrcc/integ direct run
 @scfsetup: calculating on full matrices
            not using symmetry adapted basis
 @scfsetup: diis switched on
 @scfsetup: number of steps to extrapolate from  10
 @scfsetup: tolerance in energy deviation    0.100000E-05
            tolerance in density deviation    0.100000E-06
 @scfsetup: maximum number of iterations:  50
 @scfsetup: restricted closed shell hf calc
 @scfsetup: starting scf from superposition of atomic densities
 @scfsetup: occupation set:
            from initial orbitals
 @scfsetup: Parameter-set for SCF acceleration: difficult
 @scfsetup: diis runs from iteration:   2
 @scfsetup: diis runs to iteration:  50
 @scfsetup: diis runs in every iteration
 @scfsetup: diiswatch is disabled                   
 @scfsetup: diis dtol criteria to switch on:      0.0000E+00
           (or the iteration number below is reached)
 @scfsetup: static damping scheme
            iteration step criteria to turn damping off: 3
 @scfsetup: dynamic level shifting
            tolarance in HOMO-LUMO gap:  0.200
            tolarance in density deviation:     0.0000E+00
            iteration step criteria to turn level shifting off: 8
 Allocation of 220.0 Gbytes of memory...
 ======================================================================
 ITERATION STEP   1
 CPU time [min]:     0.037                   Wall time [min]:     0.005
 

 SCF control                  : initial
 Damping factor/level shift   : 0.700/0.200
 DIIS [start/end/frequency]   :   2 / 50 /  1

 Constructing Fock-matrix...
 
 Pipek-Mezey localization...
 Step  Convergence
   1   8.819556156797
   2   6.263669828157
   3   0.179847615992
   4   0.000336541078
   5   0.000000003846
 CPU time [min]:     0.075                   Wall time [min]:     0.007
 
 Constructing local fitting domains...
 Maximum number of atoms in fitting domains:    8
 Average number of atoms in fitting domains:    7.5
 
 First step of Coulomb + first step of exchange...
 Exchange contribution is evaluated for MOs 1 to 76.
   1% done.
  12% done.
  25% done.
  36% done.
  47% done.
  60% done.
  72% done.
  87% done.
 100% done.
 Fitting and assembly step of exchange...
 CPU time [min]:     3.064                   Wall time [min]:     0.091
 
 Second step of Coulomb...
   1% done.
  12% done.
  25% done.
  36% done.
  47% done.
  60% done.
  72% done.
  87% done.
 100% done.
 CPU time [min]:     3.227                   Wall time [min]:     0.096
 
 Calculating the exchange-correlation matrix...
                   0.4700*B88 [au]:    -48.243168138553
                   0.7300*LYP [au]:     -4.131300184098
 Exchange-correlation energy  [au]:    -52.374468322650
 CPU time [min]:     4.050                   Wall time [min]:     0.137
 
 Coulomb energy + HF exchange [au]:   2382.489836919690
 Gradient norm:      3.5315E+00
 RMS of [F,P]:                                         0.03333948969282
 RMS of difference density:                            0.00959059649927
 Gap [au]:  0.05311396
 ALPHA OCC:  76
 BETA  OCC:  76
 
 ***KOHN-SHAM ENERGY IN STEP   1 IS         -1080.1297096232015065 [AU]
 ======================================================================
 ITERATION STEP   2
 CPU time [min]:     4.109                   Wall time [min]:     0.138
 

 SCF control                  : diis+damping
 Damping factor/level shift   : 0.700/0.200
 DIIS [start/end/frequency]   :   2 / 50 /  1

 Constructing Fock-matrix...
 
 Pipek-Mezey localization...
 Step  Convergence
   1  14.040600765192
   2   6.690244083290
   3   0.410979956898
   4   0.003923721718
   5   0.000000035727
 CPU time [min]:     4.147                   Wall time [min]:     0.140
 
 Constructing local fitting domains...
 Maximum number of atoms in fitting domains:    8
 Average number of atoms in fitting domains:    7.5
 
 First step of Coulomb + first step of exchange...
 Exchange contribution is evaluated for MOs 1 to 76.
   1% done.
  12% done.
  25% done.
  36% done.
  47% done.
  60% done.
  72% done.
  87% done.
 100% done.
 Fitting and assembly step of exchange...
 CPU time [min]:     6.924                   Wall time [min]:     0.217
 
 Second step of Coulomb...
   1% done.
  12% done.
  25% done.
  36% done.
  47% done.
  60% done.
  72% done.
  87% done.
 100% done.
 CPU time [min]:     7.037                   Wall time [min]:     0.220
 
 Calculating the exchange-correlation matrix...
                   0.4700*B88 [au]:    -47.041973765711
                   0.7300*LYP [au]:     -4.106492596010
 Exchange-correlation energy  [au]:    -51.148466361721
 CPU time [min]:     7.832                   Wall time [min]:     0.259
 
 Coulomb energy + HF exchange [au]:   2361.435427353478
 Gradient norm:      1.7084E-01
 DIIS is running in this iteration step.
 RMS of [F,P]:                                         0.02286879104457
 RMS of difference density:                            0.00368615503804
 Gap [au]:  0.12570466
 ALPHA OCC:  76
 BETA  OCC:  76
 
 ***KOHN-SHAM ENERGY IN STEP   2 IS         -1082.1544720401475388 [AU]
 
 Step comparison  Energy Drift [au]  DIIS error drift  Gradient drift
        1            2.0248E+00         1.0471E-02       3.3607E+00
        2            1.0822E+03         1.0000E-07       3.3607E+00
 ======================================================================
 ITERATION STEP   3
 CPU time [min]:     7.866                   Wall time [min]:     0.260
 

 SCF control                  : diis+damping
 Damping factor/level shift   : 0.700/0.200
 DIIS [start/end/frequency]   :   2 / 50 /  1

 Constructing Fock-matrix...
 
 Pipek-Mezey localization...
 Step  Convergence
   1  22.010446192073
   2   5.865752157846
   3   0.272327383912
   4   0.000097441499
   5   0.000000001228
 CPU time [min]:     7.901                   Wall time [min]:     0.261
 
 Constructing local fitting domains...
 Local fitting domains are unchanged.
 
 First step of Coulomb + first step of exchange...
 Exchange contribution is evaluated for MOs 1 to 76.
   1% done.
  12% done.
  25% done.
  36% done.
  47% done.
  60% done.
  72% done.
  87% done.
 100% done.
 Fitting and assembly step of exchange...
 CPU time [min]:    10.681                   Wall time [min]:     0.339
 
 Second step of Coulomb...
   1% done.
  12% done.
  25% done.
  36% done.
  47% done.
  60% done.
  72% done.
  87% done.
 100% done.
 CPU time [min]:    10.795                   Wall time [min]:     0.342
 
 Calculating the exchange-correlation matrix...
                   0.4700*B88 [au]:    -46.539291618714
                   0.7300*LYP [au]:     -4.095348366752
 Exchange-correlation energy  [au]:    -50.634639985466
 CPU time [min]:    11.588                   Wall time [min]:     0.381
 
 Coulomb energy + HF exchange [au]:   2352.633527368855
 Gradient norm:      6.7322E-02
 DIIS is running in this iteration step.
 RMS of [F,P]:                                         0.01607487515420
 RMS of difference density:                            0.00269926451211
 Gap [au]:  0.15162824
 ALPHA OCC:  76
 BETA  OCC:  76
 
 ***KOHN-SHAM ENERGY IN STEP   3 IS         -1082.7195486211444404 [AU]
 
 Step comparison  Energy Drift [au]  DIIS error drift  Gradient drift
        2            5.6508E-01         6.7939E-03       1.0352E-01
 ======================================================================
 ITERATION STEP   4
 CPU time [min]:    11.610                   Wall time [min]:     0.382
 

 SCF control                  : diis
 Damping factor/level shift   : 0.000/0.200
 DIIS [start/end/frequency]   :   2 / 50 /  1

 Constructing Fock-matrix...
 
 Pipek-Mezey localization...
 Step  Convergence
   1  17.938302369177
   2   6.438560291396
   3   2.009164356896
   4   0.491148329725
   5   0.062625143131
   6   0.003233786483
   7   0.000252430816
   8   0.000028516809
   9   0.000004167532
  10   0.000000770232
 CPU time [min]:    11.655                   Wall time [min]:     0.383
 
 Constructing local fitting domains...
 Local fitting domains are unchanged.
 
 First step of Coulomb + first step of exchange...
 Exchange contribution is evaluated for MOs 1 to 76.
   1% done.
  12% done.
  25% done.
  36% done.
  47% done.
  60% done.
  72% done.
  87% done.
 100% done.
 Fitting and assembly step of exchange...
 CPU time [min]:    14.436                   Wall time [min]:     0.460
 
 Second step of Coulomb...
   1% done.
  12% done.
  25% done.
  36% done.
  47% done.
  60% done.
  72% done.
  87% done.
 100% done.
 CPU time [min]:    14.549                   Wall time [min]:     0.463
 
 Calculating the exchange-correlation matrix...
                   0.4700*B88 [au]:    -46.183285070417
                   0.7300*LYP [au]:     -4.089068524371
 Exchange-correlation energy  [au]:    -50.272353594788
 CPU time [min]:    15.343                   Wall time [min]:     0.502
 
 Coulomb energy + HF exchange [au]:   2351.850145274874
 Gradient norm:      1.9951E-01
 DIIS is running in this iteration step.
 RMS of [F,P]:                                         0.01181295709948
 RMS of difference density:                            0.00943471576158
 Gap [au]:  0.16384954
 ALPHA OCC:  76
 BETA  OCC:  76
 
 ***KOHN-SHAM ENERGY IN STEP   4 IS         -1082.4489778958463830 [AU]
 
 Step comparison  Energy Drift [au]  DIIS error drift  Gradient drift
        3           -2.7057E-01         4.2619E-03      -1.3219E-01
 Warning! The energy goes uphill (with respect to previous step).
 Warning! The gradient goes uphill (with respect to previous step).
 Warning! The gradient goes uphill (with respect to step   3 ).
 ======================================================================
 ITERATION STEP   5
 CPU time [min]:    15.359                   Wall time [min]:     0.503
 

 SCF control                  : diis
 Damping factor/level shift   : 0.000/0.200
 DIIS [start/end/frequency]   :   2 / 50 /  1

 Constructing Fock-matrix...
 
 Pipek-Mezey localization...
 Step  Convergence
   1  20.265695821267
   2   8.407410705568
   3   2.764518309862
   4   0.139767795540
   5   0.004071310772
   6   0.000277044011
   7   0.000018582766
   8   0.000001557899
   9   0.000000118253
 CPU time [min]:    15.400                   Wall time [min]:     0.504
 
 Constructing local fitting domains...
 Local fitting domains are unchanged.
 
 First step of Coulomb + first step of exchange...
 Exchange contribution is evaluated for MOs 1 to 76.
   1% done.
  12% done.
  25% done.
  36% done.
  47% done.
  60% done.
  72% done.
  87% done.
 100% done.
 Fitting and assembly step of exchange...
 CPU time [min]:    18.181                   Wall time [min]:     0.581
 
 Second step of Coulomb...
   1% done.
  12% done.
  25% done.
  36% done.
  47% done.
  60% done.
  72% done.
  87% done.
 100% done.
 CPU time [min]:    18.294                   Wall time [min]:     0.585
 
 Calculating the exchange-correlation matrix...
                   0.4700*B88 [au]:    -45.718227212899
                   0.7300*LYP [au]:     -4.078349317180
 Exchange-correlation energy  [au]:    -49.796576530078
 CPU time [min]:    19.088                   Wall time [min]:     0.623
 
 Coulomb energy + HF exchange [au]:   2340.785517578395
 Gradient norm:      3.4916E-02
 DIIS is running in this iteration step.
 RMS of [F,P]:                                         0.00066471145322
 RMS of difference density:                            0.00227980279354
 Gap [au]:  0.15733386
 ALPHA OCC:  76
 BETA  OCC:  76
 
 ***KOHN-SHAM ENERGY IN STEP   5 IS         -1083.2860838046881327 [AU]
 
 Step comparison  Energy Drift [au]  DIIS error drift  Gradient drift
        4            8.3711E-01         1.1148E-02       1.6459E-01
 ======================================================================
 ITERATION STEP   6
 CPU time [min]:    19.102                   Wall time [min]:     0.624
 

 SCF control                  : diis
 Damping factor/level shift   : 0.000/0.200
 DIIS [start/end/frequency]   :   2 / 50 /  1

 Constructing Fock-matrix...
 
 Pipek-Mezey localization...
 Step  Convergence
   1  20.928472795814
   2   7.120591765618
   3   2.845050574398
   4   0.457773653911
   5   0.017759312521
   6   0.001259364176
   7   0.000112738757
   8   0.000009411554
   9   0.000000853554
 CPU time [min]:    19.144                   Wall time [min]:     0.625
 
 Constructing local fitting domains...
 Local fitting domains are unchanged.
 
 First step of Coulomb + first step of exchange...
 Exchange contribution is evaluated for MOs 1 to 76.
   1% done.
  12% done.
  25% done.
  36% done.
  47% done.
  60% done.
  72% done.
  87% done.
 100% done.
 Fitting and assembly step of exchange...
 CPU time [min]:    21.938                   Wall time [min]:     0.703
 
 Second step of Coulomb...
   1% done.
  12% done.
  25% done.
  36% done.
  47% done.
  60% done.
  72% done.
  87% done.
 100% done.
 CPU time [min]:    22.050                   Wall time [min]:     0.706
 
 Calculating the exchange-correlation matrix...
                   0.4700*B88 [au]:    -45.735003003549
                   0.7300*LYP [au]:     -4.079040794209
 Exchange-correlation energy  [au]:    -49.814043797758
 CPU time [min]:    22.845                   Wall time [min]:     0.745
 
 Coulomb energy + HF exchange [au]:   2341.223541680049
 Gradient norm:      1.6338E-02
 DIIS is running in this iteration step.
 RMS of [F,P]:                                         0.00025439244564
 RMS of difference density:                            0.00081933933818
 Gap [au]:  0.15910777
 ALPHA OCC:  76
 BETA  OCC:  76
 
 ***KOHN-SHAM ENERGY IN STEP   6 IS         -1083.2909447863712558 [AU]
 
 Step comparison  Energy Drift [au]  DIIS error drift  Gradient drift
        5            4.8610E-03         4.1032E-04       1.8578E-02
 ======================================================================
 ITERATION STEP   7
 CPU time [min]:    22.860                   Wall time [min]:     0.745
 

 SCF control                  : diis
 Damping factor/level shift   : 0.000/0.200
 DIIS [start/end/frequency]   :   2 / 50 /  1

 Constructing Fock-matrix...
 
 Pipek-Mezey localization...
 Step  Convergence
   1  24.537506556178
   2   9.164634466528
   3   5.125243895914
   4   0.820890123579
   5   0.272774101613
   6   0.001235776017
   7   0.000014669879
   8   0.000000349019
   9   0.000000010656
 CPU time [min]:    22.901                   Wall time [min]:     0.747
 
 Constructing local fitting domains...
 Local fitting domains are unchanged.
 
 First step of Coulomb + first step of exchange...
 Exchange contribution is evaluated for MOs 1 to 76.
   1% done.
  12% done.
  25% done.
  36% done.
  47% done.
  60% done.
  72% done.
  87% done.
 100% done.
 Fitting and assembly step of exchange...
 CPU time [min]:    25.685                   Wall time [min]:     0.824
 
 Second step of Coulomb...
   1% done.
  12% done.
  25% done.
  36% done.
  47% done.
  60% done.
  72% done.
  87% done.
 100% done.
 CPU time [min]:    25.798                   Wall time [min]:     0.827
 
 Calculating the exchange-correlation matrix...
                   0.4700*B88 [au]:    -45.746144713915
                   0.7300*LYP [au]:     -4.079537731509
 Exchange-correlation energy  [au]:    -49.825682445424
 CPU time [min]:    26.591                   Wall time [min]:     0.866
 
 Coulomb energy + HF exchange [au]:   2341.436887101661
 Gradient norm:      8.8647E-03
 DIIS is running in this iteration step.
 RMS of [F,P]:                                         0.00014457470448
 RMS of difference density:                            0.00035873206942
 Gap [au]:  0.15860362
 ALPHA OCC:  76
 BETA  OCC:  76
 
 ***KOHN-SHAM ENERGY IN STEP   7 IS         -1083.2918064774548839 [AU]
 
 Step comparison  Energy Drift [au]  DIIS error drift  Gradient drift
        6            8.6169E-04         1.0982E-04       7.4737E-03
 ======================================================================
 ITERATION STEP   8
 CPU time [min]:    26.606                   Wall time [min]:     0.867
 

 SCF control                  : diis
 Damping factor/level shift   : 0.000/0.200
 DIIS [start/end/frequency]   :   2 / 50 /  1

 Constructing Fock-matrix...
 
 Pipek-Mezey localization...
 Step  Convergence
   1  23.958197758821
   2  12.965116364058
   3  21.028590866171
   4   8.841678499139
   5   1.559933458920
   6   0.132357849991
   7   0.010765864917
   8   0.002804453314
   9   0.000729960050
  10   0.000189369649
  11   0.000049037270
  12   0.000012687115
  13   0.000003281115
  14   0.000000848382
  15   0.000000219345
  16   0.000000056708
  17   0.000000014661
  18   0.000000003789
  19   0.000000000980
  20   0.000000000253
  21   0.000000000066
  22   0.000000000017
  23   0.000000000004
  24   0.000000000001
  25   0.000000000000
 CPU time [min]:    26.684                   Wall time [min]:     0.869
 
 Constructing local fitting domains...
 Local fitting domains are unchanged.
 
 First step of Coulomb + first step of exchange...
 Exchange contribution is evaluated for MOs 1 to 76.
   1% done.
  12% done.
  25% done.
  36% done.
  47% done.
  60% done.
  72% done.
  87% done.
 100% done.
 Fitting and assembly step of exchange...
 CPU time [min]:    29.466                   Wall time [min]:     0.946
 
 Second step of Coulomb...
   1% done.
  12% done.
  25% done.
  36% done.
  47% done.
  60% done.
  72% done.
  87% done.
 100% done.
 CPU time [min]:    29.579                   Wall time [min]:     0.950
 
 Calculating the exchange-correlation matrix...
                   0.4700*B88 [au]:    -45.752393343687
                   0.7300*LYP [au]:     -4.079766044574
 Exchange-correlation energy  [au]:    -49.832159388261
 CPU time [min]:    30.374                   Wall time [min]:     0.988
 
 Coulomb energy + HF exchange [au]:   2341.677226932472
 Gradient norm:      2.8522E-03
 DIIS is running in this iteration step.
 RMS of [F,P]:                                         0.00005304261825
 RMS of difference density:                            0.00011446026273
 Gap [au]:  0.15849132
 ALPHA OCC:  76
 BETA  OCC:  76
 
 ***KOHN-SHAM ENERGY IN STEP   8 IS         -1083.2920513440490140 [AU]
 
 Step comparison  Energy Drift [au]  DIIS error drift  Gradient drift
        7            2.4487E-04         9.1532E-05       6.0126E-03
 ======================================================================
 ITERATION STEP   9
 CPU time [min]:    30.390                   Wall time [min]:     0.989
 

 SCF control                  : diis
 Damping factor/level shift   : 0.000/0.000
 DIIS [start/end/frequency]   :   2 / 50 /  1

 Constructing Fock-matrix...
 
 Pipek-Mezey localization...
 Step  Convergence
   1  21.216910993811
   2   9.034996227962
   3  15.204677728286
   4   4.628195360881
   5   0.805239487297
   6   0.004769408907
   7   0.000534854895
   8   0.000128534469
   9   0.000033113937
  10   0.000008559876
  11   0.000002217150
  12   0.000000574639
  13   0.000000148983
  14   0.000000038632
  15   0.000000010018
  16   0.000000002599
  17   0.000000000674
  18   0.000000000175
  19   0.000000000045
  20   0.000000000012
  21   0.000000000003
  22   0.000000000001
 CPU time [min]:    30.462                   Wall time [min]:     0.991
 
 Constructing local fitting domains...
 Local fitting domains are unchanged.
 
 First step of Coulomb + first step of exchange...
 Exchange contribution is evaluated for MOs 1 to 76.
   1% done.
  12% done.
  25% done.
  36% done.
  47% done.
  60% done.
  72% done.
  87% done.
 100% done.
 Fitting and assembly step of exchange...
 CPU time [min]:    33.247                   Wall time [min]:     1.069
 
 Second step of Coulomb...
   1% done.
  12% done.
  25% done.
  36% done.
  47% done.
  60% done.
  72% done.
  87% done.
 100% done.
 CPU time [min]:    33.360                   Wall time [min]:     1.072
 
 Calculating the exchange-correlation matrix...
                   0.4700*B88 [au]:    -45.753416961434
                   0.7300*LYP [au]:     -4.079778333168
 Exchange-correlation energy  [au]:    -49.833195294602
 CPU time [min]:    34.153                   Wall time [min]:     1.111
 
 Coulomb energy + HF exchange [au]:   2341.640327082254
 Gradient norm:      2.2601E-03
 DIIS is running in this iteration step.
 RMS of [F,P]:                                         0.00002060732097
 RMS of difference density:                            0.00007848901352
 Gap [au]:  0.15848474
 ALPHA OCC:  76
 BETA  OCC:  76
 
 ***KOHN-SHAM ENERGY IN STEP   9 IS         -1083.2920958926983985 [AU]
 
 Step comparison  Energy Drift [au]  DIIS error drift  Gradient drift
        8            4.4549E-05         3.2435E-05       5.9212E-04
 ======================================================================
 ITERATION STEP  10
 CPU time [min]:    34.169                   Wall time [min]:     1.111
 

 SCF control                  : diis
 Damping factor/level shift   : 0.000/0.000
 DIIS [start/end/frequency]   :   2 / 50 /  1

 Constructing Fock-matrix...
 
 Pipek-Mezey localization...
 Step  Convergence
   1  21.806740787349
   2  11.008656786637
   3  14.785759706219
   4   5.031979786653
   5   0.507938484136
   6   0.029122180792
   7   0.002943624140
   8   0.000760544123
   9   0.000198326899
  10   0.000051860923
  11   0.000013573773
  12   0.000003554224
  13   0.000000930890
  14   0.000000243841
  15   0.000000063879
  16   0.000000016737
  17   0.000000004385
  18   0.000000001149
  19   0.000000000301
  20   0.000000000079
  21   0.000000000021
  22   0.000000000005
  23   0.000000000001
  24   0.000000000000
 CPU time [min]:    34.246                   Wall time [min]:     1.113
 
 Constructing local fitting domains...
 Local fitting domains are unchanged.
 
 First step of Coulomb + first step of exchange...
 Exchange contribution is evaluated for MOs 1 to 76.
   1% done.
  12% done.
  25% done.
  36% done.
  47% done.
  60% done.
  72% done.
  87% done.
 100% done.
 Fitting and assembly step of exchange...
 CPU time [min]:    37.039                   Wall time [min]:     1.191
 
 Second step of Coulomb...
   1% done.
  12% done.
  25% done.
  36% done.
  47% done.
  60% done.
  72% done.
  87% done.
 100% done.
 CPU time [min]:    37.152                   Wall time [min]:     1.194
 
 Calculating the exchange-correlation matrix...
                   0.4700*B88 [au]:    -45.754847856215
                   0.7300*LYP [au]:     -4.079826162621
 Exchange-correlation energy  [au]:    -49.834674018836
 CPU time [min]:    37.946                   Wall time [min]:     1.233
 
 Coulomb energy + HF exchange [au]:   2341.681151098311
 Gradient norm:      3.1425E-04
 DIIS is running in this iteration step.
 RMS of [F,P]:                                         0.00000386987643
 RMS of difference density:                            0.00001263638860
 Gap [au]:  0.15850349
 ALPHA OCC:  76
 BETA  OCC:  76
 
 ***KOHN-SHAM ENERGY IN STEP  10 IS         -1083.2921098074029942 [AU]
 
 Step comparison  Energy Drift [au]  DIIS error drift  Gradient drift
        9            1.3915E-05         1.6737E-05       1.9458E-03
 ======================================================================
 ITERATION STEP  11
 CPU time [min]:    37.962                   Wall time [min]:     1.234
 

 SCF control                  : diis
 Damping factor/level shift   : 0.000/0.000
 DIIS [start/end/frequency]   :   2 / 50 /  1

 Constructing Fock-matrix...
 
 Pipek-Mezey localization...
 Step  Convergence
   1  21.429188066447
   2   9.199099299773
   3  15.365199727205
   4   3.029458818087
   5   0.472661124190
   6   0.002443018243
   7   0.000415570778
   8   0.000106776075
   9   0.000028293723
  10   0.000007529349
  11   0.000002005432
  12   0.000000534236
  13   0.000000142340
  14   0.000000037932
  15   0.000000010111
  16   0.000000002696
  17   0.000000000719
  18   0.000000000192
  19   0.000000000051
  20   0.000000000014
  21   0.000000000004
  22   0.000000000001
 CPU time [min]:    38.033                   Wall time [min]:     1.236
 
 Constructing local fitting domains...
 Local fitting domains are unchanged.
 
 First step of Coulomb + first step of exchange...
 Exchange contribution is evaluated for MOs 1 to 76.
   1% done.
  12% done.
  25% done.
  36% done.
  47% done.
  60% done.
  72% done.
  87% done.
 100% done.
 Fitting and assembly step of exchange...
 CPU time [min]:    40.833                   Wall time [min]:     1.314
 
 Second step of Coulomb...
   1% done.
  12% done.
  25% done.
  36% done.
  47% done.
  60% done.
  72% done.
  87% done.
 100% done.
 CPU time [min]:    40.946                   Wall time [min]:     1.317
 
 Calculating the exchange-correlation matrix...
                   0.4700*B88 [au]:    -45.754907544904
                   0.7300*LYP [au]:     -4.079828849986
 Exchange-correlation energy  [au]:    -49.834736394890
 CPU time [min]:    41.739                   Wall time [min]:     1.356
 
 Coulomb energy + HF exchange [au]:   2341.686145221780
 Gradient norm:      1.2749E-04
 DIIS is running in this iteration step.
 RMS of [F,P]:                                         0.00000278246525
 RMS of difference density:                            0.00000454488660
 Gap [au]:  0.15849699
 ALPHA OCC:  76
 BETA  OCC:  76
 
 ***KOHN-SHAM ENERGY IN STEP  11 IS         -1083.2921101557462862 [AU]
 
 Step comparison  Energy Drift [au]  DIIS error drift  Gradient drift
       10            3.4834E-07         1.0874E-06       1.8677E-04
 ======================================================================
 ITERATION STEP  12
 CPU time [min]:    41.755                   Wall time [min]:     1.356
 

 SCF control                  : diis
 Damping factor/level shift   : 0.000/0.000
 DIIS [start/end/frequency]   :   2 / 50 /  1

 Constructing Fock-matrix...
 
 Pipek-Mezey localization...
 Step  Convergence
   1  19.650679597712
   2   9.623465630973
   3  14.256562373703
   4   5.753315470698
   5   0.455423288913
   6   0.025341212075
   7   0.005594521433
   8   0.001469308045
   9   0.000387136744
  10   0.000101432923
  11   0.000026554377
  12   0.000006949780
  13   0.000001818789
  14   0.000000475956
  15   0.000000124555
  16   0.000000032594
  17   0.000000008528
  18   0.000000002233
  19   0.000000000584
  20   0.000000000153
  21   0.000000000040
  22   0.000000000010
  23   0.000000000003
  24   0.000000000001
 CPU time [min]:    41.831                   Wall time [min]:     1.358
 
 Constructing local fitting domains...
 Local fitting domains are unchanged.
 
 First step of Coulomb + first step of exchange...
 Exchange contribution is evaluated for MOs 1 to 76.
   1% done.
  12% done.
  25% done.
  36% done.
  47% done.
  60% done.
  72% done.
  87% done.
 100% done.
 Fitting and assembly step of exchange...
 CPU time [min]:    44.613                   Wall time [min]:     1.436
 
 Second step of Coulomb...
   1% done.
  12% done.
  25% done.
  36% done.
  47% done.
  60% done.
  72% done.
  87% done.
 100% done.
 CPU time [min]:    44.727                   Wall time [min]:     1.439
 
 Calculating the exchange-correlation matrix...
                   0.4700*B88 [au]:    -45.754862929336
                   0.7300*LYP [au]:     -4.079827477452
 Exchange-correlation energy  [au]:    -49.834690406788
 CPU time [min]:    45.521                   Wall time [min]:     1.478
 
 Coulomb energy + HF exchange [au]:   2341.683823490013
 Gradient norm:      3.5088E-05
 DIIS is running in this iteration step.
 RMS of [F,P]:                                         0.00000063766265
 RMS of difference density:                            0.00000249595916
 Gap [au]:  0.15849619
 ALPHA OCC:  76
 BETA  OCC:  76
 
 ***KOHN-SHAM ENERGY IN STEP  12 IS         -1083.2921102702980534 [AU]
 
 Step comparison  Energy Drift [au]  DIIS error drift  Gradient drift
       11            1.1455E-07         2.1448E-06       9.2398E-05
 ======================================================================
 ITERATION STEP  13
 CPU time [min]:    45.536                   Wall time [min]:     1.478
 

 SCF control                  : diis
 Damping factor/level shift   : 0.000/0.000
 DIIS [start/end/frequency]   :   2 / 50 /  1

 Constructing Fock-matrix...
 
 Pipek-Mezey localization...
 Step  Convergence
   1  20.531296300295
   2   8.963980566004
   3  15.298081301209
   4   5.345114058232
   5   0.444896648803
   6   0.031253463219
   7   0.003162052573
   8   0.000789513610
   9   0.000203604143
  10   0.000052919537
  11   0.000013797995
  12   0.000003603161
  13   0.000000941642
  14   0.000000246191
  15   0.000000064375
  16   0.000000016836
  17   0.000000004403
  18   0.000000001152
  19   0.000000000301
  20   0.000000000079
  21   0.000000000021
  22   0.000000000005
  23   0.000000000001
  24   0.000000000000
 CPU time [min]:    45.614                   Wall time [min]:     1.481
 
 Constructing local fitting domains...
 Local fitting domains are unchanged.
 
 First step of Coulomb + first step of exchange...
 Exchange contribution is evaluated for MOs 1 to 76.
   1% done.
  12% done.
  25% done.
  36% done.
  47% done.
  60% done.
  72% done.
  87% done.
 100% done.
 Fitting and assembly step of exchange...
 CPU time [min]:    48.400                   Wall time [min]:     1.558
 
 Second step of Coulomb...
   1% done.
  12% done.
  25% done.
  36% done.
  47% done.
  60% done.
  72% done.
  87% done.
 100% done.
 CPU time [min]:    48.512                   Wall time [min]:     1.561
 
 Calculating the exchange-correlation matrix...
                   0.4700*B88 [au]:    -45.754815186632
                   0.7300*LYP [au]:     -4.079826619447
 Exchange-correlation energy  [au]:    -49.834641806079
 CPU time [min]:    49.306                   Wall time [min]:     1.600
 
 Coulomb energy + HF exchange [au]:   2341.683483710918
 Gradient norm:      1.0921E-05
 DIIS is running in this iteration step.
 RMS of [F,P]:                                         0.00000022588456
 RMS of difference density:                            0.00000098366817
 Gap [au]:  0.15849807
 ALPHA OCC:  76
 BETA  OCC:  76
 
 ***KOHN-SHAM ENERGY IN STEP  13 IS         -1083.2921102827576760 [AU]
 
 Step comparison  Energy Drift [au]  DIIS error drift  Gradient drift
       12            1.2460E-08         4.1178E-07       2.4167E-05
 ======================================================================
 ITERATION STEP  14
 CPU time [min]:    49.322                   Wall time [min]:     1.601
 

 SCF control                  : diis
 Damping factor/level shift   : 0.000/0.000
 DIIS [start/end/frequency]   :   2 / 50 /  1

 Constructing Fock-matrix...
 
 Pipek-Mezey localization...
 Step  Convergence
   1  20.929439437212
   2   8.995521197035
   3  14.875788772890
   4   5.510843929353
   5   0.513430054058
   6   0.026667705416
   7   0.002617841908
   8   0.000682174314
   9   0.000178456158
  10   0.000046601687
  11   0.000012172803
  12   0.000003180274
  13   0.000000831046
  14   0.000000217194
  15   0.000000056774
  16   0.000000014843
  17   0.000000003881
  18   0.000000001015
  19   0.000000000266
  20   0.000000000070
  21   0.000000000018
  22   0.000000000005
  23   0.000000000001
  24   0.000000000000
 CPU time [min]:    49.397                   Wall time [min]:     1.603
 
 Constructing local fitting domains...
 Local fitting domains are unchanged.
 
 First step of Coulomb + first step of exchange...
 Exchange contribution is evaluated for MOs 1 to 76.
   1% done.
  12% done.
  25% done.
  36% done.
  47% done.
  60% done.
  72% done.
  87% done.
 100% done.
 Fitting and assembly step of exchange...
 CPU time [min]:    52.198                   Wall time [min]:     1.681
 
 Second step of Coulomb...
   1% done.
  12% done.
  25% done.
  36% done.
  47% done.
  60% done.
  72% done.
  87% done.
 100% done.
 CPU time [min]:    52.311                   Wall time [min]:     1.684
 
 Calculating the exchange-correlation matrix...
                   0.4700*B88 [au]:    -45.754789392595
                   0.7300*LYP [au]:     -4.079826206106
 Exchange-correlation energy  [au]:    -49.834615598702
 CPU time [min]:    53.105                   Wall time [min]:     1.723
 
 Coulomb energy + HF exchange [au]:   2341.683210647487
 Gradient norm:      2.0038E-06
 DIIS is running in this iteration step.
 RMS of [F,P]:                                         0.00000005474871
 RMS of difference density:                            0.00000012584587
 Gap [au]:  0.15849848
 ALPHA OCC:  76
 BETA  OCC:  76
 
 ***KOHN-SHAM ENERGY IN STEP  14 IS         -1083.2921102804880320 [AU]
 
 Step comparison  Energy Drift [au]  DIIS error drift  Gradient drift
       13           -2.2696E-09         1.7114E-07       8.9171E-06
 Warning! The energy goes uphill (with respect to previous step).
 ======================================================================
 ITERATION STEP  15
 CPU time [min]:    53.121                   Wall time [min]:     1.724
 

 SCF control                  : diis
 Damping factor/level shift   : 0.000/0.000
 DIIS [start/end/frequency]   :   2 / 50 /  1

 Constructing Fock-matrix...
 
 Pipek-Mezey localization...
 Step  Convergence
   1  23.736994632915
   2  10.897782003083
   3  13.068818096529
   4   5.737376373296
   5   0.376651986801
   6   0.009796508794
   7   0.001974022023
   8   0.000495424345
   9   0.000129177708
  10   0.000033693951
  11   0.000008789784
  12   0.000002293597
  13   0.000000598602
  14   0.000000156247
  15   0.000000040788
  16   0.000000010647
  17   0.000000002780
  18   0.000000000726
  19   0.000000000189
  20   0.000000000050
  21   0.000000000013
  22   0.000000000003
  23   0.000000000001
 CPU time [min]:    53.194                   Wall time [min]:     1.726
 
 Constructing local fitting domains...
 Local fitting domains are unchanged.
 
 First step of Coulomb + first step of exchange...
 Exchange contribution is evaluated for MOs 1 to 76.
   1% done.
  12% done.
  25% done.
  36% done.
  47% done.
  60% done.
  72% done.
  87% done.
 100% done.
 Fitting and assembly step of exchange...
 CPU time [min]:    55.989                   Wall time [min]:     1.803
 
 Second step of Coulomb...
   1% done.
  12% done.
  25% done.
  36% done.
  47% done.
  60% done.
  72% done.
  87% done.
 100% done.
 CPU time [min]:    56.102                   Wall time [min]:     1.807
 
 Calculating the exchange-correlation matrix...
                   0.4700*B88 [au]:    -45.754790428940
                   0.7300*LYP [au]:     -4.079826247740
 Exchange-correlation energy  [au]:    -49.834616676680
 CPU time [min]:    56.896                   Wall time [min]:     1.846
 
 Coulomb energy + HF exchange [au]:   2341.683230180443
 Gradient norm:      2.0188E-06
 DIIS is running in this iteration step.
 RMS of [F,P]:                                         0.00000004717735
 RMS of difference density:                            0.00000006655558
 Gap [au]:  0.15849871
 ALPHA OCC:  76
 BETA  OCC:  76
 
 ***KOHN-SHAM ENERGY IN STEP  15 IS         -1083.2921102792256534 [AU]
 
 Step comparison  Energy Drift [au]  DIIS error drift  Gradient drift
       14           -1.2624E-09         7.5714E-09      -1.5023E-08
 Warning! The energy goes uphill (with respect to previous step).
 Warning! The gradient goes uphill (with respect to previous step).
 Warning! The gradient goes uphill (with respect to step  14 ).
 
 The SCF iteration has converged.
 An extra iteration will be performed to calculate accurate SCF energy.
 
 ======================================================================
 ITERATION STEP  16
 CPU time [min]:    56.912                   Wall time [min]:     1.846
 

 SCF control                  : diis
 Damping factor/level shift   : 0.000/0.000
 DIIS [start/end/frequency]   :   2 / 50 /  1

 Constructing Fock-matrix...
 
 Pipek-Mezey localization...
 Step  Convergence
   1  19.384042252052
   2  14.915479925943
   3  15.741409344138
   4   6.458135795799
   5   0.548093998873
   6   0.007267827177
   7   0.001081432123
   8   0.000280513925
   9   0.000073523641
  10   0.000019261482
  11   0.000005038010
  12   0.000001318511
  13   0.000000344932
  14   0.000000090229
  15   0.000000023604
  16   0.000000006174
  17   0.000000001616
  18   0.000000000423
  19   0.000000000111
  20   0.000000000029
  21   0.000000000008
  22   0.000000000002
  23   0.000000000001
 CPU time [min]:    56.990                   Wall time [min]:     1.848
 
 Constructing local fitting domains...
 Maximum number of atoms in fitting domains:    8
 Average number of atoms in fitting domains:    8.0
 
 First step of Coulomb + first step of exchange...
 Exchange contribution is evaluated for MOs 1 to 76.
   1% done.
  12% done.
  25% done.
  36% done.
  47% done.
  60% done.
  72% done.
  87% done.
 100% done.
 CPU time [min]:    57.622                   Wall time [min]:     1.866
 
[...]
 
 MO:    37
 Number of atoms in domain:       8
 Number of atomic orbitals:    1440
 Number of atoms for local DF:    8
 Number of fitting functions:  3792 (100.00%)
 Warning: drop high-lying PAOs                     8
 Number of occupied orbitals:    38
 Number of virtual  orbitals:  1356
 Number of Cholesky vectors:      9
 MP2 energy in ED [au]:          -0.097882675444
 CPU time [min]:  2154.270                   Wall time [min]:    62.540
 
 MO:    38
 Number of atoms in domain:       8
 Number of atomic orbitals:    1440
 Number of atoms for local DF:    8
 Number of fitting functions:  3792 (100.00%)
 Warning: drop high-lying PAOs                     8
 Number of occupied orbitals:    38
 Number of virtual  orbitals:  1356
 Number of Cholesky vectors:      9
 MP2 energy in ED [au]:          -0.097880205457
 CPU time [min]:  2205.814                   Wall time [min]:    64.012
 
 MO:    39
 Number of atoms in domain:       8
 Number of atomic orbitals:    1440
 Number of atoms for local DF:    8
 Number of fitting functions:  3792 (100.00%)
 Warning: drop high-lying PAOs                     8
 Number of occupied orbitals:    38
 Number of virtual  orbitals:  1356
 Number of Cholesky vectors:      9
 MP2 energy in ED [au]:          -0.097884421975
 CPU time [min]:  2259.033                   Wall time [min]:    65.569
 
 MO:    40
 Number of atoms in domain:       8
 Number of atomic orbitals:    1440
 Number of atoms for local DF:    8
 Number of fitting functions:  3792 (100.00%)
 Warning: drop high-lying PAOs                     8
 Number of occupied orbitals:    38
 Number of virtual  orbitals:  1356
 Number of Cholesky vectors:      9
 MP2 energy in ED [au]:          -0.097881106672
 CPU time [min]:  2310.991                   Wall time [min]:    67.061
 
 MO:    41
 Number of atoms in domain:       8
 Number of atomic orbitals:    1440
 Number of atoms for local DF:    8
 Number of fitting functions:  3792 (100.00%)
 Warning: drop high-lying PAOs                     8
 Number of occupied orbitals:    61
 Number of virtual  orbitals:  1356
 Number of Cholesky vectors:      9
 MP2 energy in ED [au]:          -0.104063365445
 CPU time [min]:  2375.717                   Wall time [min]:    68.969
 
 MO:    42
 Number of atoms in domain:       8
 Number of atomic orbitals:    1440
 Number of atoms for local DF:    8
 Number of fitting functions:  3792 (100.00%)
 Warning: drop high-lying PAOs                     8
 Number of occupied orbitals:    61
 Number of virtual  orbitals:  1356
 Number of Cholesky vectors:      9
 MP2 energy in ED [au]:          -0.104004051490
 CPU time [min]:  2440.420                   Wall time [min]:    70.875
 
 MO:    43
 Number of atoms in domain:       8
 Number of atomic orbitals:    1440
 Number of atoms for local DF:    8
 Number of fitting functions:  3792 (100.00%)
 Warning: drop high-lying PAOs                     8
 Number of occupied orbitals:    61
 Number of virtual  orbitals:  1356
 Number of Cholesky vectors:      9
 MP2 energy in ED [au]:          -0.103941855371
 CPU time [min]:  2505.158                   Wall time [min]:    72.782
 
 MO:    44
 Number of atoms in domain:       8
 Number of atomic orbitals:    1440
 Number of atoms for local DF:    8
 Number of fitting functions:  3792 (100.00%)
 Warning: drop high-lying PAOs                     8
 Number of occupied orbitals:    61
 Number of virtual  orbitals:  1356
 Number of Cholesky vectors:      9
 MP2 energy in ED [au]:          -0.103981709855
 CPU time [min]:  2569.688                   Wall time [min]:    74.683
 
 MO:    45
 Number of atoms in domain:       8
 Number of atomic orbitals:    1440
 Number of atoms for local DF:    8
 Number of fitting functions:  3792 (100.00%)
 Warning: drop high-lying PAOs                     8
 Number of occupied orbitals:    46
 Number of virtual  orbitals:  1356
 Number of Cholesky vectors:      9
 MP2 energy in ED [au]:          -0.100639392087
 CPU time [min]:  2625.902                   Wall time [min]:    76.307
 
 MO:    46
 Number of atoms in domain:       8
 Number of atomic orbitals:    1440
 Number of atoms for local DF:    8
 Number of fitting functions:  3792 (100.00%)
 Warning: drop high-lying PAOs                     8
 Number of occupied orbitals:    45
 Number of virtual  orbitals:  1356
 Number of Cholesky vectors:      9
 MP2 energy in ED [au]:          -0.100600448385
 CPU time [min]:  2681.410                   Wall time [min]:    77.908
 
 MO:    47
 Number of atoms in domain:       8
 Number of atomic orbitals:    1440
 Number of atoms for local DF:    8
 Number of fitting functions:  3792 (100.00%)
 Warning: drop high-lying PAOs                     8
 Number of occupied orbitals:    45
 Number of virtual  orbitals:  1356
 Number of Cholesky vectors:      9
 MP2 energy in ED [au]:          -0.100600808409
 CPU time [min]:  2736.772                   Wall time [min]:    79.506
 
 MO:    48
 Number of atoms in domain:       8
 Number of atomic orbitals:    1440
 Number of atoms for local DF:    8
 Number of fitting functions:  3792 (100.00%)
 Warning: drop high-lying PAOs                     8
 Number of occupied orbitals:    46
 Number of virtual  orbitals:  1356
 Number of Cholesky vectors:      9
 MP2 energy in ED [au]:          -0.100652331851
 CPU time [min]:  2792.764                   Wall time [min]:    81.123
 
 MO:    49
 Number of atoms in domain:       8
 Number of atomic orbitals:    1440
 Number of atoms for local DF:    8
 Number of fitting functions:  3792 (100.00%)
 Warning: drop high-lying PAOs                     8
 Number of occupied orbitals:    38
 Number of virtual  orbitals:  1356
 Number of Cholesky vectors:      9
 MP2 energy in ED [au]:          -0.097869990185
 CPU time [min]:  2844.410                   Wall time [min]:    82.597
 
 MO:    50
 Number of atoms in domain:       8
 Number of atomic orbitals:    1440
 Number of atoms for local DF:    8
 Number of fitting functions:  3792 (100.00%)
 Warning: drop high-lying PAOs                     8
 Number of occupied orbitals:    38
 Number of virtual  orbitals:  1356
 Number of Cholesky vectors:      9
 MP2 energy in ED [au]:          -0.097871674805
 CPU time [min]:  2896.124                   Wall time [min]:    84.073
 
 MO:    51
 Number of atoms in domain:       8
 Number of atomic orbitals:    1440
 Number of atoms for local DF:    8
 Number of fitting functions:  3792 (100.00%)
 Warning: drop high-lying PAOs                     8
 Number of occupied orbitals:    38
 Number of virtual  orbitals:  1356
 Number of Cholesky vectors:      9
 MP2 energy in ED [au]:          -0.097871607886
 CPU time [min]:  2947.846                   Wall time [min]:    85.550
 
 MO:    52
 Number of atoms in domain:       8
 Number of atomic orbitals:    1440
 Number of atoms for local DF:    8
 Number of fitting functions:  3792 (100.00%)
 Warning: drop high-lying PAOs                     8
 Number of occupied orbitals:    38
 Number of virtual  orbitals:  1356
 Number of Cholesky vectors:      9
 MP2 energy in ED [au]:          -0.097866754300
 CPU time [min]:  2999.463                   Wall time [min]:    87.023
 
 MO:    53
 Number of atoms in domain:       8
 Number of atomic orbitals:    1440
 Number of atoms for local DF:    8
 Number of fitting functions:  3792 (100.00%)
 Warning: drop high-lying PAOs                     8
 Number of occupied orbitals:    58
 Number of virtual  orbitals:  1356
 Number of Cholesky vectors:      9
 MP2 energy in ED [au]:          -0.098319585946
 CPU time [min]:  3062.269                   Wall time [min]:    88.866
 
 MO:    54
 Number of atoms in domain:       8
 Number of atomic orbitals:    1440
 Number of atoms for local DF:    8
 Number of fitting functions:  3792 (100.00%)
 Warning: drop high-lying PAOs                     8
 Number of occupied orbitals:    58
 Number of virtual  orbitals:  1356
 Number of Cholesky vectors:      9
 MP2 energy in ED [au]:          -0.098294500213
 CPU time [min]:  3124.841                   Wall time [min]:    90.702
 
 MO:    55
 Number of atoms in domain:       8
 Number of atomic orbitals:    1440
 Number of atoms for local DF:    8
 Number of fitting functions:  3792 (100.00%)
 Warning: drop high-lying PAOs                     8
 Number of occupied orbitals:    58
 Number of virtual  orbitals:  1356
 Number of Cholesky vectors:      9
 MP2 energy in ED [au]:          -0.098283074770
 CPU time [min]:  3187.647                   Wall time [min]:    92.545
 
 MO:    56
 Number of atoms in domain:       8
 Number of atomic orbitals:    1440
 Number of atoms for local DF:    8
 Number of fitting functions:  3792 (100.00%)
 Warning: drop high-lying PAOs                     8
 Number of occupied orbitals:    58
 Number of virtual  orbitals:  1356
 Number of Cholesky vectors:      9
 MP2 energy in ED [au]:          -0.098247864169
 CPU time [min]:  3250.424                   Wall time [min]:    94.387
 
 MO:    57
 Number of atoms in domain:       8
 Number of atomic orbitals:    1440
 Number of atoms for local DF:    8
 Number of fitting functions:  3792 (100.00%)
 Warning: drop high-lying PAOs                     8
 Number of occupied orbitals:    68
 Number of virtual  orbitals:  1356
 Number of Cholesky vectors:     10
 MP2 energy in ED [au]:          -0.108029622990
 CPU time [min]:  3319.895                   Wall time [min]:    96.458
 
 MO:    58
 Number of atoms in domain:       8
 Number of atomic orbitals:    1440
 Number of atoms for local DF:    8
 Number of fitting functions:  3792 (100.00%)
 Warning: drop high-lying PAOs                     8
 Number of occupied orbitals:    68
 Number of virtual  orbitals:  1356
 Number of Cholesky vectors:     10
 MP2 energy in ED [au]:          -0.108017926369
 CPU time [min]:  3389.263                   Wall time [min]:    98.526
 
 MO:    59
 Number of atoms in domain:       8
 Number of atomic orbitals:    1440
 Number of atoms for local DF:    8
 Number of fitting functions:  3792 (100.00%)
 Warning: drop high-lying PAOs                     8
 Number of occupied orbitals:    68
 Number of virtual  orbitals:  1356
 Number of Cholesky vectors:     10
 MP2 energy in ED [au]:          -0.107981776539
 CPU time [min]:  3458.687                   Wall time [min]:   100.596
 
 MO:    60
 Number of atoms in domain:       8
 Number of atomic orbitals:    1440
 Number of atoms for local DF:    8
 Number of fitting functions:  3792 (100.00%)
 Warning: drop high-lying PAOs                     8
 Number of occupied orbitals:    68
 Number of virtual  orbitals:  1356
 Number of Cholesky vectors:     10
 MP2 energy in ED [au]:          -0.108011772439
 CPU time [min]:  3528.185                   Wall time [min]:   102.668
 
 MO:    61
 Number of atoms in domain:       8
 Number of atomic orbitals:    1440
 Number of atoms for local DF:    8
 Number of fitting functions:  3792 (100.00%)
 Warning: drop high-lying PAOs                     8
 Number of occupied orbitals:    61
 Number of virtual  orbitals:  1356
 Number of Cholesky vectors:      9
 MP2 energy in ED [au]:          -0.102132605370
 CPU time [min]:  3592.996                   Wall time [min]:   104.577
 
 MO:    62
 Number of atoms in domain:       8
 Number of atomic orbitals:    1440
 Number of atoms for local DF:    8
 Number of fitting functions:  3792 (100.00%)
 Warning: drop high-lying PAOs                     8
 Number of occupied orbitals:    61
 Number of virtual  orbitals:  1356
 Number of Cholesky vectors:      9
 MP2 energy in ED [au]:          -0.102109950104
 CPU time [min]:  3657.561                   Wall time [min]:   106.479
 
 MO:    63
 Number of atoms in domain:       8
 Number of atomic orbitals:    1440
 Number of atoms for local DF:    8
 Number of fitting functions:  3792 (100.00%)
 Warning: drop high-lying PAOs                     8
 Number of occupied orbitals:    63
 Number of virtual  orbitals:  1356
 Number of Cholesky vectors:      9
 MP2 energy in ED [au]:          -0.106152809206
 CPU time [min]:  3723.478                   Wall time [min]:   108.429
 
 MO:    64
 Number of atoms in domain:       8
 Number of atomic orbitals:    1440
 Number of atoms for local DF:    8
 Number of fitting functions:  3792 (100.00%)
 Warning: drop high-lying PAOs                     8
 Number of occupied orbitals:    63
 Number of virtual  orbitals:  1356
 Number of Cholesky vectors:      9
 MP2 energy in ED [au]:          -0.106154667101
 CPU time [min]:  3789.222                   Wall time [min]:   110.373
 
 MO:    65
 Number of atoms in domain:       8
 Number of atomic orbitals:    1440
 Number of atoms for local DF:    8
 Number of fitting functions:  3792 (100.00%)
 Warning: drop high-lying PAOs                     8
 Number of occupied orbitals:    64
 Number of virtual  orbitals:  1356
 Number of Cholesky vectors:      9
 MP2 energy in ED [au]:          -0.106161113753
 CPU time [min]:  3855.376                   Wall time [min]:   112.333
 
 MO:    66
 Number of atoms in domain:       8
 Number of atomic orbitals:    1440
 Number of atoms for local DF:    8
 Number of fitting functions:  3792 (100.00%)
 Warning: drop high-lying PAOs                     8
 Number of occupied orbitals:    64
 Number of virtual  orbitals:  1356
 Number of Cholesky vectors:      9
 MP2 energy in ED [au]:          -0.106159194781
 CPU time [min]:  3921.735                   Wall time [min]:   114.299
 
 MO:    67
 Number of atoms in domain:       8
 Number of atomic orbitals:    1440
 Number of atoms for local DF:    8
 Number of fitting functions:  3792 (100.00%)
 Warning: drop high-lying PAOs                     8
 Number of occupied orbitals:    61
 Number of virtual  orbitals:  1356
 Number of Cholesky vectors:      9
 MP2 energy in ED [au]:          -0.102108134834
 CPU time [min]:  3986.396                   Wall time [min]:   116.204
 
 MO:    68
 Number of atoms in domain:       8
 Number of atomic orbitals:    1440
 Number of atoms for local DF:    8
 Number of fitting functions:  3792 (100.00%)
 Warning: drop high-lying PAOs                     8
 Number of occupied orbitals:    61
 Number of virtual  orbitals:  1356
 Number of Cholesky vectors:      9
 MP2 energy in ED [au]:          -0.102063848009
 CPU time [min]:  4051.150                   Wall time [min]:   118.112
 
 MO:    69
 Number of atoms in domain:       8
 Number of atomic orbitals:    1440
 Number of atoms for local DF:    8
 Number of fitting functions:  3792 (100.00%)
 Warning: drop high-lying PAOs                     8
 Number of occupied orbitals:    62
 Number of virtual  orbitals:  1356
 Number of Cholesky vectors:      9
 MP2 energy in ED [au]:          -0.097810399837
 CPU time [min]:  4116.434                   Wall time [min]:   120.039
 
 MO:    70
 Number of atoms in domain:       8
 Number of atomic orbitals:    1440
 Number of atoms for local DF:    8
 Number of fitting functions:  3792 (100.00%)
 Warning: drop high-lying PAOs                     8
 Number of occupied orbitals:    62
 Number of virtual  orbitals:  1356
 Number of Cholesky vectors:      9
 MP2 energy in ED [au]:          -0.097816494718
 CPU time [min]:  4181.747                   Wall time [min]:   121.967
 
 MO:    71
 Number of atoms in domain:       8
 Number of atomic orbitals:    1440
 Number of atoms for local DF:    8
 Number of fitting functions:  3792 (100.00%)
 Warning: drop high-lying PAOs                     8
 Number of occupied orbitals:    61
 Number of virtual  orbitals:  1356
 Number of Cholesky vectors:      9
 MP2 energy in ED [au]:          -0.097810958073
 CPU time [min]:  4246.548                   Wall time [min]:   123.875
 
 MO:    72
 Number of atoms in domain:       8
 Number of atomic orbitals:    1440
 Number of atoms for local DF:    8
 Number of fitting functions:  3792 (100.00%)
 Warning: drop high-lying PAOs                     8
 Number of occupied orbitals:    61
 Number of virtual  orbitals:  1356
 Number of Cholesky vectors:      9
 MP2 energy in ED [au]:          -0.097811353865
 CPU time [min]:  4311.065                   Wall time [min]:   125.776
 
 MO:    73
 Number of atoms in domain:       8
 Number of atomic orbitals:    1440
 Number of atoms for local DF:    8
 Number of fitting functions:  3792 (100.00%)
 Warning: drop high-lying PAOs                     8
 Number of occupied orbitals:    76
 Number of virtual  orbitals:  1356
 Number of Cholesky vectors:     10
 MP2 energy in ED [au]:          -0.134714653011
 CPU time [min]:  4385.100                   Wall time [min]:   128.018
 
 MO:    74
 Number of atoms in domain:       8
 Number of atomic orbitals:    1440
 Number of atoms for local DF:    8
 Number of fitting functions:  3792 (100.00%)
 Warning: drop high-lying PAOs                     8
 Number of occupied orbitals:    76
 Number of virtual  orbitals:  1356
 Number of Cholesky vectors:     10
 MP2 energy in ED [au]:          -0.134714165639
 CPU time [min]:  4459.112                   Wall time [min]:   130.259
 
 MO:    75
 Number of atoms in domain:       8
 Number of atomic orbitals:    1440
 Number of atoms for local DF:    8
 Number of fitting functions:  3792 (100.00%)
 Warning: drop high-lying PAOs                     8
 Number of occupied orbitals:    76
 Number of virtual  orbitals:  1356
 Number of Cholesky vectors:     10
 MP2 energy in ED [au]:          -0.134708200541
 CPU time [min]:  4534.114                   Wall time [min]:   132.532
 
 MO:    76
 Number of atoms in domain:       8
 Number of atomic orbitals:    1440
 Number of atoms for local DF:    8
 Number of fitting functions:  3792 (100.00%)
 Warning: drop high-lying PAOs                     8
 Number of occupied orbitals:    76
 Number of virtual  orbitals:  1356
 Number of Cholesky vectors:     10
 MP2 energy in ED [au]:          -0.134706288293
 CPU time [min]:  4608.253                   Wall time [min]:   134.776
 
 **********************************************************************
 Dimensions of the extended domains:    Minimum / Average / Maximum
 
 Number of atoms in domain:                   8       8.0         8
 Number of atomic orbitals:                1440    1440.0      1440
 Number of fitting functions:              3792    3792.0      3792
 Number of occupied localized MOs:           32      52.9        76
 Number of PAOs:                           1356    1356.0      1356
 
 **********************************************************************
 Final local correlation results
 
 Sum of pair energies [au]:                    -0.003468947616    (0.045%)
 Sum of energy corrections [au]:                0.000000000000    (0.000%)
 Sum of LMO contributions [au]:                -7.788755986817
 
 Reference energy [au]:                     -1083.410969383609
 MP2 contribution [au]:                        -2.103900732297
 B2PLYP energy [au]:                        -1085.514870115906
 
 **********************************************************************
  Time of manipulations in the EDs:      max CPU/Wall [s]  all CPU/Wall [min]
 
 PD construction & multipole pair E    1951.91    57.47    32.53     0.96
 Construct MO basis of the ED            39.56     1.65    27.38     0.78
 (mu,nu|P) evaluation & trf 2 (ai|P)   3880.76   118.49  4067.07   119.34
 Evaluate MP2 energy of the ED          516.46    14.40   420.57    11.73
 Total of the above for all EDs        4436.78   134.54  4515.01   131.85
 
 **********************************************************************
 Maximum memory requirement [MB]:       
 
 PD construction & multipole pair E        151.3
 AO integral evaluation in the EDs       17889.4
 (mu,nu|P) evaluation & trf 2 (aI|P)     23853.6
 Evaluate MP2 energy in the EDs           4720.6
 
 ************************ 2023-02-15 04:57:06 *************************
                      Normal termination of mrcc.
 **********************************************************************
