 vasp.6.3.0 20Jan22 (build Apr  1 2022 16:44:48) complex                         
 executed on        HPECrayEX_GCC date 2022.09.21  16:23:32
 running  512 mpi-ranks, with    1 threads/rank
 distrk:  each k-point on  256 cores,    2 groups
 distr:  one band on NCORE=   4 cores,   64 groups


--------------------------------------------------------------------------------------------------------


 INCAR:
   SYSTEM = MgO-rocksalt
   ISMEAR = 0
   SIGMA = 0.05
   EDIFF = 1E-6
   ALGO = ALL
   ISTART = 0
   IBRION = -1
   NSW = 0
   ISYM = 2
   GGA = MK
   PARAM1 = 0.1234
   PARAM2 = 1.0
   LUSE_VDW = .TRUE.
   AGGAC = 0.0
   ENCUT = 520
   PREC = Accurate
   LASPH = .TRUE.
   LREAL = Auto
   ISPIN = 1
   NELM = 200
   NELMIN = 8
   NCORE = 4
   KPAR = 2
   LWAVE = .FALSE.
   LCHARG = .FALSE.

 POTCAR:    PAW_PBE Cu 22Jun2005                  
 -----------------------------------------------------------------------------
|                                                                             |
|               ----> ADVICE to this user running VASP <----                  |
|                                                                             |
|     You have switched on vdW-DFT.                                           |
|     This routine was written and supplied by Jiri Klimes. We recommend      |
|     that you carefully read and cite the following publications:            |
|       J. Klimes, D.R. Bowler, A. Michelides                                 |
|          J. Phys.: Cond Matt. 22 022201 (2010)                              |
|       J. Klimes, D.R. Bowler, A. Michelides                                 |
|          Phys. Rev. B. 83, 195131 (2011)                                    |
|     and references therein.                                                 |
|                                                                             |
 -----------------------------------------------------------------------------

 POTCAR:    PAW_PBE Cu 22Jun2005                  
   SHA256 =  0e71e558f37a4e8407882b4609ceaae59938afaad9ced71dfe8490308a0ab630 Cu/POTCAR             
   COPYR  = (c) Copyright 22Jun2005 Georg Kresse                                                    
   COPYR  = This file is part of the software VASP. Any use, copying, and all other rights are regul
   COPYR  = If you do not have a valid VASP license, you may not use, copy or distribute this file. 
   VRHFIN =Cu: d10 p1                                                                               
   LEXCH  = PE                                                                                      
   EATOM  =  1390.9808 eV,  102.2342 Ry                                                             
                                                                                                    
   TITEL  = PAW_PBE Cu 22Jun2005                                                                    
   LULTRA =        F    use ultrasoft PP ?                                                          
   IUNSCR =        1    unscreen: 0-lin 1-nonlin 2-no                                               
   RPACOR =    2.000    partial core radius                                                         
   POMASS =   63.546; ZVAL   =   11.000    mass and valenz                                          
   RCORE  =    2.300    outmost cutoff radius                                                       
   RWIGS  =    2.200; RWIGS  =    1.164    wigner-seitz radius (au A)                               
   ENMAX  =  295.446; ENMIN  =  221.585 eV                                                          
   ICORE  =        3    local potential                                                             
   LCOR   =        T    correct aug charges                                                         
   LPAW   =        T    paw PP                                                                      
   EAUG   =  586.980                                                                                
   DEXC   =    0.000                                                                                
   RMAX   =    2.344    core radius for proj-oper                                                   
   RAUG   =    1.300    factor for augmentation sphere                                              
   RDEP   =    2.302    radius for radial grids                                                     
   RDEPT  =    1.771    core radius for aug-charge                                                  
                                                                                                    
   Atomic configuration                                                                             
    9 entries                                                                                       
     n  l   j            E        occ.                                                              
     1  0  0.50     -8850.2468   2.0000                                                             
     2  0  0.50     -1062.3498   2.0000                                                             
     2  1  1.50      -916.8226   6.0000                                                             
     3  0  0.50      -114.6929   2.0000                                                             
     3  1  1.50       -72.1325   6.0000                                                             
     3  2  2.50        -5.0394  10.0000                                                             
     4  0  0.50        -4.6097   1.0000                                                             
     4  1  0.50        -4.0817   0.0000                                                             
     4  3  2.50        -1.3606   0.0000                                                             
   Description                                                                                      
     l       E           TYP  RCUT    TYP  RCUT                                                     
     2     -5.0393973     23  2.200                                                                 
     2     10.8846608     23  2.200                                                                 
     0     -4.6097109     23  2.200                                                                 
     0      8.2520465     23  2.200                                                                 
     1     -2.7211652     23  2.200                                                                 
     1     21.7055443     23  2.200                                                                 
     3      2.7211652     23  2.300                                                                 
  local pseudopotential read in
  partial core-charges read in
  partial kinetic energy density read in
  atomic valenz-charges read in
  non local Contribution for L=           2  read in
    real space projection operators read in
  non local Contribution for L=           2  read in
    real space projection operators read in
  non local Contribution for L=           0  read in
    real space projection operators read in
  non local Contribution for L=           0  read in
    real space projection operators read in
  non local Contribution for L=           1  read in
    real space projection operators read in
  non local Contribution for L=           1  read in
    real space projection operators read in
    PAW grid and wavefunctions read in

   number of l-projection  operators is LMAX  =           6
   number of lm-projection operators is LMMAX =          18

 -----------------------------------------------------------------------------
|                                                                             |
|               ----> ADVICE to this user running VASP <----                  |
|                                                                             |
|     You have a (more or less) 'small supercell' and for smaller cells       |
|     it is recommended to use the reciprocal-space projection scheme!        |
|     The real-space optimization is not efficient for small cells and it     |
|     is also less accurate ...                                               |
|     Therefore, set LREAL=.FALSE. in the INCAR file.                         |
|                                                                             |
 -----------------------------------------------------------------------------

 Optimization of the real space projectors (new method)

 maximal supplied QI-value         = 16.25
 optimisation between [QCUT,QGAM] = [ 11.54, 23.24] = [ 37.28,151.24] Ry 
 Optimized for a Real-space Cutoff    1.53 Angstroem

   l    n(q)    QCUT    max X(q) W(low)/X(q) W(high)/X(q)  e(spline) 
   2     10    11.539     4.610    0.96E-04    0.13E-03    0.19E-06
   2     10    11.539     8.522    0.16E-03    0.21E-03    0.28E-06
   0     11    11.539    51.609    0.45E-04    0.31E-04    0.11E-06
   0     11    11.539    27.747    0.39E-04    0.29E-04    0.10E-06
   1     10    11.539    20.408    0.70E-05    0.38E-04    0.18E-06
   1     10    11.539    13.425    0.66E-05    0.34E-04    0.17E-06
 -----------------------------------------------------------------------------
|                                                                             |
|               ----> ADVICE to this user running VASP <----                  |
|                                                                             |
|     You enforced a specific xc type in the INCAR file but a different       |
|     type was found in the POTCAR file.                                      |
|     I HOPE YOU KNOW WHAT YOU ARE DOING!                                     |
|                                                                             |
 -----------------------------------------------------------------------------

  PAW_PBE Cu 22Jun2005                  :
 energy of atom  1       EATOM=-1390.9808
 kinetic energy error for atom=    0.0037 (will be added to EATOM!!)


 POSCAR: cu4
  positions in direct lattice
  velocities in cartesian coordinates
 exchange correlation table for  LEXCH =       43
   RHO(1)=    0.500       N(1)  =     2000
   RHO(2)=  100.500       N(2)  =     4000



--------------------------------------------------------------------------------------------------------


 ion  position               nearest neighbor table
   1  0.976  0.095  1.000-   4 2.25   3 2.37
   2  0.964  0.876  0.958-   3 2.24
   3  0.994  0.978  0.993-   2 2.24   4 2.37   1 2.37
   4  0.067  0.052  0.049-   1 2.25   3 2.37

  LATTYP: Found a simple cubic cell.
 ALAT       =    20.0000000000
  
  Lattice vectors:
  
 A1 = (  20.0000000000,   0.0000000000,   0.0000000000)
 A2 = (   0.0000000000,  20.0000000000,   0.0000000000)
 A3 = (   0.0000000000,   0.0000000000,  20.0000000000)


Analysis of symmetry for initial positions (statically):
=====================================================================
 Subroutine PRICEL returns:
 Original cell was already a primitive cell.
 

 Routine SETGRP: Setting up the symmetry group for a 
 simple cubic supercell.


 Subroutine GETGRP returns: Found  1 space group operations
 (whereof  1 operations were pure point group operations)
 out of a pool of 48 trial point group operations.


The static configuration has the point symmetry C_1 .


Analysis of symmetry for dynamics (positions and initial velocities):
=====================================================================
 Subroutine PRICEL returns:
 Original cell was already a primitive cell.
 

 Routine SETGRP: Setting up the symmetry group for a 
 simple cubic supercell.


 Subroutine GETGRP returns: Found  1 space group operations
 (whereof  1 operations were pure point group operations)
 out of a pool of 48 trial point group operations.


The dynamic configuration has the point symmetry C_1 .


 Subroutine INISYM returns: Found  1 space group operations
 (whereof  1 operations are pure point group operations),
 and found     1 'primitive' translations


----------------------------------------------------------------------------------------

                                     Primitive cell                                     

  volume of cell :    8000.0000

  direct lattice vectors                    reciprocal lattice vectors
    20.000000000  0.000000000  0.000000000     0.050000000  0.000000000  0.000000000
     0.000000000 20.000000000  0.000000000     0.000000000  0.050000000  0.000000000
     0.000000000  0.000000000 20.000000000     0.000000000  0.000000000  0.050000000

  length of vectors
    20.000000000 20.000000000 20.000000000     0.050000000  0.050000000  0.050000000

  position of ions in fractional coordinates (direct lattice)
     0.975619681  0.094779489  0.999736271
     0.963888833  0.875687963  0.958332930
     0.993590534  0.977911889  0.992596102
     0.066900952  0.051620659  0.049334697

  ion indices of the primitive-cell ions
   primitive index   ion index
                 1           1
                 2           2
                 3           3
                 4           4

----------------------------------------------------------------------------------------



 KPOINTS: KPOINTS created by Atomic Simulation Env

Automatic generation of k-mesh.
 Grid dimensions read from file:
 generate k-points for:    1    1    1

 Generating k-lattice:

  Cartesian coordinates                     Fractional coordinates (reciprocal lattice)
     0.050000000  0.000000000  0.000000000     1.000000000  0.000000000  0.000000000
     0.000000000  0.050000000  0.000000000     0.000000000  1.000000000  0.000000000
     0.000000000  0.000000000  0.050000000     0.000000000  0.000000000  1.000000000

  Length of vectors
     0.050000000  0.050000000  0.050000000

  Shift w.r.t. Gamma in fractional coordinates (k-lattice)
     0.000000000  0.000000000  0.000000000

 
 Subroutine IBZKPT returns following result:
 ===========================================
 
 Found      1 irreducible k-points:
 
 Following reciprocal coordinates:
            Coordinates               Weight
  0.000000  0.000000  0.000000      1.000000
 
 Following cartesian coordinates:
            Coordinates               Weight
  0.000000  0.000000  0.000000      1.000000
 


--------------------------------------------------------------------------------------------------------




 Dimension of arrays:
   k-points           NKPTS =      1   k-points in BZ     NKDIM =      1   number of bands    NBANDS=     64
   number of dos      NEDOS =    301   number of ions     NIONS =      4
   non local maximal  LDIM  =      6   non local SUM 2l+1 LMDIM =     18
   total plane-waves  NPLWV = ******
   max r-space proj   IRMAX =   6426   max aug-charges    IRDMAX=  12418
   dimension x,y,z NGX =   150 NGY =  150 NGZ =  150
   dimension x,y,z NGXF=   300 NGYF=  300 NGZF=  300
   support grid    NGXF=   300 NGYF=  300 NGZF=  300
   ions per type =               4
   NGX,Y,Z   is equivalent  to a cutoff of  12.47, 12.47, 12.47 a.u.
   NGXF,Y,Z  is equivalent  to a cutoff of  24.94, 24.94, 24.94 a.u.

 SYSTEM =  MgO-rocksalt                            
 POSCAR =  cu4                                     

 Startparameter for this run:
   NWRITE =      2    write-flag & timer
   PREC   = accura    normal or accurate (medium, high low for compatibility)
   ISTART =      0    job   : 0-new  1-cont  2-samecut
   ICHARG =      2    charge: 1-file 2-atom 10-const
   ISPIN  =      1    spin polarized calculation?
   LNONCOLLINEAR =      F non collinear calculations
   LSORBIT =      F    spin-orbit coupling
   INIWAV =      1    electr: 0-lowe 1-rand  2-diag
   LASPH  =      T    aspherical Exc in radial PAW
 Electronic Relaxation 1
   ENCUT  =  520.0 eV  38.22 Ry    6.18 a.u.  37.19 37.19 37.19*2*pi/ulx,y,z
   ENINI  =  520.0     initial cutoff
   ENAUG  =  587.0 eV  augmentation charge cutoff
   NELM   =    200;   NELMIN=  8; NELMDL= -5     # of ELM steps 
   EDIFF  = 0.1E-05   stopping-criterion for ELM
   LREAL  =      T    real-space projection
   NLSPLINE    = F    spline interpolate recip. space projectors
   LCOMPAT=      F    compatible to vasp.4.4
   GGA_COMPAT  = T    GGA compatible to vasp.4.4-vasp.4.6
   LMAXPAW     = -100 max onsite density
   LMAXMIX     =    2 max onsite mixed and CHGCAR
   VOSKOWN=      0    Vosko Wilk Nusair interpolation
   ROPT   =   -0.00025
 Ionic relaxation
   EDIFFG = 0.1E-04   stopping-criterion for IOM
   NSW    =      0    number of steps for IOM
   NBLOCK =      1;   KBLOCK =      1    inner block; outer block 
   IBRION =     -1    ionic relax: 0-MD 1-quasi-New 2-CG
   NFREE  =      0    steps in history (QN), initial steepest desc. (CG)
   ISIF   =      2    stress and relaxation
   IWAVPR =     10    prediction:  0-non 1-charg 2-wave 3-comb
   ISYM   =      2    0-nonsym 1-usesym 2-fastsym
   LCORR  =      T    Harris-Foulkes like correction to forces

   POTIM  = 0.5000    time-step for ionic-motion
   TEIN   =    0.0    initial temperature
   TEBEG  =    0.0;   TEEND  =   0.0 temperature during run
   SMASS  =  -3.00    Nose mass-parameter (am)
   estimated Nose-frequenzy (Omega)   =  0.10E-29 period in steps = 0.13E+47 mass=  -0.914E-26a.u.
   SCALEE = 1.0000    scale energy and forces
   NPACO  =    256;   APACO  = 10.0  distance and # of slots for P.C.
   PSTRESS=    0.0 pullay stress

  Mass of Ions in am
   POMASS =  63.55
  Ionic Valenz
   ZVAL   =  11.00
  Atomic Wigner-Seitz radii
   RWIGS  =  -1.00
  virtual crystal weights 
   VCA    =   1.00
   NELECT =      44.0000    total number of electrons
   NUPDOWN=      -1.0000    fix difference up-down

 DOS related values:
   EMIN   =  10.00;   EMAX   =-10.00  energy-range for DOS
   EFERMI =   0.00
   ISMEAR =     0;   SIGMA  =   0.05  broadening in eV -4-tet -1-fermi 0-gaus

 Electronic relaxation 2 (details)
   IALGO  =     58    algorithm
   LDIAG  =      T    sub-space diagonalisation (order eigenvalues)
   LSUBROT=      F    optimize rotation matrix (better conditioning)
   TURBO    =      0    0=normal 1=particle mesh
   IRESTART =      0    0=no restart 2=restart with 2 vectors
   NREBOOT  =      0    no. of reboots
   NMIN     =      0    reboot dimension
   EREF     =   0.00    reference energy to select bands
   IMIX   =      4    mixing-type and parameters
     AMIX     =   0.40;   BMIX     =  1.00
     AMIX_MAG =   1.60;   BMIX_MAG =  1.00
     AMIN     =   0.10
     WC   =   100.;   INIMIX=   1;  MIXPRE=   1;  MAXMIX= -45

 Intra band minimization:
   WEIMIN = 0.0000     energy-eigenvalue tresh-hold
   EBREAK =  0.39E-08  absolut break condition
   DEPER  =   0.30     relativ break condition  

   TIME   =   0.40     timestep for ELM

  volume/ion in A,a.u.               =    2000.00     13496.67
  Fermi-wavevector in a.u.,A,eV,Ry     =   0.288976  0.546086  1.136187  0.083507
  Thomas-Fermi vector in A             =   1.146265

 Write flags
   LWAVE        =      F    write WAVECAR
   LDOWNSAMPLE  =      F    k-point downsampling of WAVECAR
   LCHARG       =      F    write CHGCAR
   LVTOT        =      F    write LOCPOT, total local potential
   LVHAR        =      F    write LOCPOT, Hartree potential only
   LELF         =      F    write electronic localiz. function (ELF)
   LORBIT       =      0    0 simple, 1 ext, 2 COOP (PROOUT), +10 PAW based schemes


 Dipole corrections
   LMONO  =      F    monopole corrections only (constant potential shift)
   LDIPOL =      F    correct potential (dipole corrections)
   IDIPOL =      0    1-x, 2-y, 3-z, 4-all directions 
   EPSILON=  1.0000000 bulk dielectric constant

 Exchange correlation treatment:
   GGA     =    MK    GGA type
   LEXCH   =    43    internal setting for exchange type
   LIBXC   =     F    Libxc                    
   VOSKOWN =     0    Vosko Wilk Nusair interpolation
   LHFCALC =     F    Hartree Fock is set to
   LHFONE  =     F    Hartree Fock one center treatment
   AEXX    =    0.0000 exact exchange contribution

 vdW DFT:
   LUSE_VDW   =     T    switch on vdW DFT
   Zab_VDW    =-.8491    correlation parameter
   PARAM1     =0.1234
   PARAM2     =1.0000
   PARAM3     =0.0000
   -- rVV10 --
   BPARAM     = 6.3000
   CPARAM     = 0.0093

 Linear response parameters
   LEPSILON=     F    determine dielectric tensor
   LRPA    =     F    only Hartree local field effects (RPA)
   LNABLA  =     F    use nabla operator in PAW spheres
   LVEL    =     F    velocity operator in full k-point grid
   CSHIFT  =0.1000    complex shift for real part using Kramers Kronig
   OMEGAMAX=  -1.0    maximum frequency
   DEG_THRESHOLD= 0.2000000E-02 threshold for treating states as degnerate
   RTIME   =   -0.100 relaxation time in fs
  (WPLASMAI=    0.000 imaginary part of plasma frequency in eV, 0.658/RTIME)
   DFIELD  = 0.0000000 0.0000000 0.0000000 field for delta impulse in time

  Optional k-point grid parameters
   LKPOINTS_OPT  =     F    use optional k-point grid
   KPOINTS_OPT_MODE=     1    mode for optional k-point grid

 Orbital magnetization related:
   ORBITALMAG=     F  switch on orbital magnetization
   LCHIMAG   =     F  perturbation theory with respect to B field
   DQ        =  0.001000  dq finite difference perturbation B field
   LLRAUG    =     F  two centre corrections for induced B field



--------------------------------------------------------------------------------------------------------


 Static calculation
 charge density and potential will be updated during run
 non-spin polarized calculation
 Conjugate gradient for all bands (Freysoldt, et al. PRB 79, 241103 (2009))
 preconditioned conjugated gradient                                        
 perform sub-space diagonalisation
    before iterative eigenvector-optimisation
 modified Broyden-mixing scheme, WC =      100.0
 initial mixing is a Kerker type mixing with AMIX =  0.4000 and BMIX =      1.0000
 Hartree-type preconditioning will be used
 using additional bands           42
 real space projection scheme for non local part
 use partial core corrections
 no Harris-corrections to forces 
 use gradient corrections 
 use of overlap-Matrix (Vanderbilt PP)
 Gauss-broadening in eV      SIGMA  =   0.05


--------------------------------------------------------------------------------------------------------


  energy-cutoff  :      520.00
  volume of cell :     8000.00
      direct lattice vectors                 reciprocal lattice vectors
    20.000000000  0.000000000  0.000000000     0.050000000  0.000000000  0.000000000
     0.000000000 20.000000000  0.000000000     0.000000000  0.050000000  0.000000000
     0.000000000  0.000000000 20.000000000     0.000000000  0.000000000  0.050000000

  length of vectors
    20.000000000 20.000000000 20.000000000     0.050000000  0.050000000  0.050000000



 k-points in units of 2pi/SCALE and weight: KPOINTS created by Atomic Simulation Env
   0.00000000  0.00000000  0.00000000       1.000

 k-points in reciprocal lattice and weights: KPOINTS created by Atomic Simulation Env
   0.00000000  0.00000000  0.00000000       1.000

 position of ions in fractional coordinates (direct lattice) 
   0.97561968  0.09477949  0.99973627
   0.96388883  0.87568796  0.95833293
   0.99359053  0.97791189  0.99259610
   0.06690095  0.05162066  0.04933470

 position of ions in cartesian coordinates  (Angst):
  19.51239361  1.89558978 19.99472542
  19.27777666 17.51375926 19.16665860
  19.87181069 19.55823778 19.85192203
   1.33801904  1.03241318  0.98669395



--------------------------------------------------------------------------------------------------------


 k-point   1 :   0.0000 0.0000 0.0000  plane waves:  215503

 maximum and minimum number of plane-waves per node :     53900    53857

 maximum number of plane-waves:    215503
 maximum index in each direction: 
   IXMAX=   37   IYMAX=   37   IZMAX=   37
   IXMIN=  -37   IYMIN=  -37   IZMIN=  -37


 real space projection operators:
  total allocation   :       3480.75 KBytes
  max/ min on nodes  :        957.52        782.16


 parallel 3D FFT for wavefunctions:
    minimum data exchange during FFTs selected (reduces bandwidth)
 parallel 3D FFT for charge:
    minimum data exchange during FFTs selected (reduces bandwidth)


 total amount of memory used by VASP MPI-rank0   107977. kBytes
=======================================================================

   base      :      30000. kBytes
   nonlr-proj:       1612. kBytes
   fftplans  :      30789. kBytes
   grid      :      42969. kBytes
   one-center:         15. kBytes
   wavefun   :       2592. kBytes

     INWAV:  cpu time      0.0000: real time      0.0000
 Broyden mixing: mesh for mixing (old mesh)
   NGX = 75   NGY = 75   NGZ = 75
  (NGX  =300   NGY  =300   NGZ  =300)
  gives a total of 421875 points

 initial charge density was supplied:
 charge density of overlapping atoms calculated
 number of electron      44.0000000 magnetization 
 keeping initial charge density in first step


--------------------------------------------------------------------------------------------------------


 Maximum index for non-local projection operator         1773
 Maximum index for augmentation-charges          619 (set IRDMAX)


--------------------------------------------------------------------------------------------------------


 First call to EWALD:  gamma=   0.089
 Maximum number of real-space cells 3x 3x 3
 Maximum number of reciprocal cells 3x 3x 3

    FEWALD:  cpu time      0.0006: real time      0.0006


--------------------------------------- Iteration      1(   1)  ---------------------------------------


vdW kernel read from vdw_kernel.bindat
  0.0000  0.2424  0.5071  0.7962  1.1119  1.4567  1.8333  2.2446  2.6937  3.1842
  3.7199  4.3049  4.9438  5.6415  6.4036  7.2358  8.1446  9.1372 10.2212 11.4050
 12.6979 14.1099 15.6519 17.3360 19.1751 21.1837 23.3773 25.7729 28.3892 31.2465
 34.3669 37.7748 41.4965 45.5611 50.0000

    POTLOK:  cpu time      1.7655: real time      1.7865
    SETDIJ:  cpu time      0.1322: real time      0.1322
    TRIAL :  cpu time      0.3535: real time      0.3539
    CORREC:  cpu time      0.0008: real time      0.0008
    --------------------------------------------
      LOOP:  cpu time      2.2539: real time      2.2754

 eigenvalue-minimisations  :   128
 total energy-change (2. order) : 0.2406928E+03  (-0.8570749E+03)
 number of electron      44.0000000 magnetization 
 augmentation part       44.0000000 magnetization 

 Free energy of the ion-electron system (eV)
  ---------------------------------------------------
  alpha Z        PSCENC =         1.46265607
  Ewald energy   TEWEN  =      1855.67042458
  -Hartree energ DENC   =     -6934.20233903
  -exchange      EXHF   =         0.00000000
  -V(xc)+E(xc)   XCENC  =       177.48354564
  PAW double counting   =      4916.11836657    -5336.27936375
  entropy T*S    EENTRO =        -0.07748572
  eigenvalues    EBANDS =       -18.87048840
  atomic energy  EATOM  =      5579.38744908
  ---------------------------------------------------
  free energy    TOTEN  =       240.69276504 eV

  energy without entropy =      240.77025076  energy(sigma->0) =      240.73150790


--------------------------------------------------------------------------------------------------------




--------------------------------------- Iteration      1(   2)  ---------------------------------------


    TRIAL :  cpu time      0.3411: real time      0.3411
    CORREC:  cpu time      0.0002: real time      0.0002
    --------------------------------------------
      LOOP:  cpu time      0.3459: real time      0.3538

 eigenvalue-minimisations  :   128
 total energy-change (2. order) :-0.2117096E+03  (-0.2111676E+03)
 number of electron      44.0000000 magnetization 
 augmentation part       44.0000000 magnetization 

 Free energy of the ion-electron system (eV)
  ---------------------------------------------------
  alpha Z        PSCENC =         1.46265607
  Ewald energy   TEWEN  =      1855.67042458
  -Hartree energ DENC   =     -6934.20233903
  -exchange      EXHF   =         0.00000000
  -V(xc)+E(xc)   XCENC  =       177.48354564
  PAW double counting   =      4916.11836657    -5336.27936375
  entropy T*S    EENTRO =        -0.00000000
  eigenvalues    EBANDS =      -230.65756781
  atomic energy  EATOM  =      5579.38744908
  ---------------------------------------------------
  free energy    TOTEN  =        28.98317136 eV

  energy without entropy =       28.98317136  energy(sigma->0) =       28.98317136


--------------------------------------------------------------------------------------------------------




--------------------------------------- Iteration      1(   3)  ---------------------------------------


    TRIAL :  cpu time      0.3400: real time      0.3402
    CORREC:  cpu time      0.0003: real time      0.0003
    --------------------------------------------
      LOOP:  cpu time      0.3439: real time      0.3526

 eigenvalue-minimisations  :   128
 total energy-change (2. order) :-0.2389576E+02  (-0.2389576E+02)
 number of electron      44.0000000 magnetization 
 augmentation part       44.0000000 magnetization 

 Free energy of the ion-electron system (eV)
  ---------------------------------------------------
  alpha Z        PSCENC =         1.46265607
  Ewald energy   TEWEN  =      1855.67042458
  -Hartree energ DENC   =     -6934.20233903
  -exchange      EXHF   =         0.00000000
  -V(xc)+E(xc)   XCENC  =       177.48354564
  PAW double counting   =      4916.11836657    -5336.27936375
  entropy T*S    EENTRO =        -0.00000000
  eigenvalues    EBANDS =      -254.55332787
  atomic energy  EATOM  =      5579.38744908
  ---------------------------------------------------
  free energy    TOTEN  =         5.08741130 eV

  energy without entropy =        5.08741130  energy(sigma->0) =        5.08741130


--------------------------------------------------------------------------------------------------------




--------------------------------------- Iteration      1(   4)  ---------------------------------------


    TRIAL :  cpu time      0.3386: real time      0.3386
    CORREC:  cpu time      0.0003: real time      0.0003
    --------------------------------------------
      LOOP:  cpu time      0.3511: real time      0.3512

 eigenvalue-minimisations  :   128
 total energy-change (2. order) :-0.1009334E+01  (-0.1009334E+01)
 number of electron      44.0000000 magnetization 
 augmentation part       44.0000000 magnetization 

 Free energy of the ion-electron system (eV)
  ---------------------------------------------------
  alpha Z        PSCENC =         1.46265607
  Ewald energy   TEWEN  =      1855.67042458
  -Hartree energ DENC   =     -6934.20233903
  -exchange      EXHF   =         0.00000000
  -V(xc)+E(xc)   XCENC  =       177.48354564
  PAW double counting   =      4916.11836657    -5336.27936375
  entropy T*S    EENTRO =        -0.00000000
  eigenvalues    EBANDS =      -255.56266161
  atomic energy  EATOM  =      5579.38744908
  ---------------------------------------------------
  free energy    TOTEN  =         4.07807755 eV

  energy without entropy =        4.07807755  energy(sigma->0) =        4.07807755


--------------------------------------------------------------------------------------------------------




--------------------------------------- Iteration      1(   5)  ---------------------------------------


    TRIAL :  cpu time      0.7764: real time      0.7769
    CORREC:  cpu time      0.0003: real time      0.0003
    CHARGE:  cpu time      0.1092: real time      0.1094
    --------------------------------------------
      LOOP:  cpu time      0.8898: real time      0.8991

 eigenvalue-minimisations  :   256
 total energy-change (2. order) :-0.2049699E-01  (-0.2049699E-01)
 number of electron      43.9999997 magnetization 
 augmentation part       27.6747957 magnetization 

 Free energy of the ion-electron system (eV)
  ---------------------------------------------------
  alpha Z        PSCENC =         1.46265607
  Ewald energy   TEWEN  =      1855.67042458
  -Hartree energ DENC   =     -6934.20233903
  -exchange      EXHF   =         0.00000000
  -V(xc)+E(xc)   XCENC  =       177.48354564
  PAW double counting   =      4916.11836657    -5336.27936375
  entropy T*S    EENTRO =        -0.00000000
  eigenvalues    EBANDS =      -255.58315860
  atomic energy  EATOM  =      5579.38744908
  ---------------------------------------------------
  free energy    TOTEN  =         4.05758056 eV

  energy without entropy =        4.05758056  energy(sigma->0) =        4.05758056


--------------------------------------------------------------------------------------------------------




--------------------------------------- Iteration      1(   6)  ---------------------------------------


    POTLOK:  cpu time      1.4038: real time      1.4040
    SETDIJ:  cpu time      0.1000: real time      0.1000
    TRIAL :  cpu time      0.4198: real time      0.5276
    CORREC:  cpu time      1.6685: real time      1.6690
    CHARGE:  cpu time      0.0950: real time      0.0950
    --------------------------------------------
      LOOP:  cpu time      3.6907: real time      3.8076

 eigenvalue-minimisations  :     0
 total energy-change (2. order) : 0.3772525E+01  (-0.1842239E+01)
 number of electron      43.9999997 magnetization 
 augmentation part       28.4046560 magnetization 

 Free energy of the ion-electron system (eV)
  ---------------------------------------------------
  alpha Z        PSCENC =         1.46265607
  Ewald energy   TEWEN  =      1855.67042458
  -Hartree energ DENC   =     -6878.07474083
  -exchange      EXHF   =         0.00000000
  -V(xc)+E(xc)   XCENC  =       172.80226486
  PAW double counting   =      5076.77522743    -5480.18018733
  entropy T*S    EENTRO =        -0.00000000
  eigenvalues    EBANDS =      -320.01298876
  atomic energy  EATOM  =      5579.38744908
  ---------------------------------------------------
  free energy    TOTEN  =         7.83010509 eV

  energy without entropy =        7.83010509  energy(sigma->0) =        7.83010509


--------------------------------------------------------------------------------------------------------




--------------------------------------- Iteration      1(   7)  ---------------------------------------


    POTLOK:  cpu time      1.3904: real time      1.3906
    SETDIJ:  cpu time      0.1611: real time      0.1611
    TRIAL :  cpu time      0.1837: real time      0.1837
    CORREC:  cpu time      1.6741: real time      1.6742
    CHARGE:  cpu time      0.0945: real time      0.0946
    --------------------------------------------
      LOOP:  cpu time      3.5168: real time      3.5174

 eigenvalue-minimisations  :     0
 total energy-change (2. order) :-0.1687034E+01  (-0.6236747E+00)
 number of electron      43.9999996 magnetization 
 augmentation part       28.2381024 magnetization 

 Free energy of the ion-electron system (eV)
  ---------------------------------------------------
  alpha Z        PSCENC =         1.46265607
  Ewald energy   TEWEN  =      1855.67042458
  -Hartree energ DENC   =     -6965.63311332
  -exchange      EXHF   =         0.00000000
  -V(xc)+E(xc)   XCENC  =       176.60532104
  PAW double counting   =      5129.85515644    -5560.48180093
  entropy T*S    EENTRO =        -0.00000000
  eigenvalues    EBANDS =      -210.72302190
  atomic energy  EATOM  =      5579.38744908
  ---------------------------------------------------
  free energy    TOTEN  =         6.14307106 eV

  energy without entropy =        6.14307106  energy(sigma->0) =        6.14307106


--------------------------------------------------------------------------------------------------------




--------------------------------------- Iteration      1(   8)  ---------------------------------------


    POTLOK:  cpu time      1.3914: real time      1.3916
    SETDIJ:  cpu time      0.1264: real time      0.1264
    TRIAL :  cpu time      0.1831: real time      0.1832
    CORREC:  cpu time      1.6712: real time      1.6714
    CHARGE:  cpu time      0.0943: real time      0.0943
    --------------------------------------------
      LOOP:  cpu time      3.4703: real time      3.4796

 eigenvalue-minimisations  :     0
 total energy-change (2. order) :-0.6146964E+00  (-0.1031752E+00)
 number of electron      43.9999996 magnetization 
 augmentation part       28.3943983 magnetization 

 Free energy of the ion-electron system (eV)
  ---------------------------------------------------
  alpha Z        PSCENC =         1.46265607
  Ewald energy   TEWEN  =      1855.67042458
  -Hartree energ DENC   =     -6915.35525527
  -exchange      EXHF   =         0.00000000
  -V(xc)+E(xc)   XCENC  =       175.36557398
  PAW double counting   =      5095.18022478    -5517.11597204
  entropy T*S    EENTRO =        -0.00000000
  eigenvalues    EBANDS =      -269.06672656
  atomic energy  EATOM  =      5579.38744908
  ---------------------------------------------------
  free energy    TOTEN  =         5.52837462 eV

  energy without entropy =        5.52837462  energy(sigma->0) =        5.52837462


--------------------------------------------------------------------------------------------------------




--------------------------------------- Iteration      1(   9)  ---------------------------------------


    POTLOK:  cpu time      1.3905: real time      1.3906
    SETDIJ:  cpu time      0.1261: real time      0.1262
    TRIAL :  cpu time      0.1830: real time      0.1830
    CORREC:  cpu time      1.6726: real time      1.6728
    CHARGE:  cpu time      0.0949: real time      0.0949
    --------------------------------------------
      LOOP:  cpu time      3.4726: real time      3.4799

 eigenvalue-minimisations  :     0
 total energy-change (2. order) :-0.1017660E+00  (-0.8412007E-01)
 number of electron      43.9999996 magnetization 
 augmentation part       28.3431311 magnetization 

 Free energy of the ion-electron system (eV)
  ---------------------------------------------------
  alpha Z        PSCENC =         1.46265607
  Ewald energy   TEWEN  =      1855.67042458
  -Hartree energ DENC   =     -6934.25854782
  -exchange      EXHF   =         0.00000000
  -V(xc)+E(xc)   XCENC  =       176.22115951
  PAW double counting   =      5109.07538061    -5536.53146293
  entropy T*S    EENTRO =        -0.00000000
  eigenvalues    EBANDS =      -245.60045051
  atomic energy  EATOM  =      5579.38744908
  ---------------------------------------------------
  free energy    TOTEN  =         5.42660859 eV

  energy without entropy =        5.42660859  energy(sigma->0) =        5.42660859


--------------------------------------------------------------------------------------------------------




--------------------------------------- Iteration      1(  10)  ---------------------------------------


    POTLOK:  cpu time      1.4079: real time      1.4080
    SETDIJ:  cpu time      0.1092: real time      0.1093
    TRIAL :  cpu time      0.1853: real time      0.1853
    CORREC:  cpu time      1.6720: real time      1.6722
    CHARGE:  cpu time      0.0973: real time      0.0973
    --------------------------------------------
      LOOP:  cpu time      3.4839: real time      3.4844

 eigenvalue-minimisations  :     0
 total energy-change (2. order) :-0.8429083E-01  (-0.1840449E-01)
 number of electron      43.9999996 magnetization 
 augmentation part       28.3666430 magnetization 

 Free energy of the ion-electron system (eV)
  ---------------------------------------------------
  alpha Z        PSCENC =         1.46265607
  Ewald energy   TEWEN  =      1855.67042458
  -Hartree energ DENC   =     -6930.68091112
  -exchange      EXHF   =         0.00000000
  -V(xc)+E(xc)   XCENC  =       176.02623907
  PAW double counting   =      5111.11914341    -5535.61396889
  entropy T*S    EENTRO =        -0.00000000
  eigenvalues    EBANDS =      -252.02871444
  atomic energy  EATOM  =      5579.38744908
  ---------------------------------------------------
  free energy    TOTEN  =         5.34231777 eV

  energy without entropy =        5.34231777  energy(sigma->0) =        5.34231777


--------------------------------------------------------------------------------------------------------




--------------------------------------- Iteration      1(  11)  ---------------------------------------


    POTLOK:  cpu time      1.4073: real time      1.4073
    SETDIJ:  cpu time      0.1082: real time      0.1082
    TRIAL :  cpu time      0.1848: real time      0.1848
    CORREC:  cpu time      1.6716: real time      1.6717
    CHARGE:  cpu time      0.0954: real time      0.0954
    --------------------------------------------
      LOOP:  cpu time      3.4707: real time      3.4794

 eigenvalue-minimisations  :     0
 total energy-change (2. order) :-0.1835694E-01  (-0.1784666E-01)
 number of electron      43.9999996 magnetization 
 augmentation part       28.3821598 magnetization 

 Free energy of the ion-electron system (eV)
  ---------------------------------------------------
  alpha Z        PSCENC =         1.46265607
  Ewald energy   TEWEN  =      1855.67042458
  -Hartree energ DENC   =     -6933.68154012
  -exchange      EXHF   =         0.00000000
  -V(xc)+E(xc)   XCENC  =       176.16518418
  PAW double counting   =      5113.15776021    -5538.16457031
  entropy T*S    EENTRO =        -0.00000000
  eigenvalues    EBANDS =      -248.67340286
  atomic energy  EATOM  =      5579.38744908
  ---------------------------------------------------
  free energy    TOTEN  =         5.32396083 eV

  energy without entropy =        5.32396083  energy(sigma->0) =        5.32396083


--------------------------------------------------------------------------------------------------------




--------------------------------------- Iteration      1(  12)  ---------------------------------------


    POTLOK:  cpu time      1.4020: real time      1.4021
    SETDIJ:  cpu time      0.1147: real time      0.1147
    TRIAL :  cpu time      0.1857: real time      0.1857
    CORREC:  cpu time      1.6701: real time      1.6702
    CHARGE:  cpu time      0.0968: real time      0.0969
    --------------------------------------------
      LOOP:  cpu time      3.4728: real time      3.4820

 eigenvalue-minimisations  :     0
 total energy-change (2. order) :-0.1785719E-01  (-0.3348125E-02)
 number of electron      43.9999996 magnetization 
 augmentation part       28.3671781 magnetization 

 Free energy of the ion-electron system (eV)
  ---------------------------------------------------
  alpha Z        PSCENC =         1.46265607
  Ewald energy   TEWEN  =      1855.67042458
  -Hartree energ DENC   =     -6934.60332689
  -exchange      EXHF   =         0.00000000
  -V(xc)+E(xc)   XCENC  =       176.22151238
  PAW double counting   =      5111.47483298    -5536.49379065
  entropy T*S    EENTRO =        -0.00000000
  eigenvalues    EBANDS =      -247.81365391
  atomic energy  EATOM  =      5579.38744908
  ---------------------------------------------------
  free energy    TOTEN  =         5.30610364 eV

  energy without entropy =        5.30610364  energy(sigma->0) =        5.30610364


--------------------------------------------------------------------------------------------------------




--------------------------------------- Iteration      1(  13)  ---------------------------------------


    POTLOK:  cpu time      1.3907: real time      1.3908
    SETDIJ:  cpu time      0.1249: real time      0.1249
    TRIAL :  cpu time      0.1829: real time      0.1829
    CORREC:  cpu time      1.6668: real time      1.6670
    CHARGE:  cpu time      0.0960: real time      0.0960
    --------------------------------------------
      LOOP:  cpu time      3.4651: real time      3.4736

 eigenvalue-minimisations  :     0
 total energy-change (2. order) :-0.3349065E-02  (-0.2778165E-02)
 number of electron      43.9999996 magnetization 
 augmentation part       28.3827489 magnetization 

 Free energy of the ion-electron system (eV)
  ---------------------------------------------------
  alpha Z        PSCENC =         1.46265607
  Ewald energy   TEWEN  =      1855.67042458
  -Hartree energ DENC   =     -6931.76447641
  -exchange      EXHF   =         0.00000000
  -V(xc)+E(xc)   XCENC  =       176.12382006
  PAW double counting   =      5109.05033686    -5533.37225293
  entropy T*S    EENTRO =        -0.00000000
  eigenvalues    EBANDS =      -251.25520273
  atomic energy  EATOM  =      5579.38744908
  ---------------------------------------------------
  free energy    TOTEN  =         5.30275458 eV

  energy without entropy =        5.30275458  energy(sigma->0) =        5.30275458


--------------------------------------------------------------------------------------------------------




--------------------------------------- Iteration      1(  14)  ---------------------------------------


    POTLOK:  cpu time      1.3877: real time      1.3878
    SETDIJ:  cpu time      0.1262: real time      0.1262
    TRIAL :  cpu time      0.1831: real time      0.1831
    CORREC:  cpu time      1.6635: real time      1.6636
    CHARGE:  cpu time      0.0961: real time      0.0961
    --------------------------------------------
      LOOP:  cpu time      3.4611: real time      3.4697

 eigenvalue-minimisations  :     0
 total energy-change (2. order) :-0.2777808E-02  (-0.3813957E-03)
 number of electron      43.9999996 magnetization 
 augmentation part       28.3778897 magnetization 

 Free energy of the ion-electron system (eV)
  ---------------------------------------------------
  alpha Z        PSCENC =         1.46265607
  Ewald energy   TEWEN  =      1855.67042458
  -Hartree energ DENC   =     -6933.15897898
  -exchange      EXHF   =         0.00000000
  -V(xc)+E(xc)   XCENC  =       176.18789834
  PAW double counting   =      5109.15767371    -5533.99603388
  entropy T*S    EENTRO =        -0.00000000
  eigenvalues    EBANDS =      -249.41111215
  atomic energy  EATOM  =      5579.38744908
  ---------------------------------------------------
  free energy    TOTEN  =         5.29997677 eV

  energy without entropy =        5.29997677  energy(sigma->0) =        5.29997677


--------------------------------------------------------------------------------------------------------




--------------------------------------- Iteration      1(  15)  ---------------------------------------


    POTLOK:  cpu time      1.3845: real time      1.3852
    SETDIJ:  cpu time      0.1237: real time      0.1237
    TRIAL :  cpu time      0.1826: real time      0.1826
    CORREC:  cpu time      1.6601: real time      1.6603
    CHARGE:  cpu time      0.0963: real time      0.0963
    --------------------------------------------
      LOOP:  cpu time      3.4591: real time      3.4603

 eigenvalue-minimisations  :     0
 total energy-change (2. order) :-0.3815525E-03  (-0.1710624E-03)
 number of electron      43.9999996 magnetization 
 augmentation part       28.3819144 magnetization 

 Free energy of the ion-electron system (eV)
  ---------------------------------------------------
  alpha Z        PSCENC =         1.46265607
  Ewald energy   TEWEN  =      1855.67042458
  -Hartree energ DENC   =     -6932.48781248
  -exchange      EXHF   =         0.00000000
  -V(xc)+E(xc)   XCENC  =       176.16104981
  PAW double counting   =      5108.91695473    -5533.53405826
  entropy T*S    EENTRO =        -0.00000000
  eigenvalues    EBANDS =      -250.27706833
  atomic energy  EATOM  =      5579.38744908
  ---------------------------------------------------
  free energy    TOTEN  =         5.29959521 eV

  energy without entropy =        5.29959521  energy(sigma->0) =        5.29959521


--------------------------------------------------------------------------------------------------------




--------------------------------------- Iteration      1(  16)  ---------------------------------------


    POTLOK:  cpu time      1.3817: real time      1.3818
    SETDIJ:  cpu time      0.1254: real time      0.1254
    TRIAL :  cpu time      0.1832: real time      0.1832
    CORREC:  cpu time      1.6619: real time      1.6620
    CHARGE:  cpu time      0.0955: real time      0.0955
    --------------------------------------------
      LOOP:  cpu time      3.4517: real time      3.4612

 eigenvalue-minimisations  :     0
 total energy-change (2. order) :-0.1707275E-03  (-0.4881513E-04)
 number of electron      43.9999996 magnetization 
 augmentation part       28.3825080 magnetization 

 Free energy of the ion-electron system (eV)
  ---------------------------------------------------
  alpha Z        PSCENC =         1.46265607
  Ewald energy   TEWEN  =      1855.67042458
  -Hartree energ DENC   =     -6933.07524876
  -exchange      EXHF   =         0.00000000
  -V(xc)+E(xc)   XCENC  =       176.18286625
  PAW double counting   =      5109.39211589    -5534.14748988
  entropy T*S    EENTRO =        -0.00000000
  eigenvalues    EBANDS =      -249.57334874
  atomic energy  EATOM  =      5579.38744908
  ---------------------------------------------------
  free energy    TOTEN  =         5.29942449 eV

  energy without entropy =        5.29942449  energy(sigma->0) =        5.29942449


--------------------------------------------------------------------------------------------------------




--------------------------------------- Iteration      1(  17)  ---------------------------------------


    POTLOK:  cpu time      1.3805: real time      1.3806
    SETDIJ:  cpu time      0.1262: real time      0.1262
    TRIAL :  cpu time      0.1837: real time      0.1837
    CORREC:  cpu time      1.6573: real time      1.6581
    CHARGE:  cpu time      0.0949: real time      0.0949
    --------------------------------------------
      LOOP:  cpu time      3.4468: real time      3.4559

 eigenvalue-minimisations  :     0
 total energy-change (2. order) :-0.4887128E-04  (-0.1884652E-04)
 number of electron      43.9999996 magnetization 
 augmentation part       28.3814506 magnetization 

 Free energy of the ion-electron system (eV)
  ---------------------------------------------------
  alpha Z        PSCENC =         1.46265607
  Ewald energy   TEWEN  =      1855.67042458
  -Hartree energ DENC   =     -6933.13729398
  -exchange      EXHF   =         0.00000000
  -V(xc)+E(xc)   XCENC  =       176.18611362
  PAW double counting   =      5109.52569327    -5534.29704878
  entropy T*S    EENTRO =        -0.00000000
  eigenvalues    EBANDS =      -249.49861824
  atomic energy  EATOM  =      5579.38744908
  ---------------------------------------------------
  free energy    TOTEN  =         5.29937562 eV

  energy without entropy =        5.29937562  energy(sigma->0) =        5.29937562


--------------------------------------------------------------------------------------------------------




--------------------------------------- Iteration      1(  18)  ---------------------------------------


    POTLOK:  cpu time      1.3815: real time      1.3816
    SETDIJ:  cpu time      0.1253: real time      0.1253
    TRIAL :  cpu time      0.1830: real time      0.1831
    CORREC:  cpu time      1.6598: real time      1.6600
    CHARGE:  cpu time      0.0953: real time      0.0953
    --------------------------------------------
      LOOP:  cpu time      3.4574: real time      3.4579

 eigenvalue-minimisations  :     0
 total energy-change (2. order) :-0.1889107E-04  (-0.7734220E-05)
 number of electron      43.9999996 magnetization 
 augmentation part       28.3822753 magnetization 

 Free energy of the ion-electron system (eV)
  ---------------------------------------------------
  alpha Z        PSCENC =         1.46265607
  Ewald energy   TEWEN  =      1855.67042458
  -Hartree energ DENC   =     -6932.99699117
  -exchange      EXHF   =         0.00000000
  -V(xc)+E(xc)   XCENC  =       176.18011825
  PAW double counting   =      5109.47414393    -5534.20291081
  entropy T*S    EENTRO =        -0.00000000
  eigenvalues    EBANDS =      -249.67553321
  atomic energy  EATOM  =      5579.38744908
  ---------------------------------------------------
  free energy    TOTEN  =         5.29935672 eV

  energy without entropy =        5.29935672  energy(sigma->0) =        5.29935672


--------------------------------------------------------------------------------------------------------




--------------------------------------- Iteration      1(  19)  ---------------------------------------


    POTLOK:  cpu time      1.3823: real time      1.3825
    SETDIJ:  cpu time      0.1239: real time      0.1239
    TRIAL :  cpu time      0.1833: real time      0.1834
    CORREC:  cpu time      1.6598: real time      1.6599
    CHARGE:  cpu time      0.0966: real time      0.0966
    --------------------------------------------
      LOOP:  cpu time      3.4501: real time      3.4585

 eigenvalue-minimisations  :     0
 total energy-change (2. order) :-0.7757722E-05  (-0.2586478E-05)
 number of electron      43.9999996 magnetization 
 augmentation part       28.3815455 magnetization 

 Free energy of the ion-electron system (eV)
  ---------------------------------------------------
  alpha Z        PSCENC =         1.46265607
  Ewald energy   TEWEN  =      1855.67042458
  -Hartree energ DENC   =     -6933.13147704
  -exchange      EXHF   =         0.00000000
  -V(xc)+E(xc)   XCENC  =       176.18498764
  PAW double counting   =      5109.63426214    -5534.39742059
  entropy T*S    EENTRO =        -0.00000000
  eigenvalues    EBANDS =      -249.51153293
  atomic energy  EATOM  =      5579.38744908
  ---------------------------------------------------
  free energy    TOTEN  =         5.29934897 eV

  energy without entropy =        5.29934897  energy(sigma->0) =        5.29934897


--------------------------------------------------------------------------------------------------------




--------------------------------------- Iteration      1(  20)  ---------------------------------------


    POTLOK:  cpu time      1.3802: real time      1.3803
    SETDIJ:  cpu time      0.1271: real time      0.1271
    TRIAL :  cpu time      0.1829: real time      0.1829
    CORREC:  cpu time      1.6605: real time      1.6611
    CHARGE:  cpu time      0.0960: real time      0.0960
    --------------------------------------------
      LOOP:  cpu time      3.4518: real time      3.4599

 eigenvalue-minimisations  :     0
 total energy-change (2. order) :-0.2621378E-05  (-0.1001355E-05)
 number of electron      43.9999996 magnetization 
 augmentation part       28.3816652 magnetization 

 Free energy of the ion-electron system (eV)
  ---------------------------------------------------
  alpha Z        PSCENC =         1.46265607
  Ewald energy   TEWEN  =      1855.67042458
  -Hartree energ DENC   =     -6933.02982047
  -exchange      EXHF   =         0.00000000
  -V(xc)+E(xc)   XCENC  =       176.18096379
  PAW double counting   =      5109.59860807    -5534.33531549
  entropy T*S    EENTRO =        -0.00000000
  eigenvalues    EBANDS =      -249.63561929
  atomic energy  EATOM  =      5579.38744908
  ---------------------------------------------------
  free energy    TOTEN  =         5.29934635 eV

  energy without entropy =        5.29934635  energy(sigma->0) =        5.29934635


--------------------------------------------------------------------------------------------------------




--------------------------------------- Iteration      1(  21)  ---------------------------------------


    POTLOK:  cpu time      1.3847: real time      1.3848
    SETDIJ:  cpu time      0.1214: real time      0.1214
    TRIAL :  cpu time      0.1823: real time      0.1823
    CORREC:  cpu time      1.6580: real time      1.6581
    CHARGE:  cpu time      0.0947: real time      0.0947
    --------------------------------------------
      LOOP:  cpu time      3.4452: real time      3.4535

 eigenvalue-minimisations  :     0
 total energy-change (2. order) :-0.1003672E-05  (-0.3758453E-06)
 number of electron      43.9999996 magnetization 
 augmentation part       28.3817014 magnetization 

 Free energy of the ion-electron system (eV)
  ---------------------------------------------------
  alpha Z        PSCENC =         1.46265607
  Ewald energy   TEWEN  =      1855.67042458
  -Hartree energ DENC   =     -6933.03778596
  -exchange      EXHF   =         0.00000000
  -V(xc)+E(xc)   XCENC  =       176.18142167
  PAW double counting   =      5109.62038187    -5534.36241535
  entropy T*S    EENTRO =        -0.00000000
  eigenvalues    EBANDS =      -249.62278661
  atomic energy  EATOM  =      5579.38744908
  ---------------------------------------------------
  free energy    TOTEN  =         5.29934534 eV

  energy without entropy =        5.29934534  energy(sigma->0) =        5.29934534


--------------------------------------------------------------------------------------------------------




--------------------------------------- Iteration      1(  22)  ---------------------------------------


    POTLOK:  cpu time      1.3819: real time      1.3820
    SETDIJ:  cpu time      0.1255: real time      0.1255
    TRIAL :  cpu time      0.1828: real time      0.1829
    CORREC:  cpu time      1.6596: real time      1.6597
    EDDIAG:  cpu time      0.0789: real time      0.0790
    CHARGE:  cpu time      0.0955: real time      0.0955
    --------------------------------------------
      LOOP:  cpu time      3.5279: real time      3.5366

 eigenvalue-minimisations  :     0
 total energy-change (2. order) :-0.3747027E-06  (-0.2237914E-06)
 number of electron      43.9999996 magnetization 
 augmentation part       28.3815662 magnetization 

 Free energy of the ion-electron system (eV)
  ---------------------------------------------------
  alpha Z        PSCENC =         1.46265607
  Ewald energy   TEWEN  =      1855.67042458
  -Hartree energ DENC   =     -6933.03502549
  -exchange      EXHF   =         0.00000000
  -V(xc)+E(xc)   XCENC  =       176.18149438
  PAW double counting   =      5109.62748873    -5534.37162276
  entropy T*S    EENTRO =        -0.00000000
  eigenvalues    EBANDS =      -249.62351963
  atomic energy  EATOM  =      5579.38744908
  ---------------------------------------------------
  free energy    TOTEN  =         5.29934497 eV

  energy without entropy =        5.29934497  energy(sigma->0) =        5.29934497


--------------------------------------------------------------------------------------------------------


  average scaling for gradient   1.1672


 average (electrostatic) potential at core
  the test charge radii are     0.9430
  (the norm of the test charge is              1.0000)
       1 -74.2410       2 -73.2107       3 -74.0494       4 -74.2411



 E-fermi :  -4.3246     XC(G=0):  -0.4645     alpha+bet : -0.0793

 Fermi energy:        -4.3245689496

 k-point     1 :       0.0000    0.0000    0.0000
  band No.  band energies     occupation 
      1      -8.0161      2.00000
      2      -6.7995      2.00000
      3      -6.5574      2.00000
      4      -6.5425      2.00000
      5      -6.4013      2.00000
      6      -6.0858      2.00000
      7      -5.9605      2.00000
      8      -5.9085      2.00000
      9      -5.8849      2.00000
     10      -5.5905      2.00000
     11      -5.5710      2.00000
     12      -5.5426      2.00000
     13      -5.4649      2.00000
     14      -5.4117      2.00000
     15      -5.3587      2.00000
     16      -5.3558      2.00000
     17      -4.9622      2.00000
     18      -4.7571      2.00000
     19      -4.7081      2.00000
     20      -4.7015      2.00000
     21      -4.6767      2.00000
     22      -4.5608      2.00000
     23      -3.6820      0.00000
     24      -2.6376      0.00000
     25      -1.9111      0.00000
     26      -1.0645      0.00000
     27      -0.9272      0.00000
     28      -0.6424      0.00000
     29      -0.4421      0.00000
     30      -0.2842      0.00000
     31      -0.1817      0.00000
     32      -0.0820      0.00000
     33      -0.0038      0.00000
     34       0.1029      0.00000
     35       0.2254      0.00000
     36       0.2482      0.00000
     37       0.2953      0.00000
     38       0.4132      0.00000
     39       0.4654      0.00000
     40       0.4803      0.00000
     41       0.4878      0.00000
     42       0.4990      0.00000
     43       0.5180      0.00000
     44       0.5439      0.00000
     45       0.5680      0.00000
     46       0.5802      0.00000
     47       0.5803      0.00000
     48       0.6826      0.00000
     49       0.7188      0.00000
     50       0.7635      0.00000
     51       0.8741      0.00000
     52       0.8894      0.00000
     53       0.9010      0.00000
     54       0.9280      0.00000
     55       0.9784      0.00000
     56       0.9878      0.00000
     57       1.0272      0.00000
     58       1.0449      0.00000
     59       1.1389      0.00000
     60       1.1933      0.00000
     61       1.2035      0.00000
     62       1.2868      0.00000
     63       1.3482      0.00000
     64       1.3777      0.00000


--------------------------------------------------------------------------------------------------------


 soft charge-density along one line, spin component           1
         0         1         2         3         4         5         6         7         8         9
 total charge-density along one line

 pseudopotential strength for first ion, spin component:           1
-10.672  -0.025  -0.032   0.009   0.000   1.103   0.019   0.023
 -0.025 -10.639   0.004   0.028  -0.005   0.019   1.078  -0.003
 -0.032   0.004 -10.620  -0.013  -0.011   0.023  -0.003   1.063
  0.009   0.028  -0.013 -10.628  -0.027  -0.006  -0.020   0.010
  0.000  -0.005  -0.011  -0.027 -10.678  -0.000   0.004   0.008
  1.103   0.019   0.023  -0.006  -0.000   6.244  -0.011  -0.014
  0.019   1.078  -0.003  -0.020   0.004  -0.011   6.259   0.001
  0.023  -0.003   1.063   0.010   0.008  -0.014   0.001   6.269
 -0.006  -0.020   0.010   1.069   0.020   0.003   0.012  -0.006
 -0.000   0.004   0.008   0.020   1.106  -0.000  -0.002  -0.006
 -0.007  -0.001  -0.006   0.007  -0.002  -0.003  -0.002  -0.001
 -0.012  -0.002  -0.011   0.012  -0.004  -0.007  -0.004  -0.003
 -0.020  -0.010  -0.010  -0.000  -0.018   0.010   0.005   0.005
 -0.000   0.018  -0.011  -0.020   0.000  -0.000  -0.008   0.005
  0.018  -0.000   0.012  -0.009  -0.020  -0.009  -0.000  -0.006
 -0.021  -0.010  -0.010  -0.000  -0.018   0.008   0.004   0.004
 -0.000   0.019  -0.012  -0.021   0.000  -0.001  -0.006   0.003
  0.018  -0.000   0.012  -0.010  -0.021  -0.007  -0.001  -0.004
 total augmentation occupancy for first ion, spin component:           1
  1.973  -0.004  -0.005   0.000  -0.003  -0.003   0.005   0.008  -0.005  -0.001   0.064  -0.000   0.057  -0.008  -0.057  -0.031
 -0.004   1.979   0.000   0.004  -0.000   0.005  -0.011  -0.001  -0.007  -0.001   0.027  -0.001   0.017  -0.045  -0.008  -0.014
 -0.005   0.000   1.980  -0.003  -0.004   0.008  -0.001  -0.011   0.002   0.004   0.037   0.003   0.047   0.020  -0.033  -0.018
  0.000   0.004  -0.003   1.978  -0.008  -0.005  -0.007   0.002  -0.007   0.009  -0.060  -0.002  -0.008   0.056   0.046  -0.000
 -0.003  -0.000  -0.004  -0.008   1.966  -0.001  -0.001   0.005   0.009   0.007  -0.017   0.003   0.070   0.015   0.057  -0.032
 -0.003   0.005   0.008  -0.005  -0.001   0.007   0.002   0.003  -0.002  -0.000  -0.052   0.004   0.012  -0.004  -0.015  -0.001
  0.005  -0.011  -0.001  -0.007  -0.001   0.002   0.004  -0.000  -0.002  -0.000  -0.016   0.001   0.003  -0.009  -0.004  -0.000
  0.008  -0.001  -0.011   0.002   0.005   0.003  -0.000   0.004  -0.000   0.001  -0.042   0.003   0.011   0.002  -0.007  -0.001
 -0.005  -0.007   0.002  -0.007   0.009  -0.002  -0.002  -0.000   0.005   0.002   0.047  -0.003  -0.004   0.010   0.011   0.001
 -0.001  -0.001   0.004   0.009   0.007  -0.000  -0.000   0.001   0.002   0.007  -0.009   0.001   0.014   0.004   0.010  -0.001
  0.064   0.027   0.037  -0.060  -0.017  -0.052  -0.016  -0.042   0.047  -0.009   1.530  -0.075  -0.209   0.091   0.200   0.022
 -0.000  -0.001   0.003  -0.002   0.003   0.004   0.001   0.003  -0.003   0.001  -0.075   0.005   0.016  -0.005  -0.012  -0.002
  0.057   0.017   0.047  -0.008   0.070   0.012   0.003   0.011  -0.004   0.014  -0.209   0.016   0.072  -0.003  -0.018  -0.008
 -0.008  -0.045   0.020   0.056   0.015  -0.004  -0.009   0.002   0.010   0.004   0.091  -0.005  -0.003   0.035   0.023   0.001
 -0.057  -0.008  -0.033   0.046   0.057  -0.015  -0.004  -0.007   0.011   0.010   0.200  -0.012  -0.018   0.023   0.063   0.003
 -0.031  -0.014  -0.018  -0.000  -0.032  -0.001  -0.000  -0.001   0.001  -0.001   0.022  -0.002  -0.008   0.001   0.003   0.002
 -0.000   0.030  -0.017  -0.032  -0.000   0.000   0.000   0.000  -0.001  -0.000  -0.009   0.000   0.001  -0.003  -0.002  -0.000
  0.030  -0.000   0.018  -0.015  -0.032   0.001   0.000   0.001  -0.001  -0.000  -0.019   0.001   0.003  -0.002  -0.006  -0.000


------------------------ aborting loop because EDIFF is reached ----------------------------------------


    FORLOC:  cpu time      0.0023: real time      0.0023
    FORNL :  cpu time      0.0937: real time      0.0937
    STRESS:  cpu time      0.2720: real time      0.2729
    FORCOR:  cpu time      1.3477: real time      1.3478
    OFIELD:  cpu time      0.0005: real time      0.0005

  FORCE on cell =-STRESS in cart. coord.  units (eV):
  Direction    XX          YY          ZZ          XY          YZ          ZX
  --------------------------------------------------------------------------------------
  Alpha Z     1.46266     1.46266     1.46266
  Ewald     287.06714  1759.83681  -191.23434   271.07913   529.70973   619.08551
  Hartree  2014.09232  3262.84906  1656.07353   242.21562   442.84190   479.09778
  E(xc)    -256.71293  -256.38939  -256.89758     0.03811     0.12643     0.21307
  Local   -2678.66831 -5393.75151 -1850.16707  -513.91045  -969.86679 -1090.12979
  n-local  -102.58787  -101.63565  -101.71236     0.58489     0.31577    -0.67703
  augment   372.36687   368.50296   376.08024     0.04263    -1.57210    -3.93248
  Kinetic   362.86649   358.93991   366.31966    -0.05940    -1.58203    -3.70098
  Fock        0.00000     0.00000     0.00000     0.00000     0.00000     0.00000
  -------------------------------------------------------------------------------------
  Total      -0.11364    -0.18515    -0.07528    -0.00946    -0.02710    -0.04392
  in kB      -0.02276    -0.03708    -0.01508    -0.00189    -0.00543    -0.00880
  external pressure =       -0.02 kB  Pullay stress =        0.00 kB


 VOLUME and BASIS-vectors are now :
 -----------------------------------------------------------------------------
  energy-cutoff  :      520.00
  volume of cell :     8000.00
      direct lattice vectors                 reciprocal lattice vectors
    20.000000000  0.000000000  0.000000000     0.050000000  0.000000000  0.000000000
     0.000000000 20.000000000  0.000000000     0.000000000  0.050000000  0.000000000
     0.000000000  0.000000000 20.000000000     0.000000000  0.000000000  0.050000000

  length of vectors
    20.000000000 20.000000000 20.000000000     0.050000000  0.050000000  0.050000000


 FORCES acting on ions:
    Electron-Ion                     Ewald-Force                    Non-Local-Force
 -----------------------------------------------------------------------------------------------
   0.329E+03 -.525E+03 0.121E+03   -.320E+03 0.517E+03 -.117E+03   -.949E+01 0.913E+01 -.443E+01
   0.138E+03 0.474E+03 0.160E+03   -.135E+03 -.463E+03 -.156E+03   -.322E+01 -.111E+02 -.371E+01
   0.514E+02 0.177E+03 0.594E+02   -.521E+02 -.180E+03 -.602E+02   0.724E+00 0.250E+01 0.839E+00
   -.519E+03 -.125E+03 -.340E+03   0.507E+03 0.126E+03 0.333E+03   0.119E+02 -.965E+00 0.717E+01
 -----------------------------------------------------------------------------------------------
   0.119E+00 0.401E+00 0.136E+00   0.114E-12 -.568E-13 0.000E+00   -.122E+00 -.404E+00 -.132E+00


 POSITION                                       TOTAL-FORCE (eV/Angst)
 -----------------------------------------------------------------------------------
     19.51239      1.89559     19.99473         0.030391     -0.038508      0.010984
     19.27778     17.51376     19.16666         0.006519      0.028894      0.007294
     19.87181     19.55824     19.85192         0.003269      0.015237      0.006291
      1.33802      1.03241      0.98669        -0.040179     -0.005624     -0.024568
 -----------------------------------------------------------------------------------
    total drift:                               -0.003100     -0.003228      0.004460


--------------------------------------------------------------------------------------------------------



  FREE ENERGIE OF THE ION-ELECTRON SYSTEM (eV)
  ---------------------------------------------------
  free  energy   TOTEN  =         5.29934497 eV

  energy  without entropy=        5.29934497  energy(sigma->0) =        5.29934497



--------------------------------------------------------------------------------------------------------


    POTLOK:  cpu time      1.5087: real time      1.5092


--------------------------------------------------------------------------------------------------------


     LOOP+:  cpu time     66.7415: real time     67.0167
    4ORBIT:  cpu time      0.0000: real time      0.0000

 total amount of memory used by VASP MPI-rank0   107977. kBytes
=======================================================================

   base      :      30000. kBytes
   nonlr-proj:       1612. kBytes
   fftplans  :      30789. kBytes
   grid      :      42969. kBytes
   one-center:         15. kBytes
   wavefun   :       2592. kBytes

  
  
 General timing and accounting informations for this job:
 ========================================================
  
                  Total CPU time used (sec):       80.671
                            User time (sec):       77.752
                          System time (sec):        2.919
                         Elapsed time (sec):       85.704
  
                   Maximum memory used (kb):      400492.
                   Average memory used (kb):          N/A
  
                          Minor page faults:        37802
                          Major page faults:           50
                 Voluntary context switches:         7065
