 vasp.6.3.0 20Jan22 (build Apr  1 2022 16:44:48) complex                         
 executed on        HPECrayEX_GCC date 2022.08.15  20:54:41
 running  512 mpi-ranks, with    1 threads/rank
 distrk:  each k-point on  256 cores,    2 groups
 distr:  one band on NCORE=   4 cores,   64 groups


--------------------------------------------------------------------------------------------------------


 INCAR:
   SYSTEM = MgO-rocksalt
   ISMEAR = 0
   SIGMA = 0.05
   EDIFF = 1E-6
   ALGO = ALL
   ISTART = 0
   IBRION = -1
   NSW = 0
   ISYM = 2
   DIPOL = 0.5 0.5 0.5
   IDIPOL = 3
   LDIPOL = .TRUE.
   GGA = PE
   IVDW = 212
   LVDWEXPANSION = .TRUE.
   ENCUT = 520
   PREC = Accurate
   LASPH = .TRUE.
   LREAL = Auto
   ISPIN = 1
   NELM = 200
   NELMIN = 8
   NCORE = 4
   KPAR = 2
   LWAVE = .FALSE.
   LCHARG = .FALSE.

 POTCAR:    PAW_PBE Ag 02Apr2005                  
 POTCAR:    PAW_PBE Ag 02Apr2005                  
   SHA256 =  6550cfa3543261e132c169e1b98a529204624d72be14e2da2e0242bcb74a174d Ag/POTCAR             
   COPYR  = (c) Copyright 02Apr2005 Georg Kresse                                                    
   COPYR  = This file is part of the software VASP. Any use, copying, and all other rights are regul
   COPYR  = If you do not have a valid VASP license, you may not use, copy or distribute this file. 
   VRHFIN =Ag : s1 d10                                                                              
   LEXCH  = PE                                                                                      
   EATOM  =  1037.2675 eV,   76.2370 Ry                                                             
                                                                                                    
   TITEL  = PAW_PBE Ag 02Apr2005                                                                    
   LULTRA =        F    use ultrasoft PP ?                                                          
   IUNSCR =        1    unscreen: 0-lin 1-nonlin 2-no                                               
   RPACOR =    2.000    partial core radius                                                         
   POMASS =  107.868; ZVAL   =   11.000    mass and valenz                                          
   RCORE  =    2.500    outmost cutoff radius                                                       
   RWIGS  =    2.840; RWIGS  =    1.503    wigner-seitz radius (au A)                               
   ENMAX  =  249.844; ENMIN  =  187.383 eV                                                          
   ICORE  =        3    local potential                                                             
   LCOR   =        T    correct aug charges                                                         
   LPAW   =        T    paw PP                                                                      
   EAUG   =  412.496                                                                                
   DEXC   =    0.000                                                                                
   RMAX   =    2.560    core radius for proj-oper                                                   
   RAUG   =    1.300    factor for augmentation sphere                                              
   RDEP   =    2.576    radius for radial grids                                                     
   RDEPT  =    2.072    core radius for aug-charge                                                  
                                                                                                    
   Atomic configuration                                                                             
   12 entries                                                                                       
     n  l   j            E        occ.                                                              
     1  0  0.50    -25324.9161   2.0000                                                             
     2  0  0.50     -3728.5341   2.0000                                                             
     2  1  1.50     -3344.0404   6.0000                                                             
     3  0  0.50      -683.5581   2.0000                                                             
     3  1  1.50      -557.3225   6.0000                                                             
     3  2  2.50      -358.3853  10.0000                                                             
     4  0  0.50       -95.0341   2.0000                                                             
     4  1  1.50       -58.5511   6.0000                                                             
     4  2  2.50        -7.4440  10.0000                                                             
     5  0  0.50        -4.4045   1.0000                                                             
     5  1  0.50        -1.3606   0.0000                                                             
     4  3  2.50        -1.3606   0.0000                                                             
   Description                                                                                      
     l       E           TYP  RCUT    TYP  RCUT                                                     
     2     -7.4439781     23  2.400                                                                 
     2     -8.8045607     23  2.400                                                                 
     0     -4.4044681     23  2.400                                                                 
     0      1.9520038     23  2.400                                                                 
     1     -1.3605826     23  2.500                                                                 
     1     27.2116520     23  2.500                                                                 
     3     -4.0817478     23  2.400                                                                 
  local pseudopotential read in
  partial core-charges read in
  partial kinetic energy density read in
  atomic valenz-charges read in
  non local Contribution for L=           2  read in
    real space projection operators read in
  non local Contribution for L=           2  read in
    real space projection operators read in
  non local Contribution for L=           0  read in
    real space projection operators read in
  non local Contribution for L=           0  read in
    real space projection operators read in
  non local Contribution for L=           1  read in
    real space projection operators read in
  non local Contribution for L=           1  read in
    real space projection operators read in
    PAW grid and wavefunctions read in

   number of l-projection  operators is LMAX  =           6
   number of lm-projection operators is LMMAX =          18

 -----------------------------------------------------------------------------
|                                                                             |
|               ----> ADVICE to this user running VASP <----                  |
|                                                                             |
|     You have a (more or less) 'small supercell' and for smaller cells       |
|     it is recommended to use the reciprocal-space projection scheme!        |
|     The real-space optimization is not efficient for small cells and it     |
|     is also less accurate ...                                               |
|     Therefore, set LREAL=.FALSE. in the INCAR file.                         |
|                                                                             |
 -----------------------------------------------------------------------------

 Optimization of the real space projectors (new method)

 maximal supplied QI-value         = 15.12
 optimisation between [QCUT,QGAM] = [ 11.64, 23.28] = [ 37.95,151.78] Ry 
 Optimized for a Real-space Cutoff    1.45 Angstroem

   l    n(q)    QCUT    max X(q) W(low)/X(q) W(high)/X(q)  e(spline) 
   2      9    11.641    53.897    0.22E-03    0.42E-04    0.28E-06
   2      9    11.641    52.416    0.23E-03    0.44E-04    0.29E-06
   0     10    11.641   122.045    0.51E-04    0.25E-04    0.16E-06
   0     10    11.641    73.629    0.49E-04    0.24E-04    0.16E-06
   1     10    11.641    15.255    0.99E-04    0.55E-04    0.11E-06
   1     10    11.641     9.562    0.81E-04    0.47E-04    0.95E-07
  PAW_PBE Ag 02Apr2005                  :
 energy of atom  1       EATOM=-1037.2675
 kinetic energy error for atom=    0.0047 (will be added to EATOM!!)


 POSCAR: Ag
  positions in direct lattice
  No initial velocities read in
 exchange correlation table for  LEXCH =        8
   RHO(1)=    0.500       N(1)  =     2000
   RHO(2)=  100.500       N(2)  =     4000



--------------------------------------------------------------------------------------------------------


 ion  position               nearest neighbor table
   1  0.543  0.457  0.625-   2 2.59
   2  0.457  0.543  0.625-   1 2.59

  LATTYP: Found a simple tetragonal cell.
 ALAT       =    21.1388521970
 C/A-ratio  =     1.0461251639
  
  Lattice vectors:
  
 A1 = (  21.1388521970,   0.0000000000,   0.0000000000)
 A2 = (   0.0000000000,  21.1388521970,   0.0000000000)
 A3 = (   0.0000000000,   0.0000000000,  22.1138852197)


Analysis of symmetry for initial positions (statically):
=====================================================================
 Subroutine PRICEL returns:
 Original cell was already a primitive cell.
 

 Routine SETGRP: Setting up the symmetry group for a 
 simple tetragonal supercell.


 Subroutine GETGRP returns: Found  8 space group operations
 (whereof  4 operations were pure point group operations)
 out of a pool of 16 trial point group operations.


The static configuration has the point symmetry C_2v.
 The point group associated with its full space group is D_2h.


Analysis of symmetry for dynamics (positions and initial velocities):
=====================================================================
 Subroutine PRICEL returns:
 Original cell was already a primitive cell.
 

 Routine SETGRP: Setting up the symmetry group for a 
 simple tetragonal supercell.


 Subroutine GETGRP returns: Found  8 space group operations
 (whereof  4 operations were pure point group operations)
 out of a pool of 16 trial point group operations.


The dynamic configuration has the point symmetry C_2v.
 The point group associated with its full space group is D_2h.


 Subroutine INISYM returns: Found  8 space group operations
 (whereof  4 operations are pure point group operations),
 and found     1 'primitive' translations


----------------------------------------------------------------------------------------

                                     Primitive cell                                     

  volume of cell :    9881.6133

  direct lattice vectors                    reciprocal lattice vectors
    21.138852197  0.000000000  0.000000000     0.047306258  0.000000000  0.000000000
     0.000000000 21.138852197  0.000000000     0.000000000  0.047306258  0.000000000
     0.000000000  0.000000000 22.113885220     0.000000000  0.000000000  0.045220457

  length of vectors
    21.138852197 21.138852197 22.113885220     0.047306258  0.047306258  0.045220457

  position of ions in fractional coordinates (direct lattice)
     0.543282734  0.456717266  0.625334806
     0.456717266  0.543282734  0.625334806

  ion indices of the primitive-cell ions
   primitive index   ion index
                 1           1
                 2           2

----------------------------------------------------------------------------------------



 KPOINTS: KPOINTS created by Atomic Simulation Env

Automatic generation of k-mesh.
 Grid dimensions read from file:
 generate k-points for:    4    4    1

 Generating k-lattice:

  Cartesian coordinates                     Fractional coordinates (reciprocal lattice)
     0.011826565  0.000000000  0.000000000     0.250000000  0.000000000  0.000000000
     0.000000000  0.011826565  0.000000000     0.000000000  0.250000000  0.000000000
     0.000000000  0.000000000  0.045220457     0.000000000  0.000000000  1.000000000

  Length of vectors
     0.011826565  0.011826565  0.045220457

  Shift w.r.t. Gamma in fractional coordinates (k-lattice)
     0.500000000  0.500000000  0.000000000

 
 Subroutine IBZKPT returns following result:
 ===========================================
 
 Found      6 irreducible k-points:
 
 Following reciprocal coordinates:
            Coordinates               Weight
  0.125000  0.125000  0.000000      2.000000
 -0.125000  0.125000  0.000000      2.000000
  0.375000  0.125000  0.000000      4.000000
 -0.125000  0.375000  0.000000      4.000000
  0.375000  0.375000  0.000000      2.000000
 -0.375000  0.375000  0.000000      2.000000
 
 Following cartesian coordinates:
            Coordinates               Weight
  0.005913  0.005913  0.000000      2.000000
 -0.005913  0.005913  0.000000      2.000000
  0.017740  0.005913  0.000000      4.000000
 -0.005913  0.017740  0.000000      4.000000
  0.017740  0.017740  0.000000      2.000000
 -0.017740  0.017740  0.000000      2.000000
 


--------------------------------------------------------------------------------------------------------




 Dimension of arrays:
   k-points           NKPTS =      6   k-points in BZ     NKDIM =      6   number of bands    NBANDS=     64
   number of dos      NEDOS =    301   number of ions     NIONS =      2
   non local maximal  LDIM  =      6   non local SUM 2l+1 LMDIM =     18
   total plane-waves  NPLWV = ******
   max r-space proj   IRMAX =   5559   max aug-charges    IRDMAX=  21597
   dimension x,y,z NGX =   160 NGY =  160 NGZ =  168
   dimension x,y,z NGXF=   320 NGYF=  320 NGZF=  336
   support grid    NGXF=   320 NGYF=  320 NGZF=  336
   ions per type =               2
   NGX,Y,Z   is equivalent  to a cutoff of  12.58, 12.58, 12.63 a.u.
   NGXF,Y,Z  is equivalent  to a cutoff of  25.17, 25.17, 25.26 a.u.

 SYSTEM =  MgO-rocksalt                            
 POSCAR =  Ag                                      

 Startparameter for this run:
   NWRITE =      2    write-flag & timer
   PREC   = accura    normal or accurate (medium, high low for compatibility)
   ISTART =      0    job   : 0-new  1-cont  2-samecut
   ICHARG =      2    charge: 1-file 2-atom 10-const
   ISPIN  =      1    spin polarized calculation?
   LNONCOLLINEAR =      F non collinear calculations
   LSORBIT =      F    spin-orbit coupling
   INIWAV =      1    electr: 0-lowe 1-rand  2-diag
   LASPH  =      T    aspherical Exc in radial PAW
 Electronic Relaxation 1
   ENCUT  =  520.0 eV  38.22 Ry    6.18 a.u.  39.30 39.30 41.12*2*pi/ulx,y,z
   ENINI  =  520.0     initial cutoff
   ENAUG  =  412.5 eV  augmentation charge cutoff
   NELM   =    200;   NELMIN=  8; NELMDL= -5     # of ELM steps 
   EDIFF  = 0.1E-05   stopping-criterion for ELM
   LREAL  =      T    real-space projection
   NLSPLINE    = F    spline interpolate recip. space projectors
   LCOMPAT=      F    compatible to vasp.4.4
   GGA_COMPAT  = T    GGA compatible to vasp.4.4-vasp.4.6
   LMAXPAW     = -100 max onsite density
   LMAXMIX     =    2 max onsite mixed and CHGCAR
   VOSKOWN=      0    Vosko Wilk Nusair interpolation
   ROPT   =   -0.00025
 Ionic relaxation
   EDIFFG = 0.1E-04   stopping-criterion for IOM
   NSW    =      0    number of steps for IOM
   NBLOCK =      1;   KBLOCK =      1    inner block; outer block 
   IBRION =     -1    ionic relax: 0-MD 1-quasi-New 2-CG
   NFREE  =      0    steps in history (QN), initial steepest desc. (CG)
   ISIF   =      2    stress and relaxation
   IWAVPR =     10    prediction:  0-non 1-charg 2-wave 3-comb
   ISYM   =      2    0-nonsym 1-usesym 2-fastsym
   LCORR  =      T    Harris-Foulkes like correction to forces

   POTIM  = 0.5000    time-step for ionic-motion
   TEIN   =    0.0    initial temperature
   TEBEG  =    0.0;   TEEND  =   0.0 temperature during run
   SMASS  =  -3.00    Nose mass-parameter (am)
   estimated Nose-frequenzy (Omega)   =  0.10E-29 period in steps = 0.13E+47 mass=  -0.102E-25a.u.
   SCALEE = 1.0000    scale energy and forces
   NPACO  =    256;   APACO  = 10.0  distance and # of slots for P.C.
   PSTRESS=    0.0 pullay stress

  Mass of Ions in am
   POMASS = 107.87
  Ionic Valenz
   ZVAL   =  11.00
  Atomic Wigner-Seitz radii
   RWIGS  =  -1.00
  virtual crystal weights 
   VCA    =   1.00
   NELECT =      22.0000    total number of electrons
   NUPDOWN=      -1.0000    fix difference up-down

 DOS related values:
   EMIN   =  10.00;   EMAX   =-10.00  energy-range for DOS
   EFERMI =   0.00
   ISMEAR =     0;   SIGMA  =   0.05  broadening in eV -4-tet -1-fermi 0-gaus

 Electronic relaxation 2 (details)
   IALGO  =     58    algorithm
   LDIAG  =      T    sub-space diagonalisation (order eigenvalues)
   LSUBROT=      F    optimize rotation matrix (better conditioning)
   TURBO    =      0    0=normal 1=particle mesh
   IRESTART =      0    0=no restart 2=restart with 2 vectors
   NREBOOT  =      0    no. of reboots
   NMIN     =      0    reboot dimension
   EREF     =   0.00    reference energy to select bands
   IMIX   =      4    mixing-type and parameters
     AMIX     =   0.40;   BMIX     =  1.00
     AMIX_MAG =   1.60;   BMIX_MAG =  1.00
     AMIN     =   0.10
     WC   =   100.;   INIMIX=   1;  MIXPRE=   1;  MAXMIX= -45

 Intra band minimization:
   WEIMIN = 0.0000     energy-eigenvalue tresh-hold
   EBREAK =  0.39E-08  absolut break condition
   DEPER  =   0.30     relativ break condition  

   TIME   =   0.40     timestep for ELM

  volume/ion in A,a.u.               =    4940.81     33342.21
  Fermi-wavevector in a.u.,A,eV,Ry     =   0.213767  0.403960  0.621734  0.045696
  Thomas-Fermi vector in A             =   0.985879

 Write flags
   LWAVE        =      F    write WAVECAR
   LDOWNSAMPLE  =      F    k-point downsampling of WAVECAR
   LCHARG       =      F    write CHGCAR
   LVTOT        =      F    write LOCPOT, total local potential
   LVHAR        =      F    write LOCPOT, Hartree potential only
   LELF         =      F    write electronic localiz. function (ELF)
   LORBIT       =      0    0 simple, 1 ext, 2 COOP (PROOUT), +10 PAW based schemes


 Dipole corrections
   LMONO  =      F    monopole corrections only (constant potential shift)
   LDIPOL =      T    correct potential (dipole corrections)
   IDIPOL =      3    1-x, 2-y, 3-z, 4-all directions 
   EPSILON=  1.0000000 bulk dielectric constant

 Exchange correlation treatment:
   GGA     =    PE    GGA type
   LEXCH   =     8    internal setting for exchange type
   LIBXC   =     F    Libxc                    
   VOSKOWN =     0    Vosko Wilk Nusair interpolation
   LHFCALC =     F    Hartree Fock is set to
   LHFONE  =     F    Hartree Fock one center treatment
   AEXX    =    0.0000 exact exchange contribution

 Linear response parameters
   LEPSILON=     F    determine dielectric tensor
   LRPA    =     F    only Hartree local field effects (RPA)
   LNABLA  =     F    use nabla operator in PAW spheres
   LVEL    =     F    velocity operator in full k-point grid
   CSHIFT  =0.1000    complex shift for real part using Kramers Kronig
   OMEGAMAX=  -1.0    maximum frequency
   DEG_THRESHOLD= 0.2000000E-02 threshold for treating states as degnerate
   RTIME   =   -0.100 relaxation time in fs
  (WPLASMAI=    0.000 imaginary part of plasma frequency in eV, 0.658/RTIME)
   DFIELD  = 0.0000000 0.0000000 0.0000000 field for delta impulse in time

  Optional k-point grid parameters
   LKPOINTS_OPT  =     F    use optional k-point grid
   KPOINTS_OPT_MODE=     1    mode for optional k-point grid

 Orbital magnetization related:
   ORBITALMAG=     F  switch on orbital magnetization
   LCHIMAG   =     F  perturbation theory with respect to B field
   DQ        =  0.001000  dq finite difference perturbation B field
   LLRAUG    =     F  two centre corrections for induced B field



--------------------------------------------------------------------------------------------------------


 Static calculation
 charge density and potential will be updated during run
 non-spin polarized calculation
 Conjugate gradient for all bands (Freysoldt, et al. PRB 79, 241103 (2009))
 preconditioned conjugated gradient                                        
 perform sub-space diagonalisation
    before iterative eigenvector-optimisation
 modified Broyden-mixing scheme, WC =      100.0
 initial mixing is a Kerker type mixing with AMIX =  0.4000 and BMIX =      1.0000
 Hartree-type preconditioning will be used
 using additional bands           53
 real space projection scheme for non local part
 use partial core corrections
 no Harris-corrections to forces 
 use gradient corrections 
 use of overlap-Matrix (Vanderbilt PP)
 Gauss-broadening in eV      SIGMA  =   0.05


--------------------------------------------------------------------------------------------------------


  energy-cutoff  :      520.00
  volume of cell :     9881.61
      direct lattice vectors                 reciprocal lattice vectors
    21.138852197  0.000000000  0.000000000     0.047306258  0.000000000  0.000000000
     0.000000000 21.138852197  0.000000000     0.000000000  0.047306258  0.000000000
     0.000000000  0.000000000 22.113885220     0.000000000  0.000000000  0.045220457

  length of vectors
    21.138852197 21.138852197 22.113885220     0.047306258  0.047306258  0.045220457



 k-points in units of 2pi/SCALE and weight: KPOINTS created by Atomic Simulation Env
   0.00591328  0.00591328  0.00000000       0.125
  -0.00591328  0.00591328  0.00000000       0.125
   0.01773985  0.00591328  0.00000000       0.250
  -0.00591328  0.01773985  0.00000000       0.250
   0.01773985  0.01773985  0.00000000       0.125
  -0.01773985  0.01773985  0.00000000       0.125

 k-points in reciprocal lattice and weights: KPOINTS created by Atomic Simulation Env
   0.12500000  0.12500000  0.00000000       0.125
  -0.12500000  0.12500000  0.00000000       0.125
   0.37500000  0.12500000  0.00000000       0.250
  -0.12500000  0.37500000  0.00000000       0.250
   0.37500000  0.37500000  0.00000000       0.125
  -0.37500000  0.37500000  0.00000000       0.125

 position of ions in fractional coordinates (direct lattice) 
   0.54328273  0.45671727  0.62533481
   0.45671727  0.54328273  0.62533481

 position of ions in cartesian coordinates  (Angst):
  11.48437342  9.65447878 13.82858213
   9.65447878 11.48437342 13.82858213



--------------------------------------------------------------------------------------------------------


 k-point   1 :   0.1250 0.1250 0.0000  plane waves:  265995
 k-point   2 :  -0.1250 0.1250 0.0000  plane waves:  265995
 k-point   3 :   0.3750 0.1250 0.0000  plane waves:  266023
 k-point   4 :  -0.1250 0.3750 0.0000  plane waves:  266023
 k-point   5 :   0.3750 0.3750 0.0000  plane waves:  266046
 k-point   6 :  -0.3750 0.3750 0.0000  plane waves:  266046

 maximum and minimum number of plane-waves per node :     66546    66475

 maximum number of plane-waves:    266046
 maximum index in each direction: 
   IXMAX=   39   IYMAX=   39   IZMAX=   41
   IXMIN=  -39   IYMIN=  -39   IZMIN=  -41


 real space projection operators:
  total allocation   :       1504.97 KBytes
  max/ min on nodes  :        376.88        374.34


 parallel 3D FFT for wavefunctions:
    minimum data exchange during FFTs selected (reduces bandwidth)
 parallel 3D FFT for charge:
    minimum data exchange during FFTs selected (reduces bandwidth)


 total amount of memory used by VASP MPI-rank0   141752. kBytes
=======================================================================

   base      :      30000. kBytes
   nonlr-proj:        647. kBytes
   fftplans  :      38432. kBytes
   grid      :      53473. kBytes
   one-center:         15. kBytes
   wavefun   :      19185. kBytes

     INWAV:  cpu time      0.0001: real time      0.0002
 Broyden mixing: mesh for mixing (old mesh)
   NGX = 79   NGY = 79   NGZ = 83
  (NGX  =320   NGY  =320   NGZ  =336)
  gives a total of 518003 points

 initial charge density was supplied:
 charge density of overlapping atoms calculated
 number of electron      22.0000000 magnetization 
 keeping initial charge density in first step


--------------------------------------------------------------------------------------------------------


 Maximum index for non-local projection operator         1331
 Maximum index for augmentation-charges            0 (set IRDMAX)


--------------------------------------------------------------------------------------------------------


 First call to EWALD:  gamma=   0.083
 Maximum number of real-space cells 3x 3x 3
 Maximum number of reciprocal cells 3x 3x 3

    FEWALD:  cpu time      0.0007: real time      0.0007


--------------------------------------- Iteration      1(   1)  ---------------------------------------


    POTLOK:  cpu time      0.1882: real time      0.1885
    SETDIJ:  cpu time      0.1137: real time      0.1139
    TRIAL :  cpu time      1.2445: real time      1.2451
    CORREC:  cpu time      0.0013: real time      0.0013
    --------------------------------------------
      LOOP:  cpu time      1.5539: real time      1.5551

 eigenvalue-minimisations  :   768
 total energy-change (2. order) : 0.1546205E+03  (-0.3827618E+03)
 number of electron      22.0000000 magnetization 
 augmentation part       22.0000000 magnetization 

 DIPCOR: dipole corrections for dipol
 direction  3 min pos     1,
 dipolmoment           0.000000      0.000000     -0.000013 electrons x Angstroem
 Tr[quadrupol]     -4099.495593

 energy correction for charged system         0.000000 eV
 dipol+quadrupol energy correction           -0.000000 eV
 added-field ion interaction          0.000016 eV  (added to PSCEN)


 Free energy of the ion-electron system (eV)
  ---------------------------------------------------
  alpha Z        PSCENC =         0.34432352
  Ewald energy   TEWEN  =       215.47733292
  -Hartree energ DENC   =     -2197.73572706
  -exchange      EXHF   =         0.00000000
  -V(xc)+E(xc)   XCENC  =       -23.77555904
  PAW double counting   =      2006.92429865    -1914.69854846
  entropy T*S    EENTRO =        -0.04202550
  eigenvalues    EBANDS =        -6.39918534
  atomic energy  EATOM  =      2074.52556292
  ---------------------------------------------------
  free energy    TOTEN  =       154.62047261 eV

  energy without entropy =      154.66249811  energy(sigma->0) =      154.64148536


--------------------------------------------------------------------------------------------------------




--------------------------------------- Iteration      1(   2)  ---------------------------------------


    TRIAL :  cpu time      2.7696: real time      2.7702
    CORREC:  cpu time      0.0003: real time      0.0003
    --------------------------------------------
      LOOP:  cpu time      2.7756: real time      2.7831

 eigenvalue-minimisations  :  1536
 total energy-change (2. order) :-0.1494646E+03  (-0.1482284E+03)
 number of electron      22.0000000 magnetization 
 augmentation part       22.0000000 magnetization 

 DIPCOR: dipole corrections for dipol
 direction  3 min pos     1,
 dipolmoment           0.000000      0.000000     -0.000013 electrons x Angstroem
 Tr[quadrupol]     -4099.495593

 energy correction for charged system         0.000000 eV
 dipol+quadrupol energy correction           -0.000000 eV
 added-field ion interaction          0.000016 eV  (added to PSCEN)


 Free energy of the ion-electron system (eV)
  ---------------------------------------------------
  alpha Z        PSCENC =         0.34432352
  Ewald energy   TEWEN  =       215.47733292
  -Hartree energ DENC   =     -2197.73572706
  -exchange      EXHF   =         0.00000000
  -V(xc)+E(xc)   XCENC  =       -23.77555904
  PAW double counting   =      2006.92429865    -1914.69854846
  entropy T*S    EENTRO =        -0.00000000
  eigenvalues    EBANDS =      -155.90577867
  atomic energy  EATOM  =      2074.52556292
  ---------------------------------------------------
  free energy    TOTEN  =         5.15590478 eV

  energy without entropy =        5.15590478  energy(sigma->0) =        5.15590478


--------------------------------------------------------------------------------------------------------




--------------------------------------- Iteration      1(   3)  ---------------------------------------


    TRIAL :  cpu time      1.2517: real time      1.2521
    CORREC:  cpu time      0.0003: real time      0.0003
    --------------------------------------------
      LOOP:  cpu time      1.2566: real time      1.2649

 eigenvalue-minimisations  :   768
 total energy-change (2. order) :-0.7530343E+01  (-0.7530343E+01)
 number of electron      22.0000000 magnetization 
 augmentation part       22.0000000 magnetization 

 DIPCOR: dipole corrections for dipol
 direction  3 min pos     1,
 dipolmoment           0.000000      0.000000     -0.000013 electrons x Angstroem
 Tr[quadrupol]     -4099.495593

 energy correction for charged system         0.000000 eV
 dipol+quadrupol energy correction           -0.000000 eV
 added-field ion interaction          0.000016 eV  (added to PSCEN)


 Free energy of the ion-electron system (eV)
  ---------------------------------------------------
  alpha Z        PSCENC =         0.34432352
  Ewald energy   TEWEN  =       215.47733292
  -Hartree energ DENC   =     -2197.73572706
  -exchange      EXHF   =         0.00000000
  -V(xc)+E(xc)   XCENC  =       -23.77555904
  PAW double counting   =      2006.92429865    -1914.69854846
  entropy T*S    EENTRO =        -0.00000000
  eigenvalues    EBANDS =      -163.43612146
  atomic energy  EATOM  =      2074.52556292
  ---------------------------------------------------
  free energy    TOTEN  =        -2.37443801 eV

  energy without entropy =       -2.37443801  energy(sigma->0) =       -2.37443801


--------------------------------------------------------------------------------------------------------




--------------------------------------- Iteration      1(   4)  ---------------------------------------


    TRIAL :  cpu time      1.4627: real time      1.4630
    CORREC:  cpu time      0.0003: real time      0.0003
    --------------------------------------------
      LOOP:  cpu time      1.4755: real time      1.4761

 eigenvalue-minimisations  :   832
 total energy-change (2. order) :-0.3806381E-01  (-0.3806381E-01)
 number of electron      22.0000000 magnetization 
 augmentation part       22.0000000 magnetization 

 DIPCOR: dipole corrections for dipol
 direction  3 min pos     1,
 dipolmoment           0.000000      0.000000     -0.000013 electrons x Angstroem
 Tr[quadrupol]     -4099.495593

 energy correction for charged system         0.000000 eV
 dipol+quadrupol energy correction           -0.000000 eV
 added-field ion interaction          0.000016 eV  (added to PSCEN)


 Free energy of the ion-electron system (eV)
  ---------------------------------------------------
  alpha Z        PSCENC =         0.34432352
  Ewald energy   TEWEN  =       215.47733292
  -Hartree energ DENC   =     -2197.73572706
  -exchange      EXHF   =         0.00000000
  -V(xc)+E(xc)   XCENC  =       -23.77555904
  PAW double counting   =      2006.92429865    -1914.69854846
  entropy T*S    EENTRO =        -0.00000000
  eigenvalues    EBANDS =      -163.47418527
  atomic energy  EATOM  =      2074.52556292
  ---------------------------------------------------
  free energy    TOTEN  =        -2.41250183 eV

  energy without entropy =       -2.41250183  energy(sigma->0) =       -2.41250183


--------------------------------------------------------------------------------------------------------




--------------------------------------- Iteration      1(   5)  ---------------------------------------


    TRIAL :  cpu time      2.7308: real time      2.7318
    CORREC:  cpu time      0.0003: real time      0.0003
    CHARGE:  cpu time      0.6572: real time      0.6583
    --------------------------------------------
      LOOP:  cpu time      3.4008: real time      3.4030

 eigenvalue-minimisations  :  1536
 total energy-change (2. order) :-0.5961106E-03  (-0.5961104E-03)
 number of electron      22.0000006 magnetization 
 augmentation part       10.6249251 magnetization 

 DIPCOR: dipole corrections for dipol
 direction  3 min pos     1,
 dipolmoment           0.000000      0.000000     -0.000013 electrons x Angstroem
 Tr[quadrupol]     -4099.495593

 energy correction for charged system         0.000000 eV
 dipol+quadrupol energy correction           -0.000000 eV
 added-field ion interaction          0.000016 eV  (added to PSCEN)


 Free energy of the ion-electron system (eV)
  ---------------------------------------------------
  alpha Z        PSCENC =         0.34432352
  Ewald energy   TEWEN  =       215.47733292
  -Hartree energ DENC   =     -2197.73572706
  -exchange      EXHF   =         0.00000000
  -V(xc)+E(xc)   XCENC  =       -23.77555904
  PAW double counting   =      2006.92429865    -1914.69854846
  entropy T*S    EENTRO =        -0.00000000
  eigenvalues    EBANDS =      -163.47478138
  atomic energy  EATOM  =      2074.52556292
  ---------------------------------------------------
  free energy    TOTEN  =        -2.41309794 eV

  energy without entropy =       -2.41309794  energy(sigma->0) =       -2.41309794


--------------------------------------------------------------------------------------------------------




--------------------------------------- Iteration      1(   6)  ---------------------------------------


    POTLOK:  cpu time      0.1534: real time      0.1534
    SETDIJ:  cpu time      0.1108: real time      0.1108
    TRIAL :  cpu time      0.7042: real time      0.7048
    CORREC:  cpu time      0.9805: real time      0.9811
    CHARGE:  cpu time      0.4964: real time      0.4966
    --------------------------------------------
      LOOP:  cpu time      2.4580: real time      2.4600

 eigenvalue-minimisations  :     0
 total energy-change (2. order) : 0.5579778E+00  (-0.2716095E+00)
 number of electron      22.0000006 magnetization 
 augmentation part       10.6658596 magnetization 

 DIPCOR: dipole corrections for dipol
 direction  3 min pos     1,
 dipolmoment           0.000000      0.000000     -0.000277 electrons x Angstroem
 Tr[quadrupol]     -4099.526859

 energy correction for charged system         0.000000 eV
 dipol+quadrupol energy correction           -0.000000 eV
 added-field ion interaction          0.000334 eV  (added to PSCEN)


 Free energy of the ion-electron system (eV)
  ---------------------------------------------------
  alpha Z        PSCENC =         0.34430629
  Ewald energy   TEWEN  =       215.47733292
  -Hartree energ DENC   =     -2210.73125593
  -exchange      EXHF   =         0.00000000
  -V(xc)+E(xc)   XCENC  =       -23.69828654
  PAW double counting   =      2095.38451629    -2004.63945231
  entropy T*S    EENTRO =        -0.00000000
  eigenvalues    EBANDS =      -148.51784376
  atomic energy  EATOM  =      2074.52556292
  ---------------------------------------------------
  free energy    TOTEN  =        -1.85512014 eV

  energy without entropy =       -1.85512014  energy(sigma->0) =       -1.85512014


--------------------------------------------------------------------------------------------------------




--------------------------------------- Iteration      1(   7)  ---------------------------------------


    POTLOK:  cpu time      0.1632: real time      0.1632
    SETDIJ:  cpu time      0.1118: real time      0.1118
    TRIAL :  cpu time      0.6948: real time      0.6948
    CORREC:  cpu time      0.9800: real time      0.9802
    CHARGE:  cpu time      0.4958: real time      0.4960
    --------------------------------------------
      LOOP:  cpu time      2.4503: real time      2.4591

 eigenvalue-minimisations  :     0
 total energy-change (2. order) :-0.2716411E+00  (-0.3355194E-01)
 number of electron      22.0000006 magnetization 
 augmentation part       10.6630820 magnetization 

 DIPCOR: dipole corrections for dipol
 direction  3 min pos     1,
 dipolmoment           0.000000      0.000000     -0.000253 electrons x Angstroem
 Tr[quadrupol]     -4099.522394

 energy correction for charged system         0.000000 eV
 dipol+quadrupol energy correction           -0.000000 eV
 added-field ion interaction          0.000305 eV  (added to PSCEN)


 Free energy of the ion-electron system (eV)
  ---------------------------------------------------
  alpha Z        PSCENC =         0.34476423
  Ewald energy   TEWEN  =       215.47733292
  -Hartree energ DENC   =     -2205.46786655
  -exchange      EXHF   =         0.00000000
  -V(xc)+E(xc)   XCENC  =       -23.72276797
  PAW double counting   =      2086.10550682    -1995.28496459
  entropy T*S    EENTRO =        -0.00000000
  eigenvalues    EBANDS =      -154.10432902
  atomic energy  EATOM  =      2074.52556292
  ---------------------------------------------------
  free energy    TOTEN  =        -2.12676126 eV

  energy without entropy =       -2.12676126  energy(sigma->0) =       -2.12676126


--------------------------------------------------------------------------------------------------------




--------------------------------------- Iteration      1(   8)  ---------------------------------------


    POTLOK:  cpu time      0.1670: real time      0.1670
    SETDIJ:  cpu time      0.1085: real time      0.1085
    TRIAL :  cpu time      0.6943: real time      0.6945
    CORREC:  cpu time      0.9799: real time      0.9801
    CHARGE:  cpu time      0.4985: real time      0.4985
    --------------------------------------------
      LOOP:  cpu time      2.4616: real time      2.4622

 eigenvalue-minimisations  :     0
 total energy-change (2. order) :-0.3344248E-01  (-0.7635217E-02)
 number of electron      22.0000006 magnetization 
 augmentation part       10.6710274 magnetization 

 DIPCOR: dipole corrections for dipol
 direction  3 min pos     1,
 dipolmoment           0.000000      0.000000     -0.000041 electrons x Angstroem
 Tr[quadrupol]     -4099.529882

 energy correction for charged system         0.000000 eV
 dipol+quadrupol energy correction           -0.000000 eV
 added-field ion interaction          0.000049 eV  (added to PSCEN)


 Free energy of the ion-electron system (eV)
  ---------------------------------------------------
  alpha Z        PSCENC =         0.34446127
  Ewald energy   TEWEN  =       215.47733292
  -Hartree energ DENC   =     -2203.83158757
  -exchange      EXHF   =         0.00000000
  -V(xc)+E(xc)   XCENC  =       -23.75315375
  PAW double counting   =      2082.02701870    -1991.16682247
  entropy T*S    EENTRO =        -0.00000000
  eigenvalues    EBANDS =      -155.78301575
  atomic energy  EATOM  =      2074.52556292
  ---------------------------------------------------
  free energy    TOTEN  =        -2.16020374 eV

  energy without entropy =       -2.16020374  energy(sigma->0) =       -2.16020374


--------------------------------------------------------------------------------------------------------




--------------------------------------- Iteration      1(   9)  ---------------------------------------


    POTLOK:  cpu time      0.1623: real time      0.1624
    SETDIJ:  cpu time      0.1094: real time      0.1094
    TRIAL :  cpu time      0.6954: real time      0.6954
    CORREC:  cpu time      0.9658: real time      0.9659
    CHARGE:  cpu time      0.4977: real time      0.4979
    --------------------------------------------
      LOOP:  cpu time      2.4356: real time      2.4441

 eigenvalue-minimisations  :     0
 total energy-change (2. order) :-0.7611056E-02  (-0.1335795E-02)
 number of electron      22.0000006 magnetization 
 augmentation part       10.6643754 magnetization 

 DIPCOR: dipole corrections for dipol
 direction  3 min pos     1,
 dipolmoment           0.000000      0.000000     -0.000000 electrons x Angstroem
 Tr[quadrupol]     -4099.528758

 energy correction for charged system         0.000000 eV
 dipol+quadrupol energy correction           -0.000000 eV
 added-field ion interaction          0.000000 eV  (added to PSCEN)


 Free energy of the ion-electron system (eV)
  ---------------------------------------------------
  alpha Z        PSCENC =         0.34431453
  Ewald energy   TEWEN  =       215.47733292
  -Hartree energ DENC   =     -2204.39413900
  -exchange      EXHF   =         0.00000000
  -V(xc)+E(xc)   XCENC  =       -23.73285440
  PAW double counting   =      2082.96349154    -1992.07697355
  entropy T*S    EENTRO =        -0.00000000
  eigenvalues    EBANDS =      -155.27454975
  atomic energy  EATOM  =      2074.52556292
  ---------------------------------------------------
  free energy    TOTEN  =        -2.16781479 eV

  energy without entropy =       -2.16781479  energy(sigma->0) =       -2.16781479


--------------------------------------------------------------------------------------------------------




--------------------------------------- Iteration      1(  10)  ---------------------------------------


    POTLOK:  cpu time      0.1542: real time      0.1542
    SETDIJ:  cpu time      0.1095: real time      0.1095
    TRIAL :  cpu time      0.6947: real time      0.6948
    CORREC:  cpu time      0.9637: real time      0.9639
    CHARGE:  cpu time      0.4980: real time      0.4981
    --------------------------------------------
      LOOP:  cpu time      2.4253: real time      2.4344

 eigenvalue-minimisations  :     0
 total energy-change (2. order) :-0.1339434E-02  (-0.3847762E-03)
 number of electron      22.0000006 magnetization 
 augmentation part       10.6689656 magnetization 

 DIPCOR: dipole corrections for dipol
 direction  3 min pos     1,
 dipolmoment           0.000000      0.000000      0.000000 electrons x Angstroem
 Tr[quadrupol]     -4099.530156

 energy correction for charged system         0.000000 eV
 dipol+quadrupol energy correction           -0.000000 eV
 added-field ion interaction         -0.000000 eV  (added to PSCEN)


 Free energy of the ion-electron system (eV)
  ---------------------------------------------------
  alpha Z        PSCENC =         0.34430717
  Ewald energy   TEWEN  =       215.47733292
  -Hartree energ DENC   =     -2203.09861827
  -exchange      EXHF   =         0.00000000
  -V(xc)+E(xc)   XCENC  =       -23.76990047
  PAW double counting   =      2081.57658927    -1990.65641365
  entropy T*S    EENTRO =        -0.00000000
  eigenvalues    EBANDS =      -156.56801412
  atomic energy  EATOM  =      2074.52556292
  ---------------------------------------------------
  free energy    TOTEN  =        -2.16915423 eV

  energy without entropy =       -2.16915423  energy(sigma->0) =       -2.16915423


--------------------------------------------------------------------------------------------------------




--------------------------------------- Iteration      1(  11)  ---------------------------------------


    POTLOK:  cpu time      0.1587: real time      0.1587
    SETDIJ:  cpu time      0.1052: real time      0.1052
    TRIAL :  cpu time      0.6947: real time      0.6948
    CORREC:  cpu time      0.9638: real time      0.9640
    CHARGE:  cpu time      0.4957: real time      0.4958
    --------------------------------------------
      LOOP:  cpu time      2.4243: real time      2.4330

 eigenvalue-minimisations  :     0
 total energy-change (2. order) :-0.3835350E-03  (-0.9302694E-04)
 number of electron      22.0000006 magnetization 
 augmentation part       10.6679630 magnetization 

 DIPCOR: dipole corrections for dipol
 direction  3 min pos     1,
 dipolmoment           0.000000      0.000000      0.000001 electrons x Angstroem
 Tr[quadrupol]     -4099.529863

 energy correction for charged system         0.000000 eV
 dipol+quadrupol energy correction           -0.000000 eV
 added-field ion interaction         -0.000001 eV  (added to PSCEN)


 Free energy of the ion-electron system (eV)
  ---------------------------------------------------
  alpha Z        PSCENC =         0.34430720
  Ewald energy   TEWEN  =       215.47733292
  -Hartree energ DENC   =     -2203.74194571
  -exchange      EXHF   =         0.00000000
  -V(xc)+E(xc)   XCENC  =       -23.75113515
  PAW double counting   =      2082.02033104    -1991.10520482
  entropy T*S    EENTRO =        -0.00000000
  eigenvalues    EBANDS =      -155.93878617
  atomic energy  EATOM  =      2074.52556292
  ---------------------------------------------------
  free energy    TOTEN  =        -2.16953776 eV

  energy without entropy =       -2.16953776  energy(sigma->0) =       -2.16953776


--------------------------------------------------------------------------------------------------------




--------------------------------------- Iteration      1(  12)  ---------------------------------------


    POTLOK:  cpu time      0.1548: real time      0.1548
    SETDIJ:  cpu time      0.1097: real time      0.1097
    TRIAL :  cpu time      0.6960: real time      0.6962
    CORREC:  cpu time      0.9618: real time      0.9620
    CHARGE:  cpu time      0.4965: real time      0.4965
    --------------------------------------------
      LOOP:  cpu time      2.4228: real time      2.4318

 eigenvalue-minimisations  :     0
 total energy-change (2. order) :-0.9395753E-04  (-0.1397319E-04)
 number of electron      22.0000006 magnetization 
 augmentation part       10.6682196 magnetization 

 DIPCOR: dipole corrections for dipol
 direction  3 min pos     1,
 dipolmoment           0.000000      0.000000      0.000001 electrons x Angstroem
 Tr[quadrupol]     -4099.529416

 energy correction for charged system         0.000000 eV
 dipol+quadrupol energy correction           -0.000000 eV
 added-field ion interaction         -0.000001 eV  (added to PSCEN)


 Free energy of the ion-electron system (eV)
  ---------------------------------------------------
  alpha Z        PSCENC =         0.34430669
  Ewald energy   TEWEN  =       215.47733292
  -Hartree energ DENC   =     -2203.55809279
  -exchange      EXHF   =         0.00000000
  -V(xc)+E(xc)   XCENC  =       -23.75652968
  PAW double counting   =      2081.57880031    -1990.65994163
  entropy T*S    EENTRO =        -0.00000000
  eigenvalues    EBANDS =      -156.12107046
  atomic energy  EATOM  =      2074.52556292
  ---------------------------------------------------
  free energy    TOTEN  =        -2.16963172 eV

  energy without entropy =       -2.16963172  energy(sigma->0) =       -2.16963172


--------------------------------------------------------------------------------------------------------




--------------------------------------- Iteration      1(  13)  ---------------------------------------


    POTLOK:  cpu time      0.1558: real time      0.1558
    SETDIJ:  cpu time      0.1071: real time      0.1071
    TRIAL :  cpu time      0.6939: real time      0.6941
    CORREC:  cpu time      0.9641: real time      0.9646
    CHARGE:  cpu time      0.4966: real time      0.4968
    --------------------------------------------
      LOOP:  cpu time      2.4224: real time      2.4317

 eigenvalue-minimisations  :     0
 total energy-change (2. order) :-0.1370684E-04  (-0.1454200E-05)
 number of electron      22.0000006 magnetization 
 augmentation part       10.6680635 magnetization 

 DIPCOR: dipole corrections for dipol
 direction  3 min pos     1,
 dipolmoment           0.000000      0.000000      0.000001 electrons x Angstroem
 Tr[quadrupol]     -4099.529440

 energy correction for charged system         0.000000 eV
 dipol+quadrupol energy correction           -0.000000 eV
 added-field ion interaction         -0.000001 eV  (added to PSCEN)


 Free energy of the ion-electron system (eV)
  ---------------------------------------------------
  alpha Z        PSCENC =         0.34430641
  Ewald energy   TEWEN  =       215.47733292
  -Hartree energ DENC   =     -2203.59760197
  -exchange      EXHF   =         0.00000000
  -V(xc)+E(xc)   XCENC  =       -23.75542354
  PAW double counting   =      2081.50941471    -1990.59111728
  entropy T*S    EENTRO =        -0.00000000
  eigenvalues    EBANDS =      -156.08211960
  atomic energy  EATOM  =      2074.52556292
  ---------------------------------------------------
  free energy    TOTEN  =        -2.16964543 eV

  energy without entropy =       -2.16964543  energy(sigma->0) =       -2.16964543


--------------------------------------------------------------------------------------------------------




--------------------------------------- Iteration      1(  14)  ---------------------------------------


    POTLOK:  cpu time      0.1544: real time      0.1544
    SETDIJ:  cpu time      0.1087: real time      0.1087
    TRIAL :  cpu time      0.6950: real time      0.6952
    CORREC:  cpu time      0.9645: real time      0.9646
    CHARGE:  cpu time      0.4955: real time      0.4956
    --------------------------------------------
      LOOP:  cpu time      2.4236: real time      2.4325

 eigenvalue-minimisations  :     0
 total energy-change (2. order) :-0.1507771E-05  (-0.8196892E-06)
 number of electron      22.0000006 magnetization 
 augmentation part       10.6682322 magnetization 

 DIPCOR: dipole corrections for dipol
 direction  3 min pos     1,
 dipolmoment           0.000000      0.000000      0.000001 electrons x Angstroem
 Tr[quadrupol]     -4099.529544

 energy correction for charged system         0.000000 eV
 dipol+quadrupol energy correction           -0.000000 eV
 added-field ion interaction         -0.000001 eV  (added to PSCEN)


 Free energy of the ion-electron system (eV)
  ---------------------------------------------------
  alpha Z        PSCENC =         0.34430637
  Ewald energy   TEWEN  =       215.47733292
  -Hartree energ DENC   =     -2203.57548732
  -exchange      EXHF   =         0.00000000
  -V(xc)+E(xc)   XCENC  =       -23.75608896
  PAW double counting   =      2081.45788739    -1990.53918957
  entropy T*S    EENTRO =        -0.00000000
  eigenvalues    EBANDS =      -156.10397067
  atomic energy  EATOM  =      2074.52556292
  ---------------------------------------------------
  free energy    TOTEN  =        -2.16964694 eV

  energy without entropy =       -2.16964694  energy(sigma->0) =       -2.16964694


--------------------------------------------------------------------------------------------------------




--------------------------------------- Iteration      1(  15)  ---------------------------------------


    POTLOK:  cpu time      0.1566: real time      0.1566
    SETDIJ:  cpu time      0.1094: real time      0.1094
    TRIAL :  cpu time      0.6943: real time      0.6944
    CORREC:  cpu time      0.9656: real time      0.9658
    EDDIAG:  cpu time      0.2939: real time      0.2942
    CHARGE:  cpu time      0.4954: real time      0.4956
    --------------------------------------------
      LOOP:  cpu time      2.7288: real time      2.7300

 eigenvalue-minimisations  :     0
 total energy-change (2. order) :-0.3764546E-06  (-0.2583614E-06)
 number of electron      22.0000006 magnetization 
 augmentation part       10.6681265 magnetization 

 DIPCOR: dipole corrections for dipol
 direction  3 min pos     1,
 dipolmoment           0.000000      0.000000      0.000001 electrons x Angstroem
 Tr[quadrupol]     -4099.529497

 energy correction for charged system         0.000000 eV
 dipol+quadrupol energy correction           -0.000000 eV
 added-field ion interaction         -0.000001 eV  (added to PSCEN)


 Free energy of the ion-electron system (eV)
  ---------------------------------------------------
  alpha Z        PSCENC =         0.34430638
  Ewald energy   TEWEN  =       215.47733292
  -Hartree energ DENC   =     -2203.60801708
  -exchange      EXHF   =         0.00000000
  -V(xc)+E(xc)   XCENC  =       -23.75517115
  PAW double counting   =      2081.45177136    -1990.53349759
  entropy T*S    EENTRO =        -0.00000000
  eigenvalues    EBANDS =      -156.07193508
  atomic energy  EATOM  =      2074.52556292
  ---------------------------------------------------
  free energy    TOTEN  =        -2.16964731 eV

  energy without entropy =       -2.16964731  energy(sigma->0) =       -2.16964731


--------------------------------------------------------------------------------------------------------


  average scaling for gradient   1.6360


 average (electrostatic) potential at core
  the test charge radii are     1.1249
  (the norm of the test charge is              1.0000)
       1 -82.0752       2 -82.0752



 E-fermi :  -4.9004     XC(G=0):  -0.1594     alpha+bet : -0.0465

 Fermi energy:        -4.9004243022

 k-point     1 :       0.1250    0.1250    0.0000
  band No.  band energies     occupation 
      1      -8.2644      2.00000
      2      -7.7684      2.00000
      3      -7.7684      2.00000
      4      -7.2764      2.00000
      5      -7.2764      2.00000
      6      -7.0922      2.00000
      7      -7.0922      2.00000
      8      -6.8407      2.00000
      9      -6.8407      2.00000
     10      -6.6915      2.00000
     11      -5.1394      2.00000
     12      -3.1220      0.00000
     13      -1.0796      0.00000
     14      -1.0793      0.00000
     15      -0.6440      0.00000
     16       0.0466      0.00000
     17       0.2225      0.00000
     18       0.2773      0.00000
     19       0.3202      0.00000
     20       0.3231      0.00000
     21       0.3510      0.00000
     22       0.3524      0.00000
     23       0.4608      0.00000
     24       0.5026      0.00000
     25       0.5391      0.00000
     26       0.5885      0.00000
     27       0.5946      0.00000
     28       0.5996      0.00000
     29       0.6474      0.00000
     30       0.6816      0.00000
     31       0.6938      0.00000
     32       0.7290      0.00000
     33       0.7855      0.00000
     34       0.7951      0.00000
     35       0.8049      0.00000
     36       0.8298      0.00000
     37       0.8645      0.00000
     38       0.8845      0.00000
     39       0.9838      0.00000
     40       0.9950      0.00000
     41       1.0006      0.00000
     42       1.1076      0.00000
     43       1.1123      0.00000
     44       1.1246      0.00000
     45       1.2094      0.00000
     46       1.2367      0.00000
     47       1.2517      0.00000
     48       1.2572      0.00000
     49       1.3715      0.00000
     50       1.4158      0.00000
     51       1.4280      0.00000
     52       1.4499      0.00000
     53       1.4857      0.00000
     54       1.4946      0.00000
     55       1.4951      0.00000
     56       1.5074      0.00000
     57       1.5211      0.00000
     58       1.5228      0.00000
     59       1.5629      0.00000
     60       1.5813      0.00000
     61       1.6068      0.00000
     62       1.6143      0.00000
     63       1.6444      0.00000
     64       1.6484      0.00000

 k-point     2 :      -0.1250    0.1250    0.0000
  band No.  band energies     occupation 
      1      -8.2644      2.00000
      2      -7.7684      2.00000
      3      -7.7684      2.00000
      4      -7.2764      2.00000
      5      -7.2764      2.00000
      6      -7.0922      2.00000
      7      -7.0922      2.00000
      8      -6.8407      2.00000
      9      -6.8407      2.00000
     10      -6.6915      2.00000
     11      -5.1394      2.00000
     12      -3.1220      0.00000
     13      -1.0796      0.00000
     14      -1.0793      0.00000
     15      -0.6440      0.00000
     16       0.0425      0.00000
     17       0.2397      0.00000
     18       0.2592      0.00000
     19       0.3097      0.00000
     20       0.3523      0.00000
     21       0.3676      0.00000
     22       0.3740      0.00000
     23       0.4031      0.00000
     24       0.4963      0.00000
     25       0.5268      0.00000
     26       0.5625      0.00000
     27       0.5910      0.00000
     28       0.6396      0.00000
     29       0.6424      0.00000
     30       0.6931      0.00000
     31       0.7161      0.00000
     32       0.7317      0.00000
     33       0.7473      0.00000
     34       0.8104      0.00000
     35       0.8164      0.00000
     36       0.8219      0.00000
     37       0.8583      0.00000
     38       0.9287      0.00000
     39       0.9384      0.00000
     40       1.0112      0.00000
     41       1.0264      0.00000
     42       1.0318      0.00000
     43       1.1308      0.00000
     44       1.1594      0.00000
     45       1.1938      0.00000
     46       1.2493      0.00000
     47       1.2535      0.00000
     48       1.2851      0.00000
     49       1.3676      0.00000
     50       1.3967      0.00000
     51       1.4336      0.00000
     52       1.4345      0.00000
     53       1.4882      0.00000
     54       1.4962      0.00000
     55       1.5008      0.00000
     56       1.5070      0.00000
     57       1.5078      0.00000
     58       1.5158      0.00000
     59       1.5583      0.00000
     60       1.5674      0.00000
     61       1.5922      0.00000
     62       1.5923      0.00000
     63       1.6553      0.00000
     64       1.6679      0.00000

 k-point     3 :       0.3750    0.1250    0.0000
  band No.  band energies     occupation 
      1      -8.2644      2.00000
      2      -7.7684      2.00000
      3      -7.7684      2.00000
      4      -7.2764      2.00000
      5      -7.2764      2.00000
      6      -7.0922      2.00000
      7      -7.0922      2.00000
      8      -6.8407      2.00000
      9      -6.8407      2.00000
     10      -6.6915      2.00000
     11      -5.1394      2.00000
     12      -3.1220      0.00000
     13      -1.0797      0.00000
     14      -1.0793      0.00000
     15      -0.6434      0.00000
     16       0.0849      0.00000
     17       0.1443      0.00000
     18       0.2784      0.00000
     19       0.3069      0.00000
     20       0.3391      0.00000
     21       0.3976      0.00000
     22       0.3986      0.00000
     23       0.4196      0.00000
     24       0.4631      0.00000
     25       0.5079      0.00000
     26       0.5209      0.00000
     27       0.5631      0.00000
     28       0.6089      0.00000
     29       0.6799      0.00000
     30       0.6948      0.00000
     31       0.6953      0.00000
     32       0.7474      0.00000
     33       0.7937      0.00000
     34       0.8296      0.00000
     35       0.8567      0.00000
     36       0.8985      0.00000
     37       0.9151      0.00000
     38       0.9391      0.00000
     39       0.9877      0.00000
     40       0.9933      0.00000
     41       1.0286      0.00000
     42       1.1355      0.00000
     43       1.1774      0.00000
     44       1.2043      0.00000
     45       1.2115      0.00000
     46       1.2446      0.00000
     47       1.2530      0.00000
     48       1.2820      0.00000
     49       1.2852      0.00000
     50       1.3031      0.00000
     51       1.3244      0.00000
     52       1.3428      0.00000
     53       1.3642      0.00000
     54       1.4046      0.00000
     55       1.4242      0.00000
     56       1.4271      0.00000
     57       1.4589      0.00000
     58       1.5292      0.00000
     59       1.5486      0.00000
     60       1.5538      0.00000
     61       1.5708      0.00000
     62       1.5796      0.00000
     63       1.5973      0.00000
     64       1.6135      0.00000

 k-point     4 :      -0.1250    0.3750    0.0000
  band No.  band energies     occupation 
      1      -8.2644      2.00000
      2      -7.7684      2.00000
      3      -7.7684      2.00000
      4      -7.2764      2.00000
      5      -7.2764      2.00000
      6      -7.0922      2.00000
      7      -7.0922      2.00000
      8      -6.8407      2.00000
      9      -6.8407      2.00000
     10      -6.6915      2.00000
     11      -5.1394      2.00000
     12      -3.1220      0.00000
     13      -1.0797      0.00000
     14      -1.0793      0.00000
     15      -0.6434      0.00000
     16       0.0745      0.00000
     17       0.1576      0.00000
     18       0.2878      0.00000
     19       0.3007      0.00000
     20       0.3652      0.00000
     21       0.3762      0.00000
     22       0.3895      0.00000
     23       0.4275      0.00000
     24       0.4811      0.00000
     25       0.4817      0.00000
     26       0.4883      0.00000
     27       0.5830      0.00000
     28       0.6267      0.00000
     29       0.6653      0.00000
     30       0.6827      0.00000
     31       0.6908      0.00000
     32       0.7648      0.00000
     33       0.7947      0.00000
     34       0.8277      0.00000
     35       0.8608      0.00000
     36       0.8981      0.00000
     37       0.9142      0.00000
     38       0.9296      0.00000
     39       1.0072      0.00000
     40       1.0097      0.00000
     41       1.0639      0.00000
     42       1.1347      0.00000
     43       1.1494      0.00000
     44       1.1521      0.00000
     45       1.2071      0.00000
     46       1.2126      0.00000
     47       1.2642      0.00000
     48       1.2968      0.00000
     49       1.2999      0.00000
     50       1.3162      0.00000
     51       1.3418      0.00000
     52       1.3463      0.00000
     53       1.3782      0.00000
     54       1.4092      0.00000
     55       1.4209      0.00000
     56       1.4402      0.00000
     57       1.4619      0.00000
     58       1.5083      0.00000
     59       1.5304      0.00000
     60       1.5434      0.00000
     61       1.5715      0.00000
     62       1.5804      0.00000
     63       1.5904      0.00000
     64       1.5977      0.00000

 k-point     5 :       0.3750    0.3750    0.0000
  band No.  band energies     occupation 
      1      -8.2644      2.00000
      2      -7.7684      2.00000
      3      -7.7684      2.00000
      4      -7.2764      2.00000
      5      -7.2764      2.00000
      6      -7.0922      2.00000
      7      -7.0922      2.00000
      8      -6.8407      2.00000
      9      -6.8407      2.00000
     10      -6.6915      2.00000
     11      -5.1394      2.00000
     12      -3.1220      0.00000
     13      -1.0798      0.00000
     14      -1.0793      0.00000
     15      -0.6429      0.00000
     16       0.1314      0.00000
     17       0.1654      0.00000
     18       0.1862      0.00000
     19       0.2981      0.00000
     20       0.3036      0.00000
     21       0.3471      0.00000
     22       0.4222      0.00000
     23       0.4453      0.00000
     24       0.4730      0.00000
     25       0.4992      0.00000
     26       0.5310      0.00000
     27       0.5769      0.00000
     28       0.6227      0.00000
     29       0.6258      0.00000
     30       0.7086      0.00000
     31       0.7228      0.00000
     32       0.7639      0.00000
     33       0.7818      0.00000
     34       0.9313      0.00000
     35       0.9439      0.00000
     36       0.9600      0.00000
     37       0.9992      0.00000
     38       1.0020      0.00000
     39       1.0117      0.00000
     40       1.0616      0.00000
     41       1.0691      0.00000
     42       1.0739      0.00000
     43       1.0747      0.00000
     44       1.1246      0.00000
     45       1.1305      0.00000
     46       1.1958      0.00000
     47       1.2009      0.00000
     48       1.2431      0.00000
     49       1.2807      0.00000
     50       1.3019      0.00000
     51       1.3089      0.00000
     52       1.3438      0.00000
     53       1.3497      0.00000
     54       1.3664      0.00000
     55       1.3686      0.00000
     56       1.3713      0.00000
     57       1.3900      0.00000
     58       1.4483      0.00000
     59       1.4624      0.00000
     60       1.4752      0.00000
     61       1.4775      0.00000
     62       1.5157      0.00000
     63       1.5330      0.00000
     64       1.5357      0.00000

 k-point     6 :      -0.3750    0.3750    0.0000
  band No.  band energies     occupation 
      1      -8.2644      2.00000
      2      -7.7684      2.00000
      3      -7.7684      2.00000
      4      -7.2764      2.00000
      5      -7.2764      2.00000
      6      -7.0922      2.00000
      7      -7.0922      2.00000
      8      -6.8407      2.00000
      9      -6.8407      2.00000
     10      -6.6915      2.00000
     11      -5.1394      2.00000
     12      -3.1220      0.00000
     13      -1.0798      0.00000
     14      -1.0793      0.00000
     15      -0.6429      0.00000
     16       0.1038      0.00000
     17       0.2085      0.00000
     18       0.2088      0.00000
     19       0.2559      0.00000
     20       0.2985      0.00000
     21       0.3503      0.00000
     22       0.4105      0.00000
     23       0.4816      0.00000
     24       0.4849      0.00000
     25       0.5230      0.00000
     26       0.5241      0.00000
     27       0.5417      0.00000
     28       0.5632      0.00000
     29       0.6529      0.00000
     30       0.6786      0.00000
     31       0.7305      0.00000
     32       0.7798      0.00000
     33       0.8322      0.00000
     34       0.9020      0.00000
     35       0.9453      0.00000
     36       0.9756      0.00000
     37       0.9908      0.00000
     38       1.0158      0.00000
     39       1.0173      0.00000
     40       1.0417      0.00000
     41       1.0462      0.00000
     42       1.0838      0.00000
     43       1.0847      0.00000
     44       1.1206      0.00000
     45       1.1754      0.00000
     46       1.1781      0.00000
     47       1.1945      0.00000
     48       1.2689      0.00000
     49       1.2710      0.00000
     50       1.3091      0.00000
     51       1.3262      0.00000
     52       1.3359      0.00000
     53       1.3400      0.00000
     54       1.3411      0.00000
     55       1.3690      0.00000
     56       1.3735      0.00000
     57       1.3887      0.00000
     58       1.3935      0.00000
     59       1.4209      0.00000
     60       1.4608      0.00000
     61       1.4772      0.00000
     62       1.5661      0.00000
     63       1.5686      0.00000
     64       1.5818      0.00000


--------------------------------------------------------------------------------------------------------


 soft charge-density along one line, spin component           1
         0         1         2         3         4         5         6         7         8         9
 total charge-density along one line

 pseudopotential strength for first ion, spin component:           1
-10.277   0.000  -0.019  -0.000   0.000 -10.254   0.000  -0.018
  0.000 -10.258   0.000   0.013  -0.000   0.000 -10.236   0.000
 -0.019   0.000 -10.256  -0.000   0.000  -0.018   0.000 -10.233
 -0.000   0.013  -0.000 -10.258  -0.000  -0.000   0.013  -0.000
  0.000  -0.000   0.000  -0.000 -10.271   0.000  -0.000   0.000
-10.254   0.000  -0.018  -0.000   0.000 -10.207   0.000  -0.017
  0.000 -10.236   0.000   0.013  -0.000   0.000 -10.189   0.000
 -0.018   0.000 -10.233  -0.000   0.000  -0.017   0.000 -10.187
 -0.000   0.013  -0.000 -10.236  -0.000  -0.000   0.012  -0.000
  0.000  -0.000   0.000  -0.000 -10.248   0.000  -0.000   0.000
 -0.010  -0.000  -0.006   0.000   0.000  -0.010  -0.000  -0.006
 -0.017  -0.000  -0.010   0.000   0.000  -0.017  -0.000  -0.010
  0.029  -0.000   0.017  -0.000   0.031   0.028  -0.000   0.016
 -0.000  -0.031   0.000   0.031  -0.000  -0.000  -0.030   0.000
 -0.029  -0.000  -0.017  -0.000   0.031  -0.028  -0.000  -0.016
  0.036  -0.000   0.021  -0.000   0.037   0.034  -0.000   0.020
 -0.000  -0.037   0.000   0.037  -0.000  -0.000  -0.036   0.000
 -0.036  -0.000  -0.021  -0.000   0.037  -0.034  -0.000  -0.020
 total augmentation occupancy for first ion, spin component:           1
  2.462  -0.000   0.193   0.000  -0.000  -0.548   0.000  -0.276   0.000   0.000   0.826  -0.108   0.084   0.000  -0.084   0.010
  0.000   2.176   0.000  -0.048   0.000   0.000  -0.155  -0.000   0.085   0.000  -0.000  -0.000  -0.000  -0.007   0.000   0.000
  0.193   0.000   2.239  -0.000  -0.000  -0.276   0.000  -0.230  -0.000   0.000   0.477  -0.063   0.048   0.000  -0.048   0.006
 -0.000  -0.048  -0.000   2.176   0.000  -0.000   0.085   0.000  -0.155  -0.000  -0.000   0.000   0.000   0.007   0.000   0.000
 -0.000   0.000  -0.000   0.000   2.224   0.000   0.000   0.000   0.000  -0.241  -0.000   0.000   0.007   0.000   0.007   0.018
 -0.548   0.000  -0.276  -0.000   0.000   0.618   0.000   0.350  -0.000  -0.000  -0.704   0.088  -0.117  -0.000   0.117   0.010
  0.000  -0.155   0.000   0.085   0.000   0.000   0.129   0.000  -0.118  -0.000  -0.000   0.000  -0.000   0.026   0.000  -0.000
 -0.276  -0.000  -0.230   0.000   0.000   0.350   0.000   0.214  -0.000  -0.000  -0.407   0.051  -0.068  -0.000   0.068   0.006
  0.000   0.085  -0.000  -0.155   0.000   0.000  -0.118  -0.000   0.129  -0.000   0.000  -0.000   0.000  -0.026  -0.000  -0.000
  0.000   0.000   0.000  -0.000  -0.241  -0.000  -0.000  -0.000  -0.000   0.247   0.000  -0.000  -0.026   0.000  -0.026   0.002
  0.826  -0.000   0.477  -0.000  -0.000  -0.704   0.000  -0.407   0.000   0.000   1.533  -0.129   0.162   0.000  -0.162  -0.012
 -0.108  -0.000  -0.063   0.000   0.000   0.088   0.000   0.051   0.000  -0.000  -0.129   0.014  -0.017  -0.000   0.017   0.001
  0.084  -0.000   0.048   0.000   0.007  -0.117  -0.000  -0.068   0.000  -0.026   0.162  -0.017   0.027  -0.000  -0.021  -0.003
  0.000  -0.007   0.000   0.007   0.000   0.000   0.026  -0.000  -0.026   0.000   0.000  -0.000  -0.000   0.006  -0.000  -0.000
 -0.084   0.000  -0.048   0.000   0.007   0.117   0.000   0.068  -0.000  -0.026  -0.162   0.017  -0.021  -0.000   0.027   0.002
  0.010   0.000   0.006   0.000   0.018   0.010  -0.000   0.006   0.000   0.002  -0.012   0.001  -0.003   0.000   0.002   0.001
  0.000  -0.018   0.000   0.018  -0.000   0.000  -0.002   0.000   0.002   0.000   0.000  -0.000   0.000  -0.001   0.000  -0.000
 -0.010   0.000  -0.006   0.000   0.018  -0.010   0.000  -0.006   0.000   0.002   0.012  -0.001   0.002   0.000  -0.003  -0.000


------------------------ aborting loop because EDIFF is reached ----------------------------------------


    FORLOC:  cpu time      0.0022: real time      0.0022
    FORNL :  cpu time      0.3422: real time      0.3426
    STRESS:  cpu time      1.0285: real time      1.0288
    FORCOR:  cpu time      0.1089: real time      0.1089
    OFIELD:  cpu time      0.0007: real time      0.0007

  Hirshfeld charges:
            ion         q(e)     
   ------------------------------
      1     Ag          0.000
      2     Ag         -0.000

  Hirshfeld-I charges:
            ion         q(e)        dq(e)    
   ------------------------------------------
      1     Ag          0.000      0.385E-07
      2     Ag         -0.000     -0.385E-07

   Hirshfeld-I converged in   1 cycles. Convergence criterion |dq|< 0.500E-04 e

  Atomic reference data used in the T-S method for vdW correction:
            C6at              R0at           ALPHAat      REFSTATE
            (au)              (au)            (au)                
   ---------------------------------------------------------------
   Ag        339.000          3.817         50.600         0
 
 Nth order contribution to Edisp (eV)
 Edisp(N=2):  -3.2039248539108153E-002
 Edisp(N=3):   3.7847393523978810E-005
 Edisp(N=4):  -2.5484954389000348E-004
 Edisp(N=5):   1.0617749322181195E-006
 Edisp(N=6):  -4.0049268366608796E-006
 Edisp(N=inf):  -3.2259245832004159E-002

  Tkatchenko/Scheffler method for vdW energy calculation
  ---------------------------------------------------------------------------------------------

  Parameters of vdW forcefield:
            C6ts              R0ts          ALPHAts         R0scs        ALPHAscs        RELVOL 
            (au)              (au)           (au)            (au)          (au)                 
   ---------------------------------------------------------------------------------------------
   Ag        314.358          3.770         48.726          3.729         47.171          0.963
   Ag        314.358          3.770         48.726          3.729         47.171          0.963

  vdW correction parametrized for the method pbe       

  IVDW = 212
  VDW_RADIUS =    50.000 A
  VDW_SR =     0.820
  VDW_D =     6.000
  SCSRAD =   120.000 A
  LVDWSCS = T
  LSCSGRAD = T
  LSCALER0 = T
  ITIM = -1
  Edisp (eV):   -0.03226
    FORVDW:  cpu time     22.1126: real time     22.1174

  FORCE on cell =-STRESS in cart. coord.  units (eV):
  Direction    XX          YY          ZZ          XY          YZ          ZX
  --------------------------------------------------------------------------------------
  Alpha Z     0.34431     0.34431     0.34431
  Ewald     192.04577   192.04577  -168.61425  -332.71971    -0.00000    -0.00000
  Hartree   824.65748   824.65748   554.27636  -242.96496    -0.00000    -0.00000
  E(xc)    -115.62334  -115.62334  -116.00957    -0.38623    -0.00000    -0.00000
  Local   -1332.30222 -1332.30222  -706.19825   570.74861    -0.00000     0.00000
  n-local   -26.87285   -26.87285   -25.22566     1.64823    -0.00000     0.00000
  augment   183.05394   183.05394   183.97725     0.92302     0.00000    -0.00000
  Kinetic   274.48824   274.48824   277.43421     2.94520     0.00000    -0.00000
  Fock        0.00000     0.00000     0.00000     0.00000     0.00000     0.00000
  vdW         0.01601     0.01555     0.00148    -0.01572    -0.00000    -0.00000
  -------------------------------------------------------------------------------------
  Total      -0.19290    -0.19290    -0.01413     0.17844     0.00000     0.00000
  in kB      -0.03128    -0.03128    -0.00229     0.02893     0.00000     0.00000
  external pressure =       -0.02 kB  Pullay stress =        0.00 kB


 VOLUME and BASIS-vectors are now :
 -----------------------------------------------------------------------------
  energy-cutoff  :      520.00
  volume of cell :     9881.61
      direct lattice vectors                 reciprocal lattice vectors
    21.138852197  0.000000000  0.000000000     0.047306258  0.000000000  0.000000000
     0.000000000 21.138852197  0.000000000     0.000000000  0.047306258  0.000000000
     0.000000000  0.000000000 22.113885220     0.000000000  0.000000000  0.045220457

  length of vectors
    21.138852197 21.138852197 22.113885220     0.047306258  0.047306258  0.045220457


 FORCES acting on ions:
    Electron-Ion                     Ewald-Force                    Non-Local-Force
 -----------------------------------------------------------------------------------------------
   -.188E+03 0.188E+03 0.338E-04   0.183E+03 -.183E+03 -.276E-16   0.528E+01 -.528E+01 -.434E-19
   0.188E+03 -.188E+03 0.338E-04   -.183E+03 0.183E+03 -.132E-16   -.528E+01 0.528E+01 0.175E-19
 -----------------------------------------------------------------------------------------------
   0.132E-06 0.912E-06 0.608E-04   0.000E+00 0.000E+00 -.408E-16   0.000E+00 0.000E+00 -.259E-19


 POSITION                                       TOTAL-FORCE (eV/Angst)
 -----------------------------------------------------------------------------------
     11.48437      9.65448     13.82858        -0.097011      0.097011      0.000000
      9.65448     11.48437     13.82858         0.097011     -0.097011     -0.000000
 -----------------------------------------------------------------------------------
    total drift:                                0.000000      0.000001      0.000061


--------------------------------------------------------------------------------------------------------



  FREE ENERGIE OF THE ION-ELECTRON SYSTEM (eV)
  ---------------------------------------------------
  free  energy   TOTEN  =        -2.20190656 eV

  energy  without entropy=       -2.20190656  energy(sigma->0) =       -2.20190656



--------------------------------------------------------------------------------------------------------


    POTLOK:  cpu time      0.2637: real time      0.2637


--------------------------------------------------------------------------------------------------------


     LOOP+:  cpu time     59.0912: real time     59.1928
    4ORBIT:  cpu time      0.0000: real time      0.0000

 total amount of memory used by VASP MPI-rank0   141752. kBytes
=======================================================================

   base      :      30000. kBytes
   nonlr-proj:        647. kBytes
   fftplans  :      38432. kBytes
   grid      :      53473. kBytes
   one-center:         15. kBytes
   wavefun   :      19185. kBytes

  
  
 General timing and accounting informations for this job:
 ========================================================
  
                  Total CPU time used (sec):       78.149
                            User time (sec):       76.386
                          System time (sec):        1.763
                         Elapsed time (sec):       82.346
  
                   Maximum memory used (kb):      341288.
                   Average memory used (kb):          N/A
  
                          Minor page faults:        63590
                          Major page faults:            0
                 Voluntary context switches:         6556
