 vasp.6.3.0 20Jan22 (build Apr  1 2022 16:44:48) complex                         
 executed on        HPECrayEX_GCC date 2022.12.06  08:24:06
 running   64 mpi-ranks, with    1 threads/rank
 distrk:  each k-point on   32 cores,    2 groups
 distr:  one band on NCORE=   4 cores,    8 groups


--------------------------------------------------------------------------------------------------------


 INCAR:
   SYSTEM = MgO-rocksalt
   ISMEAR = 0
   SIGMA = 0.05
   EDIFF = 1E-6
   ALGO = ALL
   ISTART = 0
   IBRION = -1
   NSW = 0
   ISYM = 2
   GGA = MK
   LUSE_VDW = .TRUE.
   PARAM1 = 0.1234
   PARAM2 = 0.711357
   ZAB_VDW = -1.8867
   AGGAC = 0.0
   ENCUT = 520
   PREC = Accurate
   LASPH = .TRUE.
   LREAL = Auto
   NELM = 200
   NELMIN = 8
   NCORE = 4
   KPAR = 2
   LWAVE = .FALSE.
   LCHARG = .FALSE.
   ISPIN = 2

 POTCAR:    PAW_PBE Ag 02Apr2005                  
 -----------------------------------------------------------------------------
|                                                                             |
|           W    W    AA    RRRRR   N    N  II  N    N   GGGG   !!!           |
|           W    W   A  A   R    R  NN   N  II  NN   N  G    G  !!!           |
|           W    W  A    A  R    R  N N  N  II  N N  N  G       !!!           |
|           W WW W  AAAAAA  RRRRR   N  N N  II  N  N N  G  GGG   !            |
|           WW  WW  A    A  R   R   N   NN  II  N   NN  G    G                |
|           W    W  A    A  R    R  N    N  II  N    N   GGGG   !!!           |
|                                                                             |
|     You use a magnetic or noncollinear calculation, but did not specify     |
|     the initial magnetic moment with the MAGMOM tag. Note that a            |
|     default of 1 will be used for all atoms. This ferromagnetic setup       |
|     may break the symmetry of the crystal, in particular it may rule        |
|     out finding an antiferromagnetic solution. Thence, we recommend         |
|     setting the initial magnetic moment manually or verifying carefully     |
|     that this magnetic setup is desired.                                    |
|                                                                             |
 -----------------------------------------------------------------------------

 -----------------------------------------------------------------------------
|                                                                             |
|               ----> ADVICE to this user running VASP <----                  |
|                                                                             |
|     You have switched on vdW-DFT.                                           |
|     This routine was written and supplied by Jiri Klimes. We recommend      |
|     that you carefully read and cite the following publications:            |
|       J. Klimes, D.R. Bowler, A. Michelides                                 |
|          J. Phys.: Cond Matt. 22 022201 (2010)                              |
|       J. Klimes, D.R. Bowler, A. Michelides                                 |
|          Phys. Rev. B. 83, 195131 (2011)                                    |
|     and references therein.                                                 |
|                                                                             |
 -----------------------------------------------------------------------------

 POTCAR:    PAW_PBE Ag 02Apr2005                  
   SHA256 =  6550cfa3543261e132c169e1b98a529204624d72be14e2da2e0242bcb74a174d Ag/POTCAR             
   COPYR  = (c) Copyright 02Apr2005 Georg Kresse                                                    
   COPYR  = This file is part of the software VASP. Any use, copying, and all other rights are regul
   COPYR  = If you do not have a valid VASP license, you may not use, copy or distribute this file. 
   VRHFIN =Ag : s1 d10                                                                              
   LEXCH  = PE                                                                                      
   EATOM  =  1037.2675 eV,   76.2370 Ry                                                             
                                                                                                    
   TITEL  = PAW_PBE Ag 02Apr2005                                                                    
   LULTRA =        F    use ultrasoft PP ?                                                          
   IUNSCR =        1    unscreen: 0-lin 1-nonlin 2-no                                               
   RPACOR =    2.000    partial core radius                                                         
   POMASS =  107.868; ZVAL   =   11.000    mass and valenz                                          
   RCORE  =    2.500    outmost cutoff radius                                                       
   RWIGS  =    2.840; RWIGS  =    1.503    wigner-seitz radius (au A)                               
   ENMAX  =  249.844; ENMIN  =  187.383 eV                                                          
   ICORE  =        3    local potential                                                             
   LCOR   =        T    correct aug charges                                                         
   LPAW   =        T    paw PP                                                                      
   EAUG   =  412.496                                                                                
   DEXC   =    0.000                                                                                
   RMAX   =    2.560    core radius for proj-oper                                                   
   RAUG   =    1.300    factor for augmentation sphere                                              
   RDEP   =    2.576    radius for radial grids                                                     
   RDEPT  =    2.072    core radius for aug-charge                                                  
                                                                                                    
   Atomic configuration                                                                             
   12 entries                                                                                       
     n  l   j            E        occ.                                                              
     1  0  0.50    -25324.9161   2.0000                                                             
     2  0  0.50     -3728.5341   2.0000                                                             
     2  1  1.50     -3344.0404   6.0000                                                             
     3  0  0.50      -683.5581   2.0000                                                             
     3  1  1.50      -557.3225   6.0000                                                             
     3  2  2.50      -358.3853  10.0000                                                             
     4  0  0.50       -95.0341   2.0000                                                             
     4  1  1.50       -58.5511   6.0000                                                             
     4  2  2.50        -7.4440  10.0000                                                             
     5  0  0.50        -4.4045   1.0000                                                             
     5  1  0.50        -1.3606   0.0000                                                             
     4  3  2.50        -1.3606   0.0000                                                             
   Description                                                                                      
     l       E           TYP  RCUT    TYP  RCUT                                                     
     2     -7.4439781     23  2.400                                                                 
     2     -8.8045607     23  2.400                                                                 
     0     -4.4044681     23  2.400                                                                 
     0      1.9520038     23  2.400                                                                 
     1     -1.3605826     23  2.500                                                                 
     1     27.2116520     23  2.500                                                                 
     3     -4.0817478     23  2.400                                                                 
  local pseudopotential read in
  partial core-charges read in
  partial kinetic energy density read in
  atomic valenz-charges read in
  non local Contribution for L=           2  read in
    real space projection operators read in
  non local Contribution for L=           2  read in
    real space projection operators read in
  non local Contribution for L=           0  read in
    real space projection operators read in
  non local Contribution for L=           0  read in
    real space projection operators read in
  non local Contribution for L=           1  read in
    real space projection operators read in
  non local Contribution for L=           1  read in
    real space projection operators read in
    PAW grid and wavefunctions read in

   number of l-projection  operators is LMAX  =           6
   number of lm-projection operators is LMMAX =          18

 -----------------------------------------------------------------------------
|                                                                             |
|               ----> ADVICE to this user running VASP <----                  |
|                                                                             |
|     You have a (more or less) 'small supercell' and for smaller cells       |
|     it is recommended to use the reciprocal-space projection scheme!        |
|     The real-space optimization is not efficient for small cells and it     |
|     is also less accurate ...                                               |
|     Therefore, set LREAL=.FALSE. in the INCAR file.                         |
|                                                                             |
 -----------------------------------------------------------------------------

 Optimization of the real space projectors (new method)

 maximal supplied QI-value         = 15.12
 optimisation between [QCUT,QGAM] = [ 11.64, 23.28] = [ 37.95,151.78] Ry 
 Optimized for a Real-space Cutoff    1.45 Angstroem

   l    n(q)    QCUT    max X(q) W(low)/X(q) W(high)/X(q)  e(spline) 
   2      9    11.641    53.897    0.22E-03    0.42E-04    0.28E-06
   2      9    11.641    52.416    0.23E-03    0.44E-04    0.29E-06
   0     10    11.641   122.045    0.51E-04    0.25E-04    0.16E-06
   0     10    11.641    73.629    0.49E-04    0.24E-04    0.16E-06
   1     10    11.641    15.255    0.99E-04    0.55E-04    0.11E-06
   1     10    11.641     9.562    0.81E-04    0.47E-04    0.95E-07
 -----------------------------------------------------------------------------
|                                                                             |
|               ----> ADVICE to this user running VASP <----                  |
|                                                                             |
|     You enforced a specific xc type in the INCAR file but a different       |
|     type was found in the POTCAR file.                                      |
|     I HOPE YOU KNOW WHAT YOU ARE DOING!                                     |
|                                                                             |
 -----------------------------------------------------------------------------

  PAW_PBE Ag 02Apr2005                  :
 energy of atom  1       EATOM=-1037.2675
 kinetic energy error for atom=    0.0047 (will be added to EATOM!!)


 POSCAR: au4
  positions in direct lattice
  No initial velocities read in
 exchange correlation table for  LEXCH =       43
   RHO(1)=    0.500       N(1)  =     2000
   RHO(2)=  100.500       N(2)  =     4000



--------------------------------------------------------------------------------------------------------


 ion  position               nearest neighbor table
   1  0.450  0.460  0.600-

  LATTYP: Found a simple cubic cell.
 ALAT       =    20.0000000000
  
  Lattice vectors:
  
 A1 = (  20.0000000000,   0.0000000000,   0.0000000000)
 A2 = (   0.0000000000,  20.0000000000,   0.0000000000)
 A3 = (   0.0000000000,   0.0000000000,  20.0000000000)


Analysis of symmetry for initial positions (statically):
=====================================================================
 Subroutine PRICEL returns:
 Original cell was already a primitive cell.
 

 Routine SETGRP: Setting up the symmetry group for a 
 simple cubic supercell.


 Subroutine GETGRP returns: Found 48 space group operations
 (whereof  1 operations were pure point group operations)
 out of a pool of 48 trial point group operations.


The static configuration has the point symmetry C_1 .
 The point group associated with its full space group is O_h .


Analysis of symmetry for dynamics (positions and initial velocities):
=====================================================================
 Subroutine PRICEL returns:
 Original cell was already a primitive cell.
 

 Routine SETGRP: Setting up the symmetry group for a 
 simple cubic supercell.


 Subroutine GETGRP returns: Found 48 space group operations
 (whereof  1 operations were pure point group operations)
 out of a pool of 48 trial point group operations.


The dynamic configuration has the point symmetry C_1 .
 The point group associated with its full space group is O_h .


Analysis of structural, dynamic, and magnetic symmetry:
=====================================================================
 Subroutine PRICEL returns:
 Original cell was already a primitive cell.
 

 Routine SETGRP: Setting up the symmetry group for a 
 simple cubic supercell.


 Subroutine GETGRP returns: Found 48 space group operations
 (whereof  1 operations were pure point group operations)
 out of a pool of 48 trial point group operations.


The overall configuration has the point symmetry C_1 .
 The point group associated with its full space group is O_h .


 Subroutine INISYM returns: Found 48 space group operations
 (whereof  1 operations are pure point group operations),
 and found     1 'primitive' translations


----------------------------------------------------------------------------------------

                                     Primitive cell                                     

  volume of cell :    8000.0000

  direct lattice vectors                    reciprocal lattice vectors
    20.000000000  0.000000000  0.000000000     0.050000000  0.000000000  0.000000000
     0.000000000 20.000000000  0.000000000     0.000000000  0.050000000  0.000000000
     0.000000000  0.000000000 20.000000000     0.000000000  0.000000000  0.050000000

  length of vectors
    20.000000000 20.000000000 20.000000000     0.050000000  0.050000000  0.050000000

  position of ions in fractional coordinates (direct lattice)
     0.450000000  0.460000000  0.600000000

  ion indices of the primitive-cell ions
   primitive index   ion index
                 1           1

----------------------------------------------------------------------------------------



 KPOINTS: KPOINTS created by Atomic Simulation Env

Automatic generation of k-mesh.
 Grid dimensions read from file:
 generate k-points for:    1    1    1

 Generating k-lattice:

  Cartesian coordinates                     Fractional coordinates (reciprocal lattice)
     0.050000000  0.000000000  0.000000000     1.000000000  0.000000000  0.000000000
     0.000000000  0.050000000  0.000000000     0.000000000  1.000000000  0.000000000
     0.000000000  0.000000000  0.050000000     0.000000000  0.000000000  1.000000000

  Length of vectors
     0.050000000  0.050000000  0.050000000

  Shift w.r.t. Gamma in fractional coordinates (k-lattice)
     0.000000000  0.000000000  0.000000000

 
 Subroutine IBZKPT returns following result:
 ===========================================
 
 Found      1 irreducible k-points:
 
 Following reciprocal coordinates:
            Coordinates               Weight
  0.000000  0.000000  0.000000      1.000000
 
 Following cartesian coordinates:
            Coordinates               Weight
  0.000000  0.000000  0.000000      1.000000
 


--------------------------------------------------------------------------------------------------------




 Dimension of arrays:
   k-points           NKPTS =      1   k-points in BZ     NKDIM =      1   number of bands    NBANDS=     16
   number of dos      NEDOS =    301   number of ions     NIONS =      1
   non local maximal  LDIM  =      6   non local SUM 2l+1 LMDIM =     18
   total plane-waves  NPLWV = ******
   max r-space proj   IRMAX =   5390   max aug-charges    IRDMAX=  20940
   dimension x,y,z NGX =   150 NGY =  150 NGZ =  150
   dimension x,y,z NGXF=   300 NGYF=  300 NGZF=  300
   support grid    NGXF=   300 NGYF=  300 NGZF=  300
   ions per type =               1
   NGX,Y,Z   is equivalent  to a cutoff of  12.47, 12.47, 12.47 a.u.
   NGXF,Y,Z  is equivalent  to a cutoff of  24.94, 24.94, 24.94 a.u.

 SYSTEM =  MgO-rocksalt                            
 POSCAR =  au4                                     

 Startparameter for this run:
   NWRITE =      2    write-flag & timer
   PREC   = accura    normal or accurate (medium, high low for compatibility)
   ISTART =      0    job   : 0-new  1-cont  2-samecut
   ICHARG =      2    charge: 1-file 2-atom 10-const
   ISPIN  =      2    spin polarized calculation?
   LNONCOLLINEAR =      F non collinear calculations
   LSORBIT =      F    spin-orbit coupling
   INIWAV =      1    electr: 0-lowe 1-rand  2-diag
   LASPH  =      T    aspherical Exc in radial PAW
 Electronic Relaxation 1
   ENCUT  =  520.0 eV  38.22 Ry    6.18 a.u.  37.19 37.19 37.19*2*pi/ulx,y,z
   ENINI  =  520.0     initial cutoff
   ENAUG  =  412.5 eV  augmentation charge cutoff
   NELM   =    200;   NELMIN=  8; NELMDL= -5     # of ELM steps 
   EDIFF  = 0.1E-05   stopping-criterion for ELM
   LREAL  =      T    real-space projection
   NLSPLINE    = F    spline interpolate recip. space projectors
   LCOMPAT=      F    compatible to vasp.4.4
   GGA_COMPAT  = T    GGA compatible to vasp.4.4-vasp.4.6
   LMAXPAW     = -100 max onsite density
   LMAXMIX     =    2 max onsite mixed and CHGCAR
   VOSKOWN=      0    Vosko Wilk Nusair interpolation
   ROPT   =   -0.00025
 Ionic relaxation
   EDIFFG = 0.1E-04   stopping-criterion for IOM
   NSW    =      0    number of steps for IOM
   NBLOCK =      1;   KBLOCK =      1    inner block; outer block 
   IBRION =     -1    ionic relax: 0-MD 1-quasi-New 2-CG
   NFREE  =      0    steps in history (QN), initial steepest desc. (CG)
   ISIF   =      2    stress and relaxation
   IWAVPR =     10    prediction:  0-non 1-charg 2-wave 3-comb
   ISYM   =      2    0-nonsym 1-usesym 2-fastsym
   LCORR  =      T    Harris-Foulkes like correction to forces

   POTIM  = 0.5000    time-step for ionic-motion
   TEIN   =    0.0    initial temperature
   TEBEG  =    0.0;   TEEND  =   0.0 temperature during run
   SMASS  =  -3.00    Nose mass-parameter (am)
   estimated Nose-frequenzy (Omega)   =  0.10E-29 period in steps = 0.13E+47 mass=  -0.914E-26a.u.
   SCALEE = 1.0000    scale energy and forces
   NPACO  =    256;   APACO  = 10.0  distance and # of slots for P.C.
   PSTRESS=    0.0 pullay stress

  Mass of Ions in am
   POMASS = 107.87
  Ionic Valenz
   ZVAL   =  11.00
  Atomic Wigner-Seitz radii
   RWIGS  =  -1.00
  virtual crystal weights 
   VCA    =   1.00
   NELECT =      11.0000    total number of electrons
   NUPDOWN=      -1.0000    fix difference up-down

 DOS related values:
   EMIN   =  10.00;   EMAX   =-10.00  energy-range for DOS
   EFERMI =   0.00
   ISMEAR =     0;   SIGMA  =   0.05  broadening in eV -4-tet -1-fermi 0-gaus

 Electronic relaxation 2 (details)
   IALGO  =     58    algorithm
   LDIAG  =      T    sub-space diagonalisation (order eigenvalues)
   LSUBROT=      F    optimize rotation matrix (better conditioning)
   TURBO    =      0    0=normal 1=particle mesh
   IRESTART =      0    0=no restart 2=restart with 2 vectors
   NREBOOT  =      0    no. of reboots
   NMIN     =      0    reboot dimension
   EREF     =   0.00    reference energy to select bands
   IMIX   =      4    mixing-type and parameters
     AMIX     =   0.40;   BMIX     =  1.00
     AMIX_MAG =   1.60;   BMIX_MAG =  1.00
     AMIN     =   0.10
     WC   =   100.;   INIMIX=   1;  MIXPRE=   1;  MAXMIX= -45

 Intra band minimization:
   WEIMIN = 0.0000     energy-eigenvalue tresh-hold
   EBREAK =  0.16E-07  absolut break condition
   DEPER  =   0.30     relativ break condition  

   TIME   =   0.40     timestep for ELM

  volume/ion in A,a.u.               =    8000.00     53986.66
  Fermi-wavevector in a.u.,A,eV,Ry     =   0.182044  0.344013  0.450896  0.033140
  Thomas-Fermi vector in A             =   0.909791

 Write flags
   LWAVE        =      F    write WAVECAR
   LDOWNSAMPLE  =      F    k-point downsampling of WAVECAR
   LCHARG       =      F    write CHGCAR
   LVTOT        =      F    write LOCPOT, total local potential
   LVHAR        =      F    write LOCPOT, Hartree potential only
   LELF         =      F    write electronic localiz. function (ELF)
   LORBIT       =      0    0 simple, 1 ext, 2 COOP (PROOUT), +10 PAW based schemes


 Dipole corrections
   LMONO  =      F    monopole corrections only (constant potential shift)
   LDIPOL =      F    correct potential (dipole corrections)
   IDIPOL =      0    1-x, 2-y, 3-z, 4-all directions 
   EPSILON=  1.0000000 bulk dielectric constant

 Exchange correlation treatment:
   GGA     =    MK    GGA type
   LEXCH   =    43    internal setting for exchange type
   LIBXC   =     F    Libxc                    
   VOSKOWN =     0    Vosko Wilk Nusair interpolation
   LHFCALC =     F    Hartree Fock is set to
   LHFONE  =     F    Hartree Fock one center treatment
   AEXX    =    0.0000 exact exchange contribution

 vdW DFT:
   LUSE_VDW   =     T    switch on vdW DFT
   Zab_VDW    =******    correlation parameter
   PARAM1     =0.1234
   PARAM2     =0.7114
   PARAM3     =0.0000
   -- rVV10 --
   BPARAM     = 6.3000
   CPARAM     = 0.0093

 Linear response parameters
   LEPSILON=     F    determine dielectric tensor
   LRPA    =     F    only Hartree local field effects (RPA)
   LNABLA  =     F    use nabla operator in PAW spheres
   LVEL    =     F    velocity operator in full k-point grid
   CSHIFT  =0.1000    complex shift for real part using Kramers Kronig
   OMEGAMAX=  -1.0    maximum frequency
   DEG_THRESHOLD= 0.2000000E-02 threshold for treating states as degnerate
   RTIME   =   -0.100 relaxation time in fs
  (WPLASMAI=    0.000 imaginary part of plasma frequency in eV, 0.658/RTIME)
   DFIELD  = 0.0000000 0.0000000 0.0000000 field for delta impulse in time

  Optional k-point grid parameters
   LKPOINTS_OPT  =     F    use optional k-point grid
   KPOINTS_OPT_MODE=     1    mode for optional k-point grid

 Orbital magnetization related:
   ORBITALMAG=     F  switch on orbital magnetization
   LCHIMAG   =     F  perturbation theory with respect to B field
   DQ        =  0.001000  dq finite difference perturbation B field
   LLRAUG    =     F  two centre corrections for induced B field



--------------------------------------------------------------------------------------------------------


 Static calculation
 charge density and potential will be updated during run
 spin polarized calculation
 Conjugate gradient for all bands (Freysoldt, et al. PRB 79, 241103 (2009))
 preconditioned conjugated gradient                                        
 perform sub-space diagonalisation
    before iterative eigenvector-optimisation
 modified Broyden-mixing scheme, WC =      100.0
 initial mixing is a Kerker type mixing with AMIX =  0.4000 and BMIX =      1.0000
 Hartree-type preconditioning will be used
 using additional bands           10
 real space projection scheme for non local part
 use partial core corrections
 no Harris-corrections to forces 
 use gradient corrections 
 use of overlap-Matrix (Vanderbilt PP)
 Gauss-broadening in eV      SIGMA  =   0.05


--------------------------------------------------------------------------------------------------------


  energy-cutoff  :      520.00
  volume of cell :     8000.00
      direct lattice vectors                 reciprocal lattice vectors
    20.000000000  0.000000000  0.000000000     0.050000000  0.000000000  0.000000000
     0.000000000 20.000000000  0.000000000     0.000000000  0.050000000  0.000000000
     0.000000000  0.000000000 20.000000000     0.000000000  0.000000000  0.050000000

  length of vectors
    20.000000000 20.000000000 20.000000000     0.050000000  0.050000000  0.050000000



 k-points in units of 2pi/SCALE and weight: KPOINTS created by Atomic Simulation Env
   0.00000000  0.00000000  0.00000000       1.000

 k-points in reciprocal lattice and weights: KPOINTS created by Atomic Simulation Env
   0.00000000  0.00000000  0.00000000       1.000

 position of ions in fractional coordinates (direct lattice) 
   0.45000000  0.46000000  0.60000000

 position of ions in cartesian coordinates  (Angst):
   9.00000000  9.20000000 12.00000000



--------------------------------------------------------------------------------------------------------


 k-point   1 :   0.0000 0.0000 0.0000  plane waves:  215503

 maximum and minimum number of plane-waves per node :     53900    53857

 maximum number of plane-waves:    215503
 maximum index in each direction: 
   IXMAX=   37   IYMAX=   37   IZMAX=   37
   IXMIN=  -37   IYMIN=  -37   IZMIN=  -37


 real space projection operators:
  total allocation   :        718.59 KBytes
  max/ min on nodes  :        182.39        176.91


 parallel 3D FFT for wavefunctions:
    minimum data exchange during FFTs selected (reduces bandwidth)
 parallel 3D FFT for charge:
    minimum data exchange during FFTs selected (reduces bandwidth)


 total amount of memory used by VASP MPI-rank0   229579. kBytes
=======================================================================

   base      :      30000. kBytes
   nonlr-proj:        313. kBytes
   fftplans  :      55167. kBytes
   grid      :     133718. kBytes
   one-center:         31. kBytes
   wavefun   :      10350. kBytes

     INWAV:  cpu time      0.0000: real time      0.0000
 Broyden mixing: mesh for mixing (old mesh)
   NGX = 75   NGY = 75   NGZ = 75
  (NGX  =300   NGY  =300   NGZ  =300)
  gives a total of 421875 points

 initial charge density was supplied:
 charge density of overlapping atoms calculated
 number of electron      11.0000000 magnetization       1.0000000
 keeping initial charge density in first step


--------------------------------------------------------------------------------------------------------


 Maximum index for non-local projection operator         1297
 Maximum index for augmentation-charges          749 (set IRDMAX)


--------------------------------------------------------------------------------------------------------


 First call to EWALD:  gamma=   0.089
 Maximum number of real-space cells 3x 3x 3
 Maximum number of reciprocal cells 3x 3x 3

    FEWALD:  cpu time      0.0014: real time      0.0014


--------------------------------------- Iteration      1(   1)  ---------------------------------------


vdW kernel read from vdw_kernel.bindat
  0.0000  0.2424  0.5071  0.7962  1.1119  1.4567  1.8333  2.2446  2.6937  3.1842
  3.7199  4.3049  4.9438  5.6415  6.4036  7.2358  8.1446  9.1372 10.2212 11.4050
 12.6979 14.1099 15.6519 17.3360 19.1751 21.1837 23.3773 25.7729 28.3892 31.2465
 34.3669 37.7748 41.4965 45.5611 50.0000

    POTLOK:  cpu time     12.7719: real time     12.7730
    SETDIJ:  cpu time      0.3986: real time      0.3988
    TRIAL :  cpu time      1.0306: real time      1.2283
    CORREC:  cpu time      0.0004: real time      0.0005
    --------------------------------------------
      LOOP:  cpu time     14.2143: real time     14.4135

 eigenvalue-minimisations  :    64
 total energy-change (2. order) : 0.8133839E+02  (-0.1314756E+03)
 number of electron      11.0000000 magnetization       1.0000000
 augmentation part       11.0000000 magnetization       1.0000000

 Free energy of the ion-electron system (eV)
  ---------------------------------------------------
  alpha Z        PSCENC =         0.10632226
  Ewald energy   TEWEN  =      -123.59085203
  -Hartree energ DENC   =      -869.22072703
  -exchange      EXHF   =         0.00000000
  -V(xc)+E(xc)   XCENC  =       -12.03357665
  PAW double counting   =      1004.51239959     -957.68776116
  entropy T*S    EENTRO =        -0.02689258
  eigenvalues    EBANDS =        -1.12261262
  atomic energy  EATOM  =      1040.40208671
  ---------------------------------------------------
  free energy    TOTEN  =        81.33838649 eV

  energy without entropy =       81.36527907  energy(sigma->0) =       81.35183278


--------------------------------------------------------------------------------------------------------




--------------------------------------- Iteration      1(   2)  ---------------------------------------


    TRIAL :  cpu time      1.1742: real time      1.1743
    CORREC:  cpu time      0.0002: real time      0.0002
    --------------------------------------------
      LOOP:  cpu time      1.1782: real time      1.1876

 eigenvalue-minimisations  :    80
 total energy-change (2. order) :-0.1114883E+02  (-0.1038112E+02)
 number of electron      11.0000000 magnetization       1.0000000
 augmentation part       11.0000000 magnetization       1.0000000

 Free energy of the ion-electron system (eV)
  ---------------------------------------------------
  alpha Z        PSCENC =         0.10632226
  Ewald energy   TEWEN  =      -123.59085203
  -Hartree energ DENC   =      -869.22072703
  -exchange      EXHF   =         0.00000000
  -V(xc)+E(xc)   XCENC  =       -12.03357665
  PAW double counting   =      1004.51239959     -957.68776116
  entropy T*S    EENTRO =        -0.04250691
  eigenvalues    EBANDS =       -12.25582707
  atomic energy  EATOM  =      1040.40208671
  ---------------------------------------------------
  free energy    TOTEN  =        70.18955770 eV

  energy without entropy =       70.23206461  energy(sigma->0) =       70.21081115


--------------------------------------------------------------------------------------------------------




--------------------------------------- Iteration      1(   3)  ---------------------------------------


    TRIAL :  cpu time      1.7245: real time      1.7246
    CORREC:  cpu time      0.0002: real time      0.0002
    --------------------------------------------
      LOOP:  cpu time      1.7292: real time      1.7354

 eigenvalue-minimisations  :   128
 total energy-change (2. order) :-0.5370151E+02  (-0.4825390E+02)
 number of electron      11.0000000 magnetization       1.0000000
 augmentation part       11.0000000 magnetization       1.0000000

 Free energy of the ion-electron system (eV)
  ---------------------------------------------------
  alpha Z        PSCENC =         0.10632226
  Ewald energy   TEWEN  =      -123.59085203
  -Hartree energ DENC   =      -869.22072703
  -exchange      EXHF   =         0.00000000
  -V(xc)+E(xc)   XCENC  =       -12.03357665
  PAW double counting   =      1004.51239959     -957.68776116
  entropy T*S    EENTRO =        -0.00015205
  eigenvalues    EBANDS =       -65.99969009
  atomic energy  EATOM  =      1040.40208671
  ---------------------------------------------------
  free energy    TOTEN  =        16.48804955 eV

  energy without entropy =       16.48820160  energy(sigma->0) =       16.48812557


--------------------------------------------------------------------------------------------------------




--------------------------------------- Iteration      1(   4)  ---------------------------------------


    TRIAL :  cpu time      1.2607: real time      1.2607
    CORREC:  cpu time      0.0002: real time      0.0002
    --------------------------------------------
      LOOP:  cpu time      1.2647: real time      1.2728

 eigenvalue-minimisations  :    88
 total energy-change (2. order) :-0.1341554E+02  (-0.1339452E+02)
 number of electron      11.0000000 magnetization       1.0000000
 augmentation part       11.0000000 magnetization       1.0000000

 Free energy of the ion-electron system (eV)
  ---------------------------------------------------
  alpha Z        PSCENC =         0.10632226
  Ewald energy   TEWEN  =      -123.59085203
  -Hartree energ DENC   =      -869.22072703
  -exchange      EXHF   =         0.00000000
  -V(xc)+E(xc)   XCENC  =       -12.03357665
  PAW double counting   =      1004.51239959     -957.68776116
  entropy T*S    EENTRO =        -0.00014962
  eigenvalues    EBANDS =       -79.41523434
  atomic energy  EATOM  =      1040.40208671
  ---------------------------------------------------
  free energy    TOTEN  =         3.07250772 eV

  energy without entropy =        3.07265734  energy(sigma->0) =        3.07258253


--------------------------------------------------------------------------------------------------------




--------------------------------------- Iteration      1(   5)  ---------------------------------------


    TRIAL :  cpu time      1.1690: real time      1.1691
    CORREC:  cpu time      0.0002: real time      0.0002
    CHARGE:  cpu time      1.0667: real time      1.0669
    --------------------------------------------
      LOOP:  cpu time      2.2405: real time      2.2468

 eigenvalue-minimisations  :    80
 total energy-change (2. order) :-0.1330308E+00  (-0.1330126E+00)
 number of electron      10.9999991 magnetization       0.9987956
 augmentation part        5.3537661 magnetization      -0.0557743

 Free energy of the ion-electron system (eV)
  ---------------------------------------------------
  alpha Z        PSCENC =         0.10632226
  Ewald energy   TEWEN  =      -123.59085203
  -Hartree energ DENC   =      -869.22072703
  -exchange      EXHF   =         0.00000000
  -V(xc)+E(xc)   XCENC  =       -12.03357665
  PAW double counting   =      1004.51239959     -957.68776116
  entropy T*S    EENTRO =        -0.00014925
  eigenvalues    EBANDS =       -79.54826547
  atomic energy  EATOM  =      1040.40208671
  ---------------------------------------------------
  free energy    TOTEN  =         2.93947697 eV

  energy without entropy =        2.93962622  energy(sigma->0) =        2.93955159


--------------------------------------------------------------------------------------------------------




--------------------------------------- Iteration      1(   6)  ---------------------------------------


    POTLOK:  cpu time     12.4222: real time     12.4238
    SETDIJ:  cpu time      0.4311: real time      0.4312
    TRIAL :  cpu time      0.5998: real time      0.6004
    CORREC:  cpu time     14.0304: real time     14.0332
    CHARGE:  cpu time      0.9788: real time      0.9788
    --------------------------------------------
      LOOP:  cpu time     28.4658: real time     28.4801

 eigenvalue-minimisations  :     0
 total energy-change (2. order) :-0.1422559E+00  (-0.1885127E-01)
 number of electron      10.9999991 magnetization       0.9999808
 augmentation part        5.3688788 magnetization      -0.1015283

 Free energy of the ion-electron system (eV)
  ---------------------------------------------------
  alpha Z        PSCENC =         0.10632226
  Ewald energy   TEWEN  =      -123.59085203
  -Hartree energ DENC   =      -868.13706603
  -exchange      EXHF   =         0.00000000
  -V(xc)+E(xc)   XCENC  =       -12.06866921
  PAW double counting   =       988.77512213     -941.98031456
  entropy T*S    EENTRO =        -0.00000305
  eigenvalues    EBANDS =       -80.70925894
  atomic energy  EATOM  =      1040.40208671
  ---------------------------------------------------
  free energy    TOTEN  =         2.79722108 eV

  energy without entropy =        2.79722413  energy(sigma->0) =        2.79722260


--------------------------------------------------------------------------------------------------------




--------------------------------------- Iteration      1(   7)  ---------------------------------------


    POTLOK:  cpu time     12.4203: real time     12.4216
    SETDIJ:  cpu time      0.4443: real time      0.4443
    TRIAL :  cpu time      0.5946: real time      0.5947
    CORREC:  cpu time     13.9702: real time     13.9713
    CHARGE:  cpu time      0.9830: real time      0.9831
    --------------------------------------------
      LOOP:  cpu time     28.4244: real time     28.4274

 eigenvalue-minimisations  :     0
 total energy-change (2. order) :-0.1903319E-01  (-0.2323561E-02)
 number of electron      10.9999991 magnetization       0.9999992
 augmentation part        5.3600998 magnetization      -0.1115454

 Free energy of the ion-electron system (eV)
  ---------------------------------------------------
  alpha Z        PSCENC =         0.10632226
  Ewald energy   TEWEN  =      -123.59085203
  -Hartree energ DENC   =      -870.14832947
  -exchange      EXHF   =         0.00000000
  -V(xc)+E(xc)   XCENC  =       -11.99030399
  PAW double counting   =       995.27625244     -948.49458083
  entropy T*S    EENTRO =        -0.00000014
  eigenvalues    EBANDS =       -78.78240416
  atomic energy  EATOM  =      1040.40208671
  ---------------------------------------------------
  free energy    TOTEN  =         2.77818789 eV

  energy without entropy =        2.77818804  energy(sigma->0) =        2.77818796


--------------------------------------------------------------------------------------------------------




--------------------------------------- Iteration      1(   8)  ---------------------------------------


    POTLOK:  cpu time     12.3976: real time     12.3993
    SETDIJ:  cpu time      0.4385: real time      0.4385
    TRIAL :  cpu time      0.5956: real time      0.5957
    CORREC:  cpu time     13.9287: real time     13.9300
    CHARGE:  cpu time      0.9804: real time      0.9805
    --------------------------------------------
      LOOP:  cpu time     28.3451: real time     28.3575

 eigenvalue-minimisations  :     0
 total energy-change (2. order) :-0.2323236E-02  (-0.4135892E-03)
 number of electron      10.9999991 magnetization       1.0000000
 augmentation part        5.3621911 magnetization      -0.1141907

 Free energy of the ion-electron system (eV)
  ---------------------------------------------------
  alpha Z        PSCENC =         0.10632226
  Ewald energy   TEWEN  =      -123.59085203
  -Hartree energ DENC   =      -868.75660620
  -exchange      EXHF   =         0.00000000
  -V(xc)+E(xc)   XCENC  =       -12.03350545
  PAW double counting   =       994.90902864     -948.10251872
  entropy T*S    EENTRO =        -0.00000000
  eigenvalues    EBANDS =       -80.15809042
  atomic energy  EATOM  =      1040.40208671
  ---------------------------------------------------
  free energy    TOTEN  =         2.77586465 eV

  energy without entropy =        2.77586466  energy(sigma->0) =        2.77586466


--------------------------------------------------------------------------------------------------------




--------------------------------------- Iteration      1(   9)  ---------------------------------------


    POTLOK:  cpu time     12.3546: real time     12.3560
    SETDIJ:  cpu time      0.4357: real time      0.4357
    TRIAL :  cpu time      0.5945: real time      0.5946
    CORREC:  cpu time     13.9143: real time     13.9157
    CHARGE:  cpu time      0.9793: real time      0.9794
    --------------------------------------------
      LOOP:  cpu time     28.2830: real time     28.2951

 eigenvalue-minimisations  :     0
 total energy-change (2. order) :-0.4130345E-03  (-0.5467653E-04)
 number of electron      10.9999991 magnetization       1.0000000
 augmentation part        5.3616522 magnetization      -0.1146174

 Free energy of the ion-electron system (eV)
  ---------------------------------------------------
  alpha Z        PSCENC =         0.10632226
  Ewald energy   TEWEN  =      -123.59085203
  -Hartree energ DENC   =      -869.07852217
  -exchange      EXHF   =         0.00000000
  -V(xc)+E(xc)   XCENC  =       -12.02240414
  PAW double counting   =       996.20736815     -949.40803333
  entropy T*S    EENTRO =        -0.00000000
  eigenvalues    EBANDS =       -79.84051383
  atomic energy  EATOM  =      1040.40208671
  ---------------------------------------------------
  free energy    TOTEN  =         2.77545162 eV

  energy without entropy =        2.77545162  energy(sigma->0) =        2.77545162


--------------------------------------------------------------------------------------------------------




--------------------------------------- Iteration      1(  10)  ---------------------------------------


    POTLOK:  cpu time     12.3392: real time     12.3405
    SETDIJ:  cpu time      0.4458: real time      0.4459
    TRIAL :  cpu time      0.5943: real time      0.5943
    CORREC:  cpu time     13.9123: real time     13.9143
    CHARGE:  cpu time      0.9806: real time      0.9806
    --------------------------------------------
      LOOP:  cpu time     28.2757: real time     28.2884

 eigenvalue-minimisations  :     0
 total energy-change (2. order) :-0.5504279E-04  (-0.1971911E-04)
 number of electron      10.9999991 magnetization       1.0000000
 augmentation part        5.3619620 magnetization      -0.1146555

 Free energy of the ion-electron system (eV)
  ---------------------------------------------------
  alpha Z        PSCENC =         0.10632226
  Ewald energy   TEWEN  =      -123.59085203
  -Hartree energ DENC   =      -869.03531122
  -exchange      EXHF   =         0.00000000
  -V(xc)+E(xc)   XCENC  =       -12.02376033
  PAW double counting   =       996.62588755     -949.82837296
  entropy T*S    EENTRO =        -0.00000000
  eigenvalues    EBANDS =       -79.88060340
  atomic energy  EATOM  =      1040.40208671
  ---------------------------------------------------
  free energy    TOTEN  =         2.77539658 eV

  energy without entropy =        2.77539658  energy(sigma->0) =        2.77539658


--------------------------------------------------------------------------------------------------------




--------------------------------------- Iteration      1(  11)  ---------------------------------------


    POTLOK:  cpu time     12.3219: real time     12.3231
    SETDIJ:  cpu time      0.4546: real time      0.4546
    TRIAL :  cpu time      0.5941: real time      0.5942
    CORREC:  cpu time     13.9046: real time     13.9066
    CHARGE:  cpu time      0.9794: real time      0.9795
    --------------------------------------------
      LOOP:  cpu time     28.2679: real time     28.2719

 eigenvalue-minimisations  :     0
 total energy-change (2. order) :-0.1906594E-04  (-0.4863232E-05)
 number of electron      10.9999991 magnetization       1.0000000
 augmentation part        5.3616003 magnetization      -0.1145611

 Free energy of the ion-electron system (eV)
  ---------------------------------------------------
  alpha Z        PSCENC =         0.10632226
  Ewald energy   TEWEN  =      -123.59085203
  -Hartree energ DENC   =      -869.11941887
  -exchange      EXHF   =         0.00000000
  -V(xc)+E(xc)   XCENC  =       -12.02096704
  PAW double counting   =       997.23420522     -950.44043221
  entropy T*S    EENTRO =        -0.00000000
  eigenvalues    EBANDS =       -79.79556653
  atomic energy  EATOM  =      1040.40208671
  ---------------------------------------------------
  free energy    TOTEN  =         2.77537751 eV

  energy without entropy =        2.77537751  energy(sigma->0) =        2.77537751


--------------------------------------------------------------------------------------------------------




--------------------------------------- Iteration      1(  12)  ---------------------------------------


    POTLOK:  cpu time     12.3193: real time     12.3205
    SETDIJ:  cpu time      0.4546: real time      0.4547
    TRIAL :  cpu time      0.5943: real time      0.5944
    CORREC:  cpu time     13.8881: real time     13.8906
    CHARGE:  cpu time      0.9818: real time      0.9818
    --------------------------------------------
      LOOP:  cpu time     28.2516: real time     28.2559

 eigenvalue-minimisations  :     0
 total energy-change (2. order) :-0.4910865E-05  (-0.1809653E-05)
 number of electron      10.9999991 magnetization       1.0000000
 augmentation part        5.3617188 magnetization      -0.1144651

 Free energy of the ion-electron system (eV)
  ---------------------------------------------------
  alpha Z        PSCENC =         0.10632226
  Ewald energy   TEWEN  =      -123.59085203
  -Hartree energ DENC   =      -869.06928931
  -exchange      EXHF   =         0.00000000
  -V(xc)+E(xc)   XCENC  =       -12.02263496
  PAW double counting   =       997.38671733     -950.59244921
  entropy T*S    EENTRO =        -0.00000000
  eigenvalues    EBANDS =       -79.84452818
  atomic energy  EATOM  =      1040.40208671
  ---------------------------------------------------
  free energy    TOTEN  =         2.77537260 eV

  energy without entropy =        2.77537260  energy(sigma->0) =        2.77537260


--------------------------------------------------------------------------------------------------------




--------------------------------------- Iteration      1(  13)  ---------------------------------------


    POTLOK:  cpu time     12.3112: real time     12.3130
    SETDIJ:  cpu time      0.4533: real time      0.4533
    TRIAL :  cpu time      0.5937: real time      0.5937
    CORREC:  cpu time     13.8918: real time     13.8932
    CHARGE:  cpu time      0.9805: real time      0.9806
    --------------------------------------------
      LOOP:  cpu time     28.2347: real time     28.2476

 eigenvalue-minimisations  :     0
 total energy-change (2. order) :-0.1764716E-05  (-0.2613931E-06)
 number of electron      10.9999991 magnetization       1.0000000
 augmentation part        5.3617379 magnetization      -0.1144568

 Free energy of the ion-electron system (eV)
  ---------------------------------------------------
  alpha Z        PSCENC =         0.10632226
  Ewald energy   TEWEN  =      -123.59085203
  -Hartree energ DENC   =      -869.08481588
  -exchange      EXHF   =         0.00000000
  -V(xc)+E(xc)   XCENC  =       -12.02213534
  PAW double counting   =       997.51108945     -950.71688218
  entropy T*S    EENTRO =        -0.00000000
  eigenvalues    EBANDS =       -79.82944215
  atomic energy  EATOM  =      1040.40208671
  ---------------------------------------------------
  free energy    TOTEN  =         2.77537084 eV

  energy without entropy =        2.77537084  energy(sigma->0) =        2.77537084


--------------------------------------------------------------------------------------------------------




--------------------------------------- Iteration      1(  14)  ---------------------------------------


    POTLOK:  cpu time     12.3055: real time     12.3079
    SETDIJ:  cpu time      0.4602: real time      0.4603
    TRIAL :  cpu time      0.5940: real time      0.5941
    CORREC:  cpu time     13.9088: real time     13.9101
    EDDIAG:  cpu time      0.2329: real time      0.2330
    CHARGE:  cpu time      0.9772: real time      0.9773
    --------------------------------------------
      LOOP:  cpu time     28.4823: real time     28.4961

 eigenvalue-minimisations  :     0
 total energy-change (2. order) :-0.2517633E-06  (-0.2021881E-07)
 number of electron      10.9999991 magnetization       1.0000000
 augmentation part        5.3617226 magnetization      -0.1144559

 Free energy of the ion-electron system (eV)
  ---------------------------------------------------
  alpha Z        PSCENC =         0.10632226
  Ewald energy   TEWEN  =      -123.59085203
  -Hartree energ DENC   =      -869.08685038
  -exchange      EXHF   =         0.00000000
  -V(xc)+E(xc)   XCENC  =       -12.02206247
  PAW double counting   =       997.53138608     -950.73712028
  entropy T*S    EENTRO =        -0.00000000
  eigenvalues    EBANDS =       -79.82753930
  atomic energy  EATOM  =      1040.40208671
  ---------------------------------------------------
  free energy    TOTEN  =         2.77537058 eV

  energy without entropy =        2.77537058  energy(sigma->0) =        2.77537058


--------------------------------------------------------------------------------------------------------


  average scaling for gradient   1.2540


 average (electrostatic) potential at core
  the test charge radii are     1.1249
  (the norm of the test charge is              1.0000)
       1 -82.2461



 E-fermi :  -4.5911     XC(G=0):  -0.2134     alpha+bet : -0.0287

 Fermi energy:        -4.5910518204

 spin component 1

 k-point     1 :       0.0000    0.0000    0.0000
  band No.  band energies     occupation 
      1      -7.5895      1.00000
      2      -7.5895      1.00000
      3      -7.5895      1.00000
      4      -7.5895      1.00000
      5      -7.5894      1.00000
      6      -4.8177      1.00000
      7      -1.0413      0.00000
      8      -1.0413      0.00000
      9      -1.0413      0.00000
     10      -0.1996      0.00000
     11       0.2202      0.00000
     12       0.2302      0.00000
     13       0.2303      0.00000
     14       0.3233      0.00000
     15       0.3233      0.00000
     16       0.3233      0.00000
 Fermi energy:        -4.5910518204

 spin component 2

 k-point     1 :       0.0000    0.0000    0.0000
  band No.  band energies     occupation 
      1      -7.4131      1.00000
      2      -7.4131      1.00000
      3      -7.4131      1.00000
      4      -7.4131      1.00000
      5      -7.4131      1.00000
      6      -4.2521      0.00000
      7      -0.7862      0.00000
      8      -0.7862      0.00000
      9      -0.7862      0.00000
     10      -0.1407      0.00000
     11       0.2431      0.00000
     12       0.2769      0.00000
     13       0.2772      0.00000
     14       0.3810      0.00000
     15       0.3810      0.00000
     16       0.3812      0.00000


--------------------------------------------------------------------------------------------------------


 soft charge-density along one line, spin component           1
         0         1         2         3         4         5         6         7         8         9
 total charge-density along one line

 soft charge-density along one line, spin component           2
         0         1         2         3         4         5         6         7         8         9
 total charge-density along one line

 pseudopotential strength for first ion, spin component:           1
-10.424   0.000   0.000  -0.000  -0.000 -10.396   0.000   0.000
  0.000 -10.424  -0.000  -0.000   0.000   0.000 -10.396  -0.000
  0.000  -0.000 -10.424   0.000   0.000   0.000  -0.000 -10.396
 -0.000  -0.000   0.000 -10.424   0.000  -0.000  -0.000   0.000
 -0.000   0.000   0.000   0.000 -10.424  -0.000   0.000   0.000
-10.396   0.000   0.000  -0.000  -0.000 -10.345   0.000   0.000
  0.000 -10.396  -0.000  -0.000   0.000   0.000 -10.345  -0.000
  0.000  -0.000 -10.396   0.000   0.000   0.000  -0.000 -10.345
 -0.000  -0.000   0.000 -10.396   0.000  -0.000  -0.000   0.000
 -0.000   0.000   0.000   0.000 -10.396  -0.000   0.000   0.000
  0.000   0.000   0.000  -0.000  -0.000   0.000   0.000   0.000
  0.000   0.000   0.000  -0.000   0.000   0.000   0.000   0.000
 -0.000   0.000   0.000  -0.000   0.000  -0.000   0.000   0.000
 -0.000  -0.000   0.000  -0.000  -0.000  -0.000  -0.000   0.000
 -0.000  -0.000   0.000   0.000  -0.000  -0.000  -0.000   0.000
 -0.000   0.000   0.000  -0.000   0.000  -0.000   0.000   0.000
 -0.000  -0.000   0.000  -0.000  -0.000  -0.000  -0.000   0.000
 -0.000  -0.000   0.000   0.000  -0.000  -0.000  -0.000   0.000
 pseudopotential strength for first ion, spin component:           2
-10.439   0.000   0.000  -0.000  -0.000 -10.411   0.000   0.000
  0.000 -10.439  -0.000  -0.000   0.000   0.000 -10.411  -0.000
  0.000  -0.000 -10.439   0.000   0.000   0.000  -0.000 -10.411
 -0.000  -0.000   0.000 -10.439   0.000  -0.000  -0.000   0.000
 -0.000   0.000   0.000   0.000 -10.439  -0.000   0.000   0.000
-10.411   0.000   0.000  -0.000  -0.000 -10.359   0.000   0.000
  0.000 -10.411  -0.000  -0.000   0.000   0.000 -10.359  -0.000
  0.000  -0.000 -10.411   0.000   0.000   0.000  -0.000 -10.359
 -0.000  -0.000   0.000 -10.411   0.000  -0.000  -0.000   0.000
 -0.000   0.000   0.000   0.000 -10.411  -0.000   0.000   0.000
  0.000   0.000   0.000  -0.000  -0.000   0.000   0.000   0.000
  0.000   0.000   0.000  -0.000   0.000   0.000   0.000   0.000
 -0.000   0.000   0.000  -0.000   0.000  -0.000   0.000   0.000
 -0.000  -0.000   0.000  -0.000  -0.000  -0.000  -0.000   0.000
 -0.000  -0.000   0.000   0.000  -0.000  -0.000  -0.000   0.000
 -0.000   0.000   0.000  -0.000   0.000  -0.000   0.000   0.000
 -0.000  -0.000   0.000  -0.000  -0.000  -0.000  -0.000   0.000
 -0.000  -0.000   0.000   0.000  -0.000  -0.000  -0.000   0.000
 total augmentation occupancy for first ion, spin component:           1
  2.004  -0.000  -0.000   0.000   0.000  -0.007   0.000  -0.000  -0.000  -0.000  -0.000  -0.000   0.000   0.000   0.000   0.000
 -0.000   2.004   0.000   0.000   0.000  -0.000  -0.007   0.000  -0.000   0.000   0.000  -0.000   0.000   0.000   0.000   0.000
 -0.000   0.000   2.004   0.000   0.000  -0.000  -0.000  -0.007  -0.000  -0.000   0.000   0.000   0.000   0.000   0.000   0.000
  0.000   0.000   0.000   2.004   0.000   0.000  -0.000   0.000  -0.007   0.000  -0.000   0.000   0.000   0.000   0.000   0.000
  0.000   0.000   0.000   0.000   2.004   0.000   0.000  -0.000  -0.000  -0.007   0.000   0.000   0.000   0.000   0.000   0.000
 -0.007  -0.000  -0.000   0.000   0.000   0.009  -0.000  -0.000   0.000  -0.000   0.000   0.000   0.000   0.000   0.000   0.000
  0.000  -0.007  -0.000  -0.000   0.000  -0.000   0.009   0.000   0.000   0.000   0.000   0.000   0.000   0.000   0.000   0.000
 -0.000   0.000  -0.007   0.000  -0.000  -0.000   0.000   0.009  -0.000   0.000  -0.000  -0.000   0.000   0.000   0.000   0.000
 -0.000  -0.000  -0.000  -0.007  -0.000   0.000   0.000  -0.000   0.009   0.000   0.000  -0.000   0.000   0.000   0.000   0.000
 -0.000   0.000  -0.000   0.000  -0.007  -0.000   0.000   0.000   0.000   0.009   0.000   0.000   0.000   0.000   0.000   0.000
 -0.000   0.000   0.000  -0.000   0.000   0.000   0.000  -0.000   0.000   0.000   0.861   0.044   0.000   0.000   0.000   0.000
 -0.000  -0.000   0.000   0.000   0.000   0.000   0.000  -0.000  -0.000   0.000   0.044   0.002   0.000   0.000   0.000   0.000
  0.000   0.000   0.000   0.000   0.000   0.000   0.000   0.000   0.000   0.000   0.000   0.000   0.000   0.000  -0.000  -0.000
  0.000   0.000   0.000   0.000   0.000   0.000   0.000   0.000   0.000   0.000   0.000   0.000   0.000   0.000  -0.000  -0.000
  0.000   0.000   0.000   0.000   0.000   0.000   0.000   0.000   0.000   0.000   0.000   0.000  -0.000  -0.000   0.000   0.000
  0.000   0.000   0.000   0.000   0.000   0.000   0.000   0.000   0.000   0.000   0.000   0.000  -0.000  -0.000   0.000   0.000
  0.000   0.000   0.000   0.000   0.000   0.000   0.000   0.000   0.000   0.000   0.000   0.000   0.000  -0.000  -0.000   0.000
  0.000   0.000   0.000   0.000   0.000   0.000   0.000   0.000   0.000   0.000   0.000   0.000  -0.000  -0.000  -0.000   0.000
 total augmentation occupancy for first ion, spin component:           2
 -0.268   0.000   0.000  -0.000   0.000   0.132   0.000   0.000   0.000   0.000  -0.000   0.000   0.000   0.000   0.000   0.000
  0.000  -0.268   0.000   0.000   0.000  -0.000   0.132   0.000   0.000   0.000  -0.000   0.000   0.000   0.000   0.000   0.000
  0.000   0.000  -0.268   0.000  -0.000  -0.000   0.000   0.132   0.000   0.000   0.000   0.000   0.000   0.000   0.000   0.000
 -0.000   0.000   0.000  -0.268   0.000  -0.000   0.000   0.000   0.132   0.000   0.000   0.000   0.000   0.000   0.000   0.000
  0.000   0.000  -0.000   0.000  -0.268  -0.000  -0.000   0.000  -0.000   0.132   0.000   0.000   0.000   0.000   0.000   0.000
  0.132  -0.000  -0.000  -0.000  -0.000   0.000  -0.000   0.000  -0.000   0.000   0.000  -0.000   0.000   0.000   0.000   0.000
  0.000   0.132   0.000   0.000  -0.000  -0.000   0.000   0.000  -0.000  -0.000   0.000  -0.000   0.000   0.000   0.000   0.000
  0.000   0.000   0.132   0.000   0.000   0.000   0.000   0.000   0.000   0.000  -0.000   0.000   0.000   0.000   0.000   0.000
  0.000   0.000   0.000   0.132  -0.000  -0.000  -0.000   0.000   0.000   0.000   0.000   0.000   0.000   0.000   0.000   0.000
  0.000   0.000   0.000   0.000   0.132   0.000  -0.000   0.000   0.000   0.000   0.000   0.000   0.000   0.000   0.000   0.000
 -0.000  -0.000   0.000   0.000   0.000   0.000   0.000  -0.000   0.000   0.000   0.861   0.044   0.000   0.000   0.000   0.000
  0.000   0.000   0.000   0.000   0.000  -0.000  -0.000   0.000   0.000   0.000   0.044   0.002   0.000   0.000   0.000   0.000
  0.000   0.000   0.000   0.000   0.000   0.000   0.000   0.000   0.000   0.000   0.000   0.000   0.000  -0.000   0.000  -0.000
  0.000   0.000   0.000   0.000   0.000   0.000   0.000   0.000   0.000   0.000   0.000   0.000  -0.000   0.000  -0.000   0.000
  0.000   0.000   0.000   0.000   0.000   0.000   0.000   0.000   0.000   0.000   0.000   0.000   0.000  -0.000   0.000   0.000
  0.000   0.000   0.000   0.000   0.000   0.000   0.000   0.000   0.000   0.000   0.000   0.000  -0.000   0.000   0.000   0.000
  0.000   0.000   0.000   0.000   0.000   0.000   0.000   0.000   0.000   0.000   0.000   0.000  -0.000  -0.000  -0.000   0.000
  0.000   0.000   0.000   0.000   0.000   0.000   0.000   0.000   0.000   0.000   0.000   0.000  -0.000   0.000  -0.000   0.000


------------------------ aborting loop because EDIFF is reached ----------------------------------------


    FORLOC:  cpu time      0.0097: real time      0.0097
    FORNL :  cpu time      0.3999: real time      0.4000
    STRESS:  cpu time      1.2192: real time      1.2195
    FORCOR:  cpu time     12.2527: real time     12.2539
    OFIELD:  cpu time      0.0073: real time      0.0073

  FORCE on cell =-STRESS in cart. coord.  units (eV):
  Direction    XX          YY          ZZ          XY          YZ          ZX
  --------------------------------------------------------------------------------------
  Alpha Z     0.10632     0.10632     0.10632
  Ewald     -41.19695   -41.19695   -41.19695     0.00000    -0.00000    -0.00000
  Hartree   289.69487   289.69487   289.69487    -0.00000     0.00000    -0.00000
  E(xc)     -57.66338   -57.66338   -57.66338    -0.00000    -0.00000     0.00000
  Local    -405.86746  -405.86746  -405.86746    -0.00000    -0.00000     0.00000
  n-local   -15.70153   -15.70078   -15.70091     0.00004     0.00019     0.00021
  augment    92.22172    92.22172    92.22172     0.00000    -0.00000    -0.00000
  Kinetic   138.38770   138.38787   138.38804    -0.00003    -0.00021    -0.00024
  Fock        0.00000     0.00000     0.00000     0.00000     0.00000     0.00000
  -------------------------------------------------------------------------------------
  Total      -0.01807    -0.01807    -0.01807    -0.00000    -0.00000     0.00000
  in kB      -0.00362    -0.00362    -0.00362    -0.00000    -0.00000     0.00000
  external pressure =       -0.00 kB  Pullay stress =        0.00 kB


 VOLUME and BASIS-vectors are now :
 -----------------------------------------------------------------------------
  energy-cutoff  :      520.00
  volume of cell :     8000.00
      direct lattice vectors                 reciprocal lattice vectors
    20.000000000  0.000000000  0.000000000     0.050000000  0.000000000  0.000000000
     0.000000000 20.000000000  0.000000000     0.000000000  0.050000000  0.000000000
     0.000000000  0.000000000 20.000000000     0.000000000  0.000000000  0.050000000

  length of vectors
    20.000000000 20.000000000 20.000000000     0.050000000  0.050000000  0.050000000


 FORCES acting on ions:
    Electron-Ion                     Ewald-Force                    Non-Local-Force
 -----------------------------------------------------------------------------------------------
   0.327E-12 0.701E-10 -.515E-10   0.106E-16 -.303E-16 -.392E-16   0.000E+00 0.000E+00 0.529E-22
 -----------------------------------------------------------------------------------------------
   0.351E-12 0.712E-10 -.526E-10   0.106E-16 -.303E-16 -.392E-16   0.000E+00 0.000E+00 0.529E-22


 POSITION                                       TOTAL-FORCE (eV/Angst)
 -----------------------------------------------------------------------------------
      9.00000      9.20000     12.00000         0.000000      0.000000      0.000000
 -----------------------------------------------------------------------------------
    total drift:                                0.000000      0.000000     -0.000000


--------------------------------------------------------------------------------------------------------



  FREE ENERGIE OF THE ION-ELECTRON SYSTEM (eV)
  ---------------------------------------------------
  free  energy   TOTEN  =         2.77537058 eV

  energy  without entropy=        2.77537058  energy(sigma->0) =        2.77537058



--------------------------------------------------------------------------------------------------------


    POTLOK:  cpu time     12.7711: real time     12.7729


--------------------------------------------------------------------------------------------------------


     LOOP+:  cpu time    302.7740: real time    303.0992
    4ORBIT:  cpu time      0.0000: real time      0.0000

 total amount of memory used by VASP MPI-rank0   229579. kBytes
=======================================================================

   base      :      30000. kBytes
   nonlr-proj:        313. kBytes
   fftplans  :      55167. kBytes
   grid      :     133718. kBytes
   one-center:         31. kBytes
   wavefun   :      10350. kBytes

  
  
 General timing and accounting informations for this job:
 ========================================================
  
                  Total CPU time used (sec):      309.962
                            User time (sec):      304.586
                          System time (sec):        5.376
                         Elapsed time (sec):      311.897
  
                   Maximum memory used (kb):      947848.
                   Average memory used (kb):          N/A
  
                          Minor page faults:       267618
                          Major page faults:           53
                 Voluntary context switches:         2148
