 **********************************************************************
                          MRCC program system
 **********************************************************************
 
                              Written by
     Mihaly Kallay, Peter R. Nagy, David Mester, Laszlo Gyevi-Nagy,
        Jozsef Csoka, P. Bernat Szabo, Zoltan Rolik, Gyula Samu,
     Jozsef Csontos, Bence Hegely, Adam Ganyecz, Istvan Ladjanszki,
       Lorant Szegedy, Bence Ladoczki, Klara Petrov, Mate Farkas,
                    Pal D. Mezei, and Reka A. Horvath
 
        Department of Physical Chemistry and Materials Science
            Budapest University of Technology and Economics
                  Budapest P.O.Box 91, H-1521 Hungary
 
                              www.mrcc.hu
 
                      Release date: March 18, 2022

 ************************ 2023-01-10 08:21:19 *************************
 Executing minp...

 Reading input from MINP...
 
 Input file:
 
calc=LNO-CCSD(T)
scftype=rhf
verbosity=3
mem=190GB
symm=off
unit=angs
scfiguess=restart
scfmaxit=1000
scfalg=locfit1


lcorthr=normal
bpedo=0.99999
ccmaxit=400
usedisk=0
ccsdalg=dfdirect
ccsdthreads=4
ccsdmkl=thr
ptthreads=4

charge=-20
core=26

basis=special
bse_ACVQZ
bse_ACVQZ
aug-cc-pVQZ
bse_CVQZ
bse_CVQZ
bse_CVQZ
bse_CVQZ
bse_CVQZ
aug-cc-pVQZ
aug-cc-pVQZ
aug-cc-pVQZ
aug-cc-pVQZ
aug-cc-pVQZ
aug-cc-pVQZ
aug-cc-pVQZ
aug-cc-pVQZ
bse_CVQZ
aug-cc-pVQZ
aug-cc-pVQZ
aug-cc-pVQZ
aug-cc-pVQZ
bse_CVQZ
bse_CVQZ
aug-cc-pVQZ
aug-cc-pVQZ
aug-cc-pVQZ
aug-cc-pVQZ
aug-cc-pVQZ
nothing
nothing
nothing
nothing
nothing
nothing
nothing
nothing
nothing
nothing
nothing
nothing
nothing
nothing
nothing
nothing
nothing
nothing
nothing
nothing
nothing
nothing
nothing
nothing
nothing
nothing
nothing
nothing
nothing
nothing
nothing
nothing
nothing
nothing
nothing
nothing
nothing
nothing

basis_sm=special
def2-SVP
def2-SVP
def2-SVP
def2-SVP
def2-SVP
def2-SVP
def2-SVP
def2-SVP
def2-SVP
def2-SVP
def2-SVP
def2-SVP
def2-SVP
def2-SVP
def2-SVP
def2-SVP
def2-SVP
def2-SVP
def2-SVP
def2-SVP
def2-SVP
def2-SVP
def2-SVP
def2-SVP
def2-SVP
def2-SVP
def2-SVP
def2-SVP
nothing
nothing
nothing
nothing
nothing
nothing
nothing
nothing
nothing
nothing
nothing
nothing
nothing
nothing
nothing
nothing
nothing
nothing
nothing
nothing
nothing
nothing
nothing
nothing
nothing
nothing
nothing
nothing
nothing
nothing
nothing
nothing
nothing
nothing
nothing
nothing
nothing
nothing

dfbasis_scf=special
def2-QZVPP-RI-JK
def2-QZVPP-RI-JK
def2-QZVPP-RI-JK
def2-QZVPP-RI-JK
def2-QZVPP-RI-JK
def2-QZVPP-RI-JK
def2-QZVPP-RI-JK
def2-QZVPP-RI-JK
def2-QZVPP-RI-JK
def2-QZVPP-RI-JK
def2-QZVPP-RI-JK
def2-QZVPP-RI-JK
def2-QZVPP-RI-JK
def2-QZVPP-RI-JK
def2-QZVPP-RI-JK
def2-QZVPP-RI-JK
def2-QZVPP-RI-JK
def2-QZVPP-RI-JK
def2-QZVPP-RI-JK
def2-QZVPP-RI-JK
def2-QZVPP-RI-JK
def2-QZVPP-RI-JK
def2-QZVPP-RI-JK
def2-QZVPP-RI-JK
def2-QZVPP-RI-JK
def2-QZVPP-RI-JK
def2-QZVPP-RI-JK
def2-QZVPP-RI-JK
nothing
nothing
nothing
nothing
nothing
nothing
nothing
nothing
nothing
nothing
nothing
nothing
nothing
nothing
nothing
nothing
nothing
nothing
nothing
nothing
nothing
nothing
nothing
nothing
nothing
nothing
nothing
nothing
nothing
nothing
nothing
nothing
nothing
nothing
nothing
nothing
nothing
nothing

dfbasis_cor=special
bse_ACVQZ_autoaux
bse_ACVQZ_autoaux
aug-cc-pVQZ-RI
bse_CVQZ_mp2fit
bse_CVQZ_mp2fit
bse_CVQZ_mp2fit
bse_CVQZ_mp2fit
bse_CVQZ_mp2fit
aug-cc-pVQZ-RI
aug-cc-pVQZ-RI
aug-cc-pVQZ-RI
aug-cc-pVQZ-RI
aug-cc-pVQZ-RI
aug-cc-pVQZ-RI
aug-cc-pVQZ-RI
aug-cc-pVQZ-RI
bse_CVQZ_mp2fit
aug-cc-pVQZ-RI
aug-cc-pVQZ-RI
aug-cc-pVQZ-RI
aug-cc-pVQZ-RI
bse_CVQZ_mp2fit
bse_CVQZ_mp2fit
aug-cc-pVQZ-RI
aug-cc-pVQZ-RI
aug-cc-pVQZ-RI
aug-cc-pVQZ-RI
aug-cc-pVQZ-RI
nothing
nothing
nothing
nothing
nothing
nothing
nothing
nothing
nothing
nothing
nothing
nothing
nothing
nothing
nothing
nothing
nothing
nothing
nothing
nothing
nothing
nothing
nothing
nothing
nothing
nothing
nothing
nothing
nothing
nothing
nothing
nothing
nothing
nothing
nothing
nothing
nothing
nothing

ecp=special
MCDHF-ECP-10
MCDHF-ECP-10
none
none
none
none
none
none
none
none
none
none
none
none
none
none
none
none
none
none
none
none
none
none
none
none
none
none
ECP-12
ECP-12
ECP-12
ECP-12
ECP-12
ECP-12
ECP-12
ECP-12
ECP-12
ECP-12
ECP-12
ECP-12
ECP-12
ECP-12
ECP-12
ECP-12
ECP-12
ECP-12
ECP-12
ECP-12
ECP-12
ECP-12
ECP-12
ECP-12
ECP-12
ECP-12
ECP-12
ECP-12
ECP-12
ECP-12
ECP-12
ECP-12
ECP-12
ECP-12
ECP-12
ECP-12
ECP-12
ECP-12

unit=angs
geom=xyz
66
Cu2 Mg8 O18 ECP38
Cu    1.05694236214    1.05694298690    4.33689692266
Cu    1.05694236214    1.05694298690    2.10970975148
O     0.00000000000    0.00000000000    0.00000000000
Mg   -2.11388582115    0.00000000000    0.00000000000
Mg    0.00000000000    2.11388582115    0.00000000000
Mg    2.11388582115    0.00000000000    0.00000000000
Mg    0.00000000000   -2.11388582115    0.00000000000
Mg    0.00000000000    0.00000000000   -2.11388582115
O    -2.11388582115    2.11388582115    0.00000000000
O     2.11388582115    2.11388582115    0.00000000000
O     2.11388582115   -2.11388582115    0.00000000000
O    -2.11388582115   -2.11388582115    0.00000000000
O    -2.11388582115    0.00000000000   -2.11388582115
O     0.00000000000    2.11388582115   -2.11388582115
O     2.11388582115    0.00000000000   -2.11388582115
O     0.00000000000   -2.11388582115   -2.11388582115
Mg    2.11388582115    2.11388582115   -2.11388582115
O    -4.22777164231    0.00000000000    0.00000000000
O     0.00000000000    4.22777164231    0.00000000000
O     4.22777164231    0.00000000000    0.00000000000
O     0.00000000000   -4.22777164231    0.00000000000
Mg    2.11388582115    4.22777164231    0.00000000000
Mg    4.22777164231    2.11388582115    0.00000000000
O     2.11388582115    4.22777164231   -2.11388582115
O     4.22777164231    2.11388582115   -2.11388582115
O     4.22777164231    4.22777164231    0.00000000000
O     2.11388582115    6.34165746346    0.00000000000
O     6.34165746346    2.11388582115    0.00000000000
Mg   -2.11388582115    2.11388582115   -2.11388582115
Mg    2.11388582115   -2.11388582115   -2.11388582115
Mg   -2.11388582115   -2.11388582115   -2.11388582115
Mg   -4.22777164231    2.11388582115    0.00000000000
Mg   -2.11388582115    4.22777164231    0.00000000000
Mg    4.22777164231   -2.11388582115    0.00000000000
Mg    2.11388582115   -4.22777164231    0.00000000000
Mg   -2.11388582115   -4.22777164231    0.00000000000
Mg   -4.22777164231   -2.11388582115    0.00000000000
Mg   -4.22777164231    0.00000000000   -2.11388582115
Mg    0.00000000000    4.22777164231   -2.11388582115
Mg    4.22777164231    0.00000000000   -2.11388582115
Mg    0.00000000000   -4.22777164231   -2.11388582115
Mg   -6.34165746346    0.00000000000    0.00000000000
Mg    0.00000000000    6.34165746346    0.00000000000
Mg    6.34165746346    0.00000000000    0.00000000000
Mg    0.00000000000   -6.34165746346    0.00000000000
Mg   -4.22777164231    4.22777164231   -2.11388582115
Mg    4.22777164231    4.22777164231   -2.11388582115
Mg    4.22777164231   -4.22777164231   -2.11388582115
Mg   -4.22777164231   -4.22777164231   -2.11388582115
Mg   -6.34165746346    2.11388582115   -2.11388582115
Mg   -2.11388582115    6.34165746346   -2.11388582115
Mg    2.11388582115    6.34165746346   -2.11388582115
Mg    6.34165746346    2.11388582115   -2.11388582115
Mg    6.34165746346   -2.11388582115   -2.11388582115
Mg    2.11388582115   -6.34165746346   -2.11388582115
Mg   -2.11388582115   -6.34165746346   -2.11388582115
Mg   -6.34165746346   -2.11388582115   -2.11388582115
Mg    4.22777164231    6.34165746346    0.00000000000
Mg    6.34165746346    4.22777164231    0.00000000000
Mg    2.11388582115    8.45554328461    0.00000000000
Mg    8.45554328461    2.11388582115    0.00000000000
Mg    0.00000000000    8.45554328461   -2.11388582115
Mg    8.45554328461    0.00000000000   -2.11388582115
Mg    6.34165746346    6.34165746346   -2.11388582115
Mg    4.22777164231    8.45554328461   -2.11388582115
Mg    8.45554328461    4.22777164231   -2.11388582115


ghost=serialno
1-2

qmmm=Amber
pointcharges
9023
     -2.11388582115    2.11388582115   -2.11388582115    2.00000000000
      2.11388582115   -2.11388582115   -2.11388582115    2.00000000000
     -2.11388582115   -2.11388582115   -2.11388582115    2.00000000000
     -4.22777164231    2.11388582115    0.00000000000    2.00000000000
     -2.11388582115    4.22777164231    0.00000000000    2.00000000000
      4.22777164231   -2.11388582115    0.00000000000    2.00000000000
      2.11388582115   -4.22777164231    0.00000000000    2.00000000000
     -2.11388582115   -4.22777164231    0.00000000000    2.00000000000
     -4.22777164231   -2.11388582115    0.00000000000    2.00000000000
     -4.22777164231    0.00000000000   -2.11388582115    2.00000000000
      0.00000000000    4.22777164231   -2.11388582115    2.00000000000
      4.22777164231    0.00000000000   -2.11388582115    2.00000000000
      0.00000000000   -4.22777164231   -2.11388582115    2.00000000000
     -4.22777164231    2.11388582115   -2.11388582115   -2.00000000000
     -2.11388582115    4.22777164231   -2.11388582115   -2.00000000000
      4.22777164231   -2.11388582115   -2.11388582115   -2.00000000000
      2.11388582115   -4.22777164231   -2.11388582115   -2.00000000000
     -2.11388582115   -4.22777164231   -2.11388582115   -2.00000000000
     -4.22777164231   -2.11388582115   -2.11388582115   -2.00000000000
     -4.22777164231    4.22777164231    0.00000000000   -2.00000000000
      4.22777164231   -4.22777164231    0.00000000000   -2.00000000000
     -4.22777164231   -4.22777164231    0.00000000000   -2.00000000000
     -6.34165746346    0.00000000000    0.00000000000    2.00000000000
      0.00000000000    6.34165746346    0.00000000000    2.00000000000
      6.34165746346    0.00000000000    0.00000000000    2.00000000000
      0.00000000000   -6.34165746346    0.00000000000    2.00000000000
     -4.22777164231    4.22777164231   -2.11388582115    2.00000000000
      4.22777164231    4.22777164231   -2.11388582115    2.00000000000
      4.22777164231   -4.22777164231   -2.11388582115    2.00000000000
     -4.22777164231   -4.22777164231   -2.11388582115    2.00000000000
     -6.34165746346    2.11388582115    0.00000000000   -2.00000000000
     -2.11388582115    6.34165746346    0.00000000000   -2.00000000000
      6.34165746346   -2.11388582115    0.00000000000   -2.00000000000
      2.11388582115   -6.34165746346    0.00000000000   -2.00000000000
     -2.11388582115   -6.34165746346    0.00000000000   -2.00000000000
     -6.34165746346   -2.11388582115    0.00000000000   -2.00000000000
     -6.34165746346    0.00000000000   -2.11388582115   -2.00000000000
      0.00000000000    6.34165746346   -2.11388582115   -2.00000000000
      6.34165746346    0.00000000000   -2.11388582115   -2.00000000000
      0.00000000000   -6.34165746346   -2.11388582115   -2.00000000000
     -6.34165746346    2.11388582115   -2.11388582115    2.00000000000
     -2.11388582115    6.34165746346   -2.11388582115    2.00000000000
      2.11388582115    6.34165746346   -2.11388582115    2.00000000000
      6.34165746346    2.11388582115   -2.11388582115    2.00000000000
      6.34165746346   -2.11388582115   -2.11388582115    2.00000000000
      2.11388582115   -6.34165746346   -2.11388582115    2.00000000000
     -2.11388582115   -6.34165746346   -2.11388582115    2.00000000000
     -6.34165746346   -2.11388582115   -2.11388582115    2.00000000000
      4.22777164231    6.34165746346    0.00000000000    2.00000000000
      6.34165746346    4.22777164231    0.00000000000    2.00000000000
      4.22777164231    6.34165746346   -2.11388582115   -2.00000000000
      6.34165746346    4.22777164231   -2.11388582115   -2.00000000000
      0.00000000000    8.45554328461    0.00000000000   -2.00000000000
      8.45554328461    0.00000000000    0.00000000000   -2.00000000000
      2.11388582115    8.45554328461    0.00000000000    2.00000000000
      8.45554328461    2.11388582115    0.00000000000    2.00000000000
      0.00000000000    8.45554328461   -2.11388582115    2.00000000000
      8.45554328461    0.00000000000   -2.11388582115    2.00000000000
      6.34165746346    6.34165746346    0.00000000000   -2.00000000000
      2.11388582115    8.45554328461   -2.11388582115   -2.00000000000
      8.45554328461    2.11388582115   -2.11388582115   -2.00000000000
      6.34165746346    6.34165746346   -2.11388582115    2.00000000000
      4.22777164231    8.45554328461    0.00000000000   -2.00000000000
      8.45554328461    4.22777164231    0.00000000000   -2.00000000000
      4.22777164231    8.45554328461   -2.11388582115    2.00000000000
      8.45554328461    4.22777164231   -2.11388582115    2.00000000000
     -6.34165746346    4.22777164231    0.00000000000    2.00000000000
     -4.22777164231    6.34165746346    0.00000000000    2.00000000000
      6.34165746346   -4.22777164231    0.00000000000    2.00000000000
      4.22777164231   -6.34165746346    0.00000000000    2.00000000000
     -4.22777164231   -6.34165746346    0.00000000000    2.00000000000
     -6.34165746346   -4.22777164231    0.00000000000    2.00000000000
     -6.34165746346    4.22777164231   -2.11388582115   -2.00000000000
     -4.22777164231    6.34165746346   -2.11388582115   -2.00000000000
      6.34165746346   -4.22777164231   -2.11388582115   -2.00000000000
      4.22777164231   -6.34165746346   -2.11388582115   -2.00000000000
     -4.22777164231   -6.34165746346   -2.11388582115   -2.00000000000
     -6.34165746346   -4.22777164231   -2.11388582115   -2.00000000000
     -8.45554328461    0.00000000000    0.00000000000   -2.00000000000
      0.00000000000   -8.45554328461    0.00000000000   -2.00000000000
     -8.45554328461    2.11388582115    0.00000000000    2.00000000000
     -2.11388582115    8.45554328461    0.00000000000    2.00000000000
      8.45554328461   -2.11388582115    0.00000000000    2.00000000000
      2.11388582115   -8.45554328461    0.00000000000    2.00000000000
     -2.11388582115   -8.45554328461    0.00000000000    2.00000000000
     -8.45554328461   -2.11388582115    0.00000000000    2.00000000000
     -8.45554328461    0.00000000000   -2.11388582115    2.00000000000
      0.00000000000   -8.45554328461   -2.11388582115    2.00000000000
     -6.34165746346    6.34165746346    0.00000000000   -2.00000000000
      6.34165746346   -6.34165746346    0.00000000000   -2.00000000000
     -6.34165746346   -6.34165746346    0.00000000000   -2.00000000000
     -8.45554328461    2.11388582115   -2.11388582115   -2.00000000000
     -2.11388582115    8.45554328461   -2.11388582115   -2.00000000000
      8.45554328461   -2.11388582115   -2.11388582115   -2.00000000000
      2.11388582115   -8.45554328461   -2.11388582115   -2.00000000000
     -2.11388582115   -8.45554328461   -2.11388582115   -2.00000000000
     -8.45554328461   -2.11388582115   -2.11388582115   -2.00000000000
     -6.34165746346    6.34165746346   -2.11388582115    2.00000000000
      6.34165746346   -6.34165746346   -2.11388582115    2.00000000000
     -6.34165746346   -6.34165746346   -2.11388582115    2.00000000000
     -8.45554328461    4.22777164231    0.00000000000   -2.00000000000
     -4.22777164231    8.45554328461    0.00000000000   -2.00000000000
      8.45554328461   -4.22777164231    0.00000000000   -2.00000000000
      4.22777164231   -8.45554328461    0.00000000000   -2.00000000000
     -4.22777164231   -8.45554328461    0.00000000000   -2.00000000000
     -8.45554328461   -4.22777164231    0.00000000000   -2.00000000000
     -8.45554328461    4.22777164231   -2.11388582115    2.00000000000
     -4.22777164231    8.45554328461   -2.11388582115    2.00000000000
      8.45554328461   -4.22777164231   -2.11388582115    2.00000000000
      4.22777164231   -8.45554328461   -2.11388582115    2.00000000000
     -4.22777164231   -8.45554328461   -2.11388582115    2.00000000000
     -8.45554328461   -4.22777164231   -2.11388582115    2.00000000000
    -10.56942910577    0.00000000000    0.00000000000    2.00000000000
     -8.45554328461    6.34165746346    0.00000000000    2.00000000000
     -6.34165746346    8.45554328461    0.00000000000    2.00000000000
      0.00000000000   10.56942910577    0.00000000000    2.00000000000
      6.34165746346    8.45554328461    0.00000000000    2.00000000000
      8.45554328461    6.34165746346    0.00000000000    2.00000000000
     10.56942910577    0.00000000000    0.00000000000    2.00000000000
      8.45554328461   -6.34165746346    0.00000000000    2.00000000000
      6.34165746346   -8.45554328461    0.00000000000    2.00000000000
      0.00000000000  -10.56942910577    0.00000000000    2.00000000000
     -6.34165746346   -8.45554328461    0.00000000000    2.00000000000
     -8.45554328461   -6.34165746346    0.00000000000    2.00000000000
    -10.56942910577    2.11388582115    0.00000000000   -2.00000000000
     -2.11388582115   10.56942910577    0.00000000000   -2.00000000000
      2.11388582115   10.56942910577    0.00000000000   -2.00000000000
     10.56942910577    2.11388582115    0.00000000000   -2.00000000000
     10.56942910577   -2.11388582115    0.00000000000   -2.00000000000
      2.11388582115  -10.56942910577    0.00000000000   -2.00000000000
     -2.11388582115  -10.56942910577    0.00000000000   -2.00000000000
    -10.56942910577   -2.11388582115    0.00000000000   -2.00000000000
    -10.56942910577    0.00000000000   -2.11388582115   -2.00000000000
     -8.45554328461    6.34165746346   -2.11388582115   -2.00000000000
     -6.34165746346    8.45554328461   -2.11388582115   -2.00000000000
      0.00000000000   10.56942910577   -2.11388582115   -2.00000000000
      6.34165746346    8.45554328461   -2.11388582115   -2.00000000000
      8.45554328461    6.34165746346   -2.11388582115   -2.00000000000
     10.56942910577    0.00000000000   -2.11388582115   -2.00000000000
      8.45554328461   -6.34165746346   -2.11388582115   -2.00000000000
      6.34165746346   -8.45554328461   -2.11388582115   -2.00000000000
      0.00000000000  -10.56942910577   -2.11388582115   -2.00000000000
     -6.34165746346   -8.45554328461   -2.11388582115   -2.00000000000
     -8.45554328461   -6.34165746346   -2.11388582115   -2.00000000000
    -10.56942910577    2.11388582115   -2.11388582115    2.00000000000
     -2.11388582115   10.56942910577   -2.11388582115    2.00000000000
      2.11388582115   10.56942910577   -2.11388582115    2.00000000000
     10.56942910577    2.11388582115   -2.11388582115    2.00000000000
     10.56942910577   -2.11388582115   -2.11388582115    2.00000000000
      2.11388582115  -10.56942910577   -2.11388582115    2.00000000000
     -2.11388582115  -10.56942910577   -2.11388582115    2.00000000000
    -10.56942910577   -2.11388582115   -2.11388582115    2.00000000000
    -10.56942910577    4.22777164231    0.00000000000    2.00000000000
     -4.22777164231   10.56942910577    0.00000000000    2.00000000000
      4.22777164231   10.56942910577    0.00000000000    2.00000000000
     10.56942910577    4.22777164231    0.00000000000    2.00000000000
     10.56942910577   -4.22777164231    0.00000000000    2.00000000000
      4.22777164231  -10.56942910577    0.00000000000    2.00000000000
     -4.22777164231  -10.56942910577    0.00000000000    2.00000000000
    -10.56942910577   -4.22777164231    0.00000000000    2.00000000000
    -10.56942910577    4.22777164231   -2.11388582115   -2.00000000000
     -4.22777164231   10.56942910577   -2.11388582115   -2.00000000000
      4.22777164231   10.56942910577   -2.11388582115   -2.00000000000
     10.56942910577    4.22777164231   -2.11388582115   -2.00000000000
     10.56942910577   -4.22777164231   -2.11388582115   -2.00000000000
      4.22777164231  -10.56942910577   -2.11388582115   -2.00000000000
     -4.22777164231  -10.56942910577   -2.11388582115   -2.00000000000
    -10.56942910577   -4.22777164231   -2.11388582115   -2.00000000000
     -8.45554328461    8.45554328461    0.00000000000   -2.00000000000
      8.45554328461    8.45554328461    0.00000000000   -2.00000000000
      8.45554328461   -8.45554328461    0.00000000000   -2.00000000000
     -8.45554328461   -8.45554328461    0.00000000000   -2.00000000000
     -8.45554328461    8.45554328461   -2.11388582115    2.00000000000
      8.45554328461    8.45554328461   -2.11388582115    2.00000000000
      8.45554328461   -8.45554328461   -2.11388582115    2.00000000000
     -8.45554328461   -8.45554328461   -2.11388582115    2.00000000000
    -10.56942910577    6.34165746346    0.00000000000   -2.00000000000
     -6.34165746346   10.56942910577    0.00000000000   -2.00000000000
      6.34165746346   10.56942910577    0.00000000000   -2.00000000000
     10.56942910577    6.34165746346    0.00000000000   -2.00000000000
     10.56942910577   -6.34165746346    0.00000000000   -2.00000000000
      6.34165746346  -10.56942910577    0.00000000000   -2.00000000000
     -6.34165746346  -10.56942910577    0.00000000000   -2.00000000000
    -10.56942910577   -6.34165746346    0.00000000000   -2.00000000000
    -10.56942910577    6.34165746346   -2.11388582115    2.00000000000
     -6.34165746346   10.56942910577   -2.11388582115    2.00000000000
      6.34165746346   10.56942910577   -2.11388582115    2.00000000000
     10.56942910577    6.34165746346   -2.11388582115    2.00000000000
     10.56942910577   -6.34165746346   -2.11388582115    2.00000000000
      6.34165746346  -10.56942910577   -2.11388582115    2.00000000000
     -6.34165746346  -10.56942910577   -2.11388582115    2.00000000000
    -10.56942910577   -6.34165746346   -2.11388582115    2.00000000000
    -12.68331492692    0.00000000000    0.00000000000   -2.00000000000
      0.00000000000   12.68331492692    0.00000000000   -2.00000000000
     12.68331492692    0.00000000000    0.00000000000   -2.00000000000
      0.00000000000  -12.68331492692    0.00000000000   -2.00000000000
    -12.68331492692    2.11388582115    0.00000000000    2.00000000000
     -2.11388582115   12.68331492692    0.00000000000    2.00000000000
      2.11388582115   12.68331492692    0.00000000000    2.00000000000
     12.68331492692    2.11388582115    0.00000000000    2.00000000000
     12.68331492692   -2.11388582115    0.00000000000    2.00000000000
      2.11388582115  -12.68331492692    0.00000000000    2.00000000000
     -2.11388582115  -12.68331492692    0.00000000000    2.00000000000
    -12.68331492692   -2.11388582115    0.00000000000    2.00000000000
    -12.68331492692    0.00000000000   -2.11388582115    2.00000000000
      0.00000000000   12.68331492692   -2.11388582115    2.00000000000
     12.68331492692    0.00000000000   -2.11388582115    2.00000000000
      0.00000000000  -12.68331492692   -2.11388582115    2.00000000000
    -12.68331492692    2.11388582115   -2.11388582115   -2.00000000000
     -2.11388582115   12.68331492692   -2.11388582115   -2.00000000000
      2.11388582115   12.68331492692   -2.11388582115   -2.00000000000
     12.68331492692    2.11388582115   -2.11388582115   -2.00000000000
     12.68331492692   -2.11388582115   -2.11388582115   -2.00000000000
      2.11388582115  -12.68331492692   -2.11388582115   -2.00000000000
     -2.11388582115  -12.68331492692   -2.11388582115   -2.00000000000
    -12.68331492692   -2.11388582115   -2.11388582115   -2.00000000000
    -12.68331492692    4.22777164231    0.00000000000   -2.00000000000
     -4.22777164231   12.68331492692    0.00000000000   -2.00000000000
      4.22777164231   12.68331492692    0.00000000000   -2.00000000000
     12.68331492692    4.22777164231    0.00000000000   -2.00000000000
     12.68331492692   -4.22777164231    0.00000000000   -2.00000000000
      4.22777164231  -12.68331492692    0.00000000000   -2.00000000000
     -4.22777164231  -12.68331492692    0.00000000000   -2.00000000000
    -12.68331492692   -4.22777164231    0.00000000000   -2.00000000000
    -10.56942910577    8.45554328461    0.00000000000    2.00000000000
     -8.45554328461   10.56942910577    0.00000000000    2.00000000000
      8.45554328461   10.56942910577    0.00000000000    2.00000000000
     10.56942910577    8.45554328461    0.00000000000    2.00000000000
     10.56942910577   -8.45554328461    0.00000000000    2.00000000000
      8.45554328461  -10.56942910577    0.00000000000    2.00000000000
     -8.45554328461  -10.56942910577    0.00000000000    2.00000000000
    -10.56942910577   -8.45554328461    0.00000000000    2.00000000000
    -12.68331492692    4.22777164231   -2.11388582115    2.00000000000
     -4.22777164231   12.68331492692   -2.11388582115    2.00000000000
      4.22777164231   12.68331492692   -2.11388582115    2.00000000000
     12.68331492692    4.22777164231   -2.11388582115    2.00000000000
     12.68331492692   -4.22777164231   -2.11388582115    2.00000000000
      4.22777164231  -12.68331492692   -2.11388582115    2.00000000000
     -4.22777164231  -12.68331492692   -2.11388582115    2.00000000000
    -12.68331492692   -4.22777164231   -2.11388582115    2.00000000000
    -10.56942910577    8.45554328461   -2.11388582115   -2.00000000000
     -8.45554328461   10.56942910577   -2.11388582115   -2.00000000000
      8.45554328461   10.56942910577   -2.11388582115   -2.00000000000
     10.56942910577    8.45554328461   -2.11388582115   -2.00000000000
     10.56942910577   -8.45554328461   -2.11388582115   -2.00000000000
      8.45554328461  -10.56942910577   -2.11388582115   -2.00000000000
     -8.45554328461  -10.56942910577   -2.11388582115   -2.00000000000
    -10.56942910577   -8.45554328461   -2.11388582115   -2.00000000000
    -12.68331492692    6.34165746346    0.00000000000    2.00000000000
     -6.34165746346   12.68331492692    0.00000000000    2.00000000000
      6.34165746346   12.68331492692    0.00000000000    2.00000000000
     12.68331492692    6.34165746346    0.00000000000    2.00000000000
     12.68331492692   -6.34165746346    0.00000000000    2.00000000000
      6.34165746346  -12.68331492692    0.00000000000    2.00000000000
     -6.34165746346  -12.68331492692    0.00000000000    2.00000000000
    -12.68331492692   -6.34165746346    0.00000000000    2.00000000000
    -12.68331492692    6.34165746346   -2.11388582115   -2.00000000000
     -6.34165746346   12.68331492692   -2.11388582115   -2.00000000000
      6.34165746346   12.68331492692   -2.11388582115   -2.00000000000
     12.68331492692    6.34165746346   -2.11388582115   -2.00000000000
     12.68331492692   -6.34165746346   -2.11388582115   -2.00000000000
      6.34165746346  -12.68331492692   -2.11388582115   -2.00000000000
     -6.34165746346  -12.68331492692   -2.11388582115   -2.00000000000
    -12.68331492692   -6.34165746346   -2.11388582115   -2.00000000000
    -14.79720074808    0.00000000000    0.00000000000    2.00000000000
      0.00000000000   14.79720074808    0.00000000000    2.00000000000
     14.79720074808    0.00000000000    0.00000000000    2.00000000000
      0.00000000000  -14.79720074808    0.00000000000    2.00000000000
    -14.79720074808    2.11388582115    0.00000000000   -2.00000000000
    -10.56942910577   10.56942910577    0.00000000000   -2.00000000000
     -2.11388582115   14.79720074808    0.00000000000   -2.00000000000
      2.11388582115   14.79720074808    0.00000000000   -2.00000000000
     10.56942910577   10.56942910577    0.00000000000   -2.00000000000
     14.79720074808    2.11388582115    0.00000000000   -2.00000000000
     14.79720074808   -2.11388582115    0.00000000000   -2.00000000000
     10.56942910577  -10.56942910577    0.00000000000   -2.00000000000
      2.11388582115  -14.79720074808    0.00000000000   -2.00000000000
     -2.11388582115  -14.79720074808    0.00000000000   -2.00000000000
    -10.56942910577  -10.56942910577    0.00000000000   -2.00000000000
    -14.79720074808   -2.11388582115    0.00000000000   -2.00000000000
    -14.79720074808    0.00000000000   -2.11388582115   -2.00000000000
      0.00000000000   14.79720074808   -2.11388582115   -2.00000000000
     14.79720074808    0.00000000000   -2.11388582115   -2.00000000000
      0.00000000000  -14.79720074808   -2.11388582115   -2.00000000000
    -14.79720074808    2.11388582115   -2.11388582115    2.00000000000
    -10.56942910577   10.56942910577   -2.11388582115    2.00000000000
     -2.11388582115   14.79720074808   -2.11388582115    2.00000000000
      2.11388582115   14.79720074808   -2.11388582115    2.00000000000
     10.56942910577   10.56942910577   -2.11388582115    2.00000000000
     14.79720074808    2.11388582115   -2.11388582115    2.00000000000
     14.79720074808   -2.11388582115   -2.11388582115    2.00000000000
     10.56942910577  -10.56942910577   -2.11388582115    2.00000000000
      2.11388582115  -14.79720074808   -2.11388582115    2.00000000000
     -2.11388582115  -14.79720074808   -2.11388582115    2.00000000000
    -10.56942910577  -10.56942910577   -2.11388582115    2.00000000000
    -14.79720074808   -2.11388582115   -2.11388582115    2.00000000000
    -12.68331492692    8.45554328461    0.00000000000   -2.00000000000
     -8.45554328461   12.68331492692    0.00000000000   -2.00000000000
      8.45554328461   12.68331492692    0.00000000000   -2.00000000000
     12.68331492692    8.45554328461    0.00000000000   -2.00000000000
     12.68331492692   -8.45554328461    0.00000000000   -2.00000000000
      8.45554328461  -12.68331492692    0.00000000000   -2.00000000000
     -8.45554328461  -12.68331492692    0.00000000000   -2.00000000000
    -12.68331492692   -8.45554328461    0.00000000000   -2.00000000000
    -14.79720074808    4.22777164231    0.00000000000    2.00000000000
     -4.22777164231   14.79720074808    0.00000000000    2.00000000000
      4.22777164231   14.79720074808    0.00000000000    2.00000000000
     14.79720074808    4.22777164231    0.00000000000    2.00000000000
     14.79720074808   -4.22777164231    0.00000000000    2.00000000000
      4.22777164231  -14.79720074808    0.00000000000    2.00000000000
     -4.22777164231  -14.79720074808    0.00000000000    2.00000000000
    -14.79720074808   -4.22777164231    0.00000000000    2.00000000000
    -12.68331492692    8.45554328461   -2.11388582115    2.00000000000
     -8.45554328461   12.68331492692   -2.11388582115    2.00000000000
      8.45554328461   12.68331492692   -2.11388582115    2.00000000000
     12.68331492692    8.45554328461   -2.11388582115    2.00000000000
     12.68331492692   -8.45554328461   -2.11388582115    2.00000000000
      8.45554328461  -12.68331492692   -2.11388582115    2.00000000000
     -8.45554328461  -12.68331492692   -2.11388582115    2.00000000000
    -12.68331492692   -8.45554328461   -2.11388582115    2.00000000000
    -14.79720074808    4.22777164231   -2.11388582115   -2.00000000000
     -4.22777164231   14.79720074808   -2.11388582115   -2.00000000000
      4.22777164231   14.79720074808   -2.11388582115   -2.00000000000
     14.79720074808    4.22777164231   -2.11388582115   -2.00000000000
     14.79720074808   -4.22777164231   -2.11388582115   -2.00000000000
      4.22777164231  -14.79720074808   -2.11388582115   -2.00000000000
     -4.22777164231  -14.79720074808   -2.11388582115   -2.00000000000
    -14.79720074808   -4.22777164231   -2.11388582115   -2.00000000000
    -14.79720074808    6.34165746346    0.00000000000   -2.00000000000
     -6.34165746346   14.79720074808    0.00000000000   -2.00000000000
      6.34165746346   14.79720074808    0.00000000000   -2.00000000000
     14.79720074808    6.34165746346    0.00000000000   -2.00000000000
     14.79720074808   -6.34165746346    0.00000000000   -2.00000000000
      6.34165746346  -14.79720074808    0.00000000000   -2.00000000000
     -6.34165746346  -14.79720074808    0.00000000000   -2.00000000000
    -14.79720074808   -6.34165746346    0.00000000000   -2.00000000000
    -14.79720074808    6.34165746346   -2.11388582115    2.00000000000
     -6.34165746346   14.79720074808   -2.11388582115    2.00000000000
      6.34165746346   14.79720074808   -2.11388582115    2.00000000000
     14.79720074808    6.34165746346   -2.11388582115    2.00000000000
     14.79720074808   -6.34165746346   -2.11388582115    2.00000000000
      6.34165746346  -14.79720074808   -2.11388582115    2.00000000000
     -6.34165746346  -14.79720074808   -2.11388582115    2.00000000000
    -14.79720074808   -6.34165746346   -2.11388582115    2.00000000000
    -12.68331492692   10.56942910577    0.00000000000    2.00000000000
    -10.56942910577   12.68331492692    0.00000000000    2.00000000000
     10.56942910577   12.68331492692    0.00000000000    2.00000000000
     12.68331492692   10.56942910577    0.00000000000    2.00000000000
     12.68331492692  -10.56942910577    0.00000000000    2.00000000000
     10.56942910577  -12.68331492692    0.00000000000    2.00000000000
    -10.56942910577  -12.68331492692    0.00000000000    2.00000000000
    -12.68331492692  -10.56942910577    0.00000000000    2.00000000000
    -12.68331492692   10.56942910577   -2.11388582115   -2.00000000000
    -10.56942910577   12.68331492692   -2.11388582115   -2.00000000000
     10.56942910577   12.68331492692   -2.11388582115   -2.00000000000
     12.68331492692   10.56942910577   -2.11388582115   -2.00000000000
     12.68331492692  -10.56942910577   -2.11388582115   -2.00000000000
     10.56942910577  -12.68331492692   -2.11388582115   -2.00000000000
    -10.56942910577  -12.68331492692   -2.11388582115   -2.00000000000
    -12.68331492692  -10.56942910577   -2.11388582115   -2.00000000000
    -16.91108656923    0.00000000000    0.00000000000   -2.00000000000
      0.00000000000   16.91108656923    0.00000000000   -2.00000000000
     16.91108656923    0.00000000000    0.00000000000   -2.00000000000
      0.00000000000  -16.91108656923    0.00000000000   -2.00000000000
    -16.91108656923    2.11388582115    0.00000000000    2.00000000000
    -14.79720074808    8.45554328461    0.00000000000    2.00000000000
     -8.45554328461   14.79720074808    0.00000000000    2.00000000000
     -2.11388582115   16.91108656923    0.00000000000    2.00000000000
      2.11388582115   16.91108656923    0.00000000000    2.00000000000
      8.45554328461   14.79720074808    0.00000000000    2.00000000000
     14.79720074808    8.45554328461    0.00000000000    2.00000000000
     16.91108656923    2.11388582115    0.00000000000    2.00000000000
     16.91108656923   -2.11388582115    0.00000000000    2.00000000000
     14.79720074808   -8.45554328461    0.00000000000    2.00000000000
      8.45554328461  -14.79720074808    0.00000000000    2.00000000000
      2.11388582115  -16.91108656923    0.00000000000    2.00000000000
     -2.11388582115  -16.91108656923    0.00000000000    2.00000000000
     -8.45554328461  -14.79720074808    0.00000000000    2.00000000000
    -14.79720074808   -8.45554328461    0.00000000000    2.00000000000
    -16.91108656923   -2.11388582115    0.00000000000    2.00000000000
    -16.91108656923    0.00000000000   -2.11388582115    2.00000000000
      0.00000000000   16.91108656923   -2.11388582115    2.00000000000
     16.91108656923    0.00000000000   -2.11388582115    2.00000000000
      0.00000000000  -16.91108656923   -2.11388582115    2.00000000000
    -16.91108656923    2.11388582115   -2.11388582115   -2.00000000000
    -14.79720074808    8.45554328461   -2.11388582115   -2.00000000000
     -8.45554328461   14.79720074808   -2.11388582115   -2.00000000000
     -2.11388582115   16.91108656923   -2.11388582115   -2.00000000000
      2.11388582115   16.91108656923   -2.11388582115   -2.00000000000
      8.45554328461   14.79720074808   -2.11388582115   -2.00000000000
     14.79720074808    8.45554328461   -2.11388582115   -2.00000000000
     16.91108656923    2.11388582115   -2.11388582115   -2.00000000000
     16.91108656923   -2.11388582115   -2.11388582115   -2.00000000000
     14.79720074808   -8.45554328461   -2.11388582115   -2.00000000000
      8.45554328461  -14.79720074808   -2.11388582115   -2.00000000000
      2.11388582115  -16.91108656923   -2.11388582115   -2.00000000000
     -2.11388582115  -16.91108656923   -2.11388582115   -2.00000000000
     -8.45554328461  -14.79720074808   -2.11388582115   -2.00000000000
    -14.79720074808   -8.45554328461   -2.11388582115   -2.00000000000
    -16.91108656923   -2.11388582115   -2.11388582115   -2.00000000000
    -16.91108656923    4.22777164231    0.00000000000   -2.00000000000
     -4.22777164231   16.91108656923    0.00000000000   -2.00000000000
      4.22777164231   16.91108656923    0.00000000000   -2.00000000000
     16.91108656923    4.22777164231    0.00000000000   -2.00000000000
     16.91108656923   -4.22777164231    0.00000000000   -2.00000000000
      4.22777164231  -16.91108656923    0.00000000000   -2.00000000000
     -4.22777164231  -16.91108656923    0.00000000000   -2.00000000000
    -16.91108656923   -4.22777164231    0.00000000000   -2.00000000000
    -16.91108656923    4.22777164231   -2.11388582115    2.00000000000
     -4.22777164231   16.91108656923   -2.11388582115    2.00000000000
      4.22777164231   16.91108656923   -2.11388582115    2.00000000000
     16.91108656923    4.22777164231   -2.11388582115    2.00000000000
     16.91108656923   -4.22777164231   -2.11388582115    2.00000000000
      4.22777164231  -16.91108656923   -2.11388582115    2.00000000000
     -4.22777164231  -16.91108656923   -2.11388582115    2.00000000000
    -16.91108656923   -4.22777164231   -2.11388582115    2.00000000000
    -12.68331492692   12.68331492692    0.00000000000   -2.00000000000
     12.68331492692   12.68331492692    0.00000000000   -2.00000000000
     12.68331492692  -12.68331492692    0.00000000000   -2.00000000000
    -12.68331492692  -12.68331492692    0.00000000000   -2.00000000000
    -16.91108656923    6.34165746346    0.00000000000    2.00000000000
     -6.34165746346   16.91108656923    0.00000000000    2.00000000000
      6.34165746346   16.91108656923    0.00000000000    2.00000000000
     16.91108656923    6.34165746346    0.00000000000    2.00000000000
     16.91108656923   -6.34165746346    0.00000000000    2.00000000000
      6.34165746346  -16.91108656923    0.00000000000    2.00000000000
     -6.34165746346  -16.91108656923    0.00000000000    2.00000000000
    -16.91108656923   -6.34165746346    0.00000000000    2.00000000000
    -12.68331492692   12.68331492692   -2.11388582115    2.00000000000
     12.68331492692   12.68331492692   -2.11388582115    2.00000000000
     12.68331492692  -12.68331492692   -2.11388582115    2.00000000000
    -12.68331492692  -12.68331492692   -2.11388582115    2.00000000000
    -14.79720074808   10.56942910577    0.00000000000   -2.00000000000
    -10.56942910577   14.79720074808    0.00000000000   -2.00000000000
     10.56942910577   14.79720074808    0.00000000000   -2.00000000000
     14.79720074808   10.56942910577    0.00000000000   -2.00000000000
     14.79720074808  -10.56942910577    0.00000000000   -2.00000000000
     10.56942910577  -14.79720074808    0.00000000000   -2.00000000000
    -10.56942910577  -14.79720074808    0.00000000000   -2.00000000000
    -14.79720074808  -10.56942910577    0.00000000000   -2.00000000000
    -16.91108656923    6.34165746346   -2.11388582115   -2.00000000000
     -6.34165746346   16.91108656923   -2.11388582115   -2.00000000000
      6.34165746346   16.91108656923   -2.11388582115   -2.00000000000
     16.91108656923    6.34165746346   -2.11388582115   -2.00000000000
     16.91108656923   -6.34165746346   -2.11388582115   -2.00000000000
      6.34165746346  -16.91108656923   -2.11388582115   -2.00000000000
     -6.34165746346  -16.91108656923   -2.11388582115   -2.00000000000
    -16.91108656923   -6.34165746346   -2.11388582115   -2.00000000000
    -14.79720074808   10.56942910577   -2.11388582115    2.00000000000
    -10.56942910577   14.79720074808   -2.11388582115    2.00000000000
     10.56942910577   14.79720074808   -2.11388582115    2.00000000000
     14.79720074808   10.56942910577   -2.11388582115    2.00000000000
     14.79720074808  -10.56942910577   -2.11388582115    2.00000000000
     10.56942910577  -14.79720074808   -2.11388582115    2.00000000000
    -10.56942910577  -14.79720074808   -2.11388582115    2.00000000000
    -14.79720074808  -10.56942910577   -2.11388582115    2.00000000000
    -16.91108656923    8.45554328461    0.00000000000   -2.00000000000
     -8.45554328461   16.91108656923    0.00000000000   -2.00000000000
      8.45554328461   16.91108656923    0.00000000000   -2.00000000000
     16.91108656923    8.45554328461    0.00000000000   -2.00000000000
     16.91108656923   -8.45554328461    0.00000000000   -2.00000000000
      8.45554328461  -16.91108656923    0.00000000000   -2.00000000000
     -8.45554328461  -16.91108656923    0.00000000000   -2.00000000000
    -16.91108656923   -8.45554328461    0.00000000000   -2.00000000000
    -19.02497239038    0.00000000000    0.00000000000    2.00000000000
      0.00000000000   19.02497239038    0.00000000000    2.00000000000
     19.02497239038    0.00000000000    0.00000000000    2.00000000000
      0.00000000000  -19.02497239038    0.00000000000    2.00000000000
    -16.91108656923    8.45554328461   -2.11388582115    2.00000000000
     -8.45554328461   16.91108656923   -2.11388582115    2.00000000000
      8.45554328461   16.91108656923   -2.11388582115    2.00000000000
     16.91108656923    8.45554328461   -2.11388582115    2.00000000000
     16.91108656923   -8.45554328461   -2.11388582115    2.00000000000
      8.45554328461  -16.91108656923   -2.11388582115    2.00000000000
     -8.45554328461  -16.91108656923   -2.11388582115    2.00000000000
    -16.91108656923   -8.45554328461   -2.11388582115    2.00000000000
    -19.02497239038    2.11388582115    0.00000000000   -2.00000000000
     -2.11388582115   19.02497239038    0.00000000000   -2.00000000000
      2.11388582115   19.02497239038    0.00000000000   -2.00000000000
     19.02497239038    2.11388582115    0.00000000000   -2.00000000000
     19.02497239038   -2.11388582115    0.00000000000   -2.00000000000
      2.11388582115  -19.02497239038    0.00000000000   -2.00000000000
     -2.11388582115  -19.02497239038    0.00000000000   -2.00000000000
    -19.02497239038   -2.11388582115    0.00000000000   -2.00000000000
    -19.02497239038    0.00000000000   -2.11388582115   -2.00000000000
      0.00000000000   19.02497239038   -2.11388582115   -2.00000000000
     19.02497239038    0.00000000000   -2.11388582115   -2.00000000000
      0.00000000000  -19.02497239038   -2.11388582115   -2.00000000000
    -19.02497239038    2.11388582115   -2.11388582115    2.00000000000
     -2.11388582115   19.02497239038   -2.11388582115    2.00000000000
      2.11388582115   19.02497239038   -2.11388582115    2.00000000000
     19.02497239038    2.11388582115   -2.11388582115    2.00000000000
     19.02497239038   -2.11388582115   -2.11388582115    2.00000000000
      2.11388582115  -19.02497239038   -2.11388582115    2.00000000000
     -2.11388582115  -19.02497239038   -2.11388582115    2.00000000000
    -19.02497239038   -2.11388582115   -2.11388582115    2.00000000000
    -19.02497239038    4.22777164231    0.00000000000    2.00000000000
    -14.79720074808   12.68331492692    0.00000000000    2.00000000000
    -12.68331492692   14.79720074808    0.00000000000    2.00000000000
     -4.22777164231   19.02497239038    0.00000000000    2.00000000000
      4.22777164231   19.02497239038    0.00000000000    2.00000000000
     12.68331492692   14.79720074808    0.00000000000    2.00000000000
     14.79720074808   12.68331492692    0.00000000000    2.00000000000
     19.02497239038    4.22777164231    0.00000000000    2.00000000000
     19.02497239038   -4.22777164231    0.00000000000    2.00000000000
     14.79720074808  -12.68331492692    0.00000000000    2.00000000000
     12.68331492692  -14.79720074808    0.00000000000    2.00000000000
      4.22777164231  -19.02497239038    0.00000000000    2.00000000000
     -4.22777164231  -19.02497239038    0.00000000000    2.00000000000
    -12.68331492692  -14.79720074808    0.00000000000    2.00000000000
    -14.79720074808  -12.68331492692    0.00000000000    2.00000000000
    -19.02497239038   -4.22777164231    0.00000000000    2.00000000000
    -19.02497239038    4.22777164231   -2.11388582115   -2.00000000000
    -14.79720074808   12.68331492692   -2.11388582115   -2.00000000000
    -12.68331492692   14.79720074808   -2.11388582115   -2.00000000000
     -4.22777164231   19.02497239038   -2.11388582115   -2.00000000000
      4.22777164231   19.02497239038   -2.11388582115   -2.00000000000
     12.68331492692   14.79720074808   -2.11388582115   -2.00000000000
     14.79720074808   12.68331492692   -2.11388582115   -2.00000000000
     19.02497239038    4.22777164231   -2.11388582115   -2.00000000000
     19.02497239038   -4.22777164231   -2.11388582115   -2.00000000000
     14.79720074808  -12.68331492692   -2.11388582115   -2.00000000000
     12.68331492692  -14.79720074808   -2.11388582115   -2.00000000000
      4.22777164231  -19.02497239038   -2.11388582115   -2.00000000000
     -4.22777164231  -19.02497239038   -2.11388582115   -2.00000000000
    -12.68331492692  -14.79720074808   -2.11388582115   -2.00000000000
    -14.79720074808  -12.68331492692   -2.11388582115   -2.00000000000
    -19.02497239038   -4.22777164231   -2.11388582115   -2.00000000000
    -16.91108656923   10.56942910577    0.00000000000    2.00000000000
    -10.56942910577   16.91108656923    0.00000000000    2.00000000000
     10.56942910577   16.91108656923    0.00000000000    2.00000000000
     16.91108656923   10.56942910577    0.00000000000    2.00000000000
     16.91108656923  -10.56942910577    0.00000000000    2.00000000000
     10.56942910577  -16.91108656923    0.00000000000    2.00000000000
    -10.56942910577  -16.91108656923    0.00000000000    2.00000000000
    -16.91108656923  -10.56942910577    0.00000000000    2.00000000000
    -19.02497239038    6.34165746346    0.00000000000   -2.00000000000
     -6.34165746346   19.02497239038    0.00000000000   -2.00000000000
      6.34165746346   19.02497239038    0.00000000000   -2.00000000000
     19.02497239038    6.34165746346    0.00000000000   -2.00000000000
     19.02497239038   -6.34165746346    0.00000000000   -2.00000000000
      6.34165746346  -19.02497239038    0.00000000000   -2.00000000000
     -6.34165746346  -19.02497239038    0.00000000000   -2.00000000000
    -19.02497239038   -6.34165746346    0.00000000000   -2.00000000000
    -16.91108656923   10.56942910577   -2.11388582115   -2.00000000000
    -10.56942910577   16.91108656923   -2.11388582115   -2.00000000000
     10.56942910577   16.91108656923   -2.11388582115   -2.00000000000
     16.91108656923   10.56942910577   -2.11388582115   -2.00000000000
     16.91108656923  -10.56942910577   -2.11388582115   -2.00000000000
     10.56942910577  -16.91108656923   -2.11388582115   -2.00000000000
    -10.56942910577  -16.91108656923   -2.11388582115   -2.00000000000
    -16.91108656923  -10.56942910577   -2.11388582115   -2.00000000000
    -19.02497239038    6.34165746346   -2.11388582115    2.00000000000
     -6.34165746346   19.02497239038   -2.11388582115    2.00000000000
      6.34165746346   19.02497239038   -2.11388582115    2.00000000000
     19.02497239038    6.34165746346   -2.11388582115    2.00000000000
     19.02497239038   -6.34165746346   -2.11388582115    2.00000000000
      6.34165746346  -19.02497239038   -2.11388582115    2.00000000000
     -6.34165746346  -19.02497239038   -2.11388582115    2.00000000000
    -19.02497239038   -6.34165746346   -2.11388582115    2.00000000000
    -19.02497239038    8.45554328461    0.00000000000    2.00000000000
     -8.45554328461   19.02497239038    0.00000000000    2.00000000000
      8.45554328461   19.02497239038    0.00000000000    2.00000000000
     19.02497239038    8.45554328461    0.00000000000    2.00000000000
     19.02497239038   -8.45554328461    0.00000000000    2.00000000000
      8.45554328461  -19.02497239038    0.00000000000    2.00000000000
     -8.45554328461  -19.02497239038    0.00000000000    2.00000000000
    -19.02497239038   -8.45554328461    0.00000000000    2.00000000000
    -14.79720074808   14.79720074808    0.00000000000   -2.00000000000
     14.79720074808   14.79720074808    0.00000000000   -2.00000000000
     14.79720074808  -14.79720074808    0.00000000000   -2.00000000000
    -14.79720074808  -14.79720074808    0.00000000000   -2.00000000000
    -19.02497239038    8.45554328461   -2.11388582115   -2.00000000000
     -8.45554328461   19.02497239038   -2.11388582115   -2.00000000000
      8.45554328461   19.02497239038   -2.11388582115   -2.00000000000
     19.02497239038    8.45554328461   -2.11388582115   -2.00000000000
     19.02497239038   -8.45554328461   -2.11388582115   -2.00000000000
      8.45554328461  -19.02497239038   -2.11388582115   -2.00000000000
     -8.45554328461  -19.02497239038   -2.11388582115   -2.00000000000
    -19.02497239038   -8.45554328461   -2.11388582115   -2.00000000000
    -14.79720074808   14.79720074808   -2.11388582115    2.00000000000
     14.79720074808   14.79720074808   -2.11388582115    2.00000000000
     14.79720074808  -14.79720074808   -2.11388582115    2.00000000000
    -14.79720074808  -14.79720074808   -2.11388582115    2.00000000000
    -21.13885821154    0.00000000000    0.00000000000   -2.00000000000
    -16.91108656923   12.68331492692    0.00000000000   -2.00000000000
    -12.68331492692   16.91108656923    0.00000000000   -2.00000000000
      0.00000000000   21.13885821154    0.00000000000   -2.00000000000
     12.68331492692   16.91108656923    0.00000000000   -2.00000000000
     16.91108656923   12.68331492692    0.00000000000   -2.00000000000
     21.13885821154    0.00000000000    0.00000000000   -2.00000000000
     16.91108656923  -12.68331492692    0.00000000000   -2.00000000000
     12.68331492692  -16.91108656923    0.00000000000   -2.00000000000
      0.00000000000  -21.13885821154    0.00000000000   -2.00000000000
    -12.68331492692  -16.91108656923    0.00000000000   -2.00000000000
    -16.91108656923  -12.68331492692    0.00000000000   -2.00000000000
    -21.13885821154    2.11388582115    0.00000000000    2.00000000000
     -2.11388582115   21.13885821154    0.00000000000    2.00000000000
      2.11388582115   21.13885821154    0.00000000000    2.00000000000
     21.13885821154    2.11388582115    0.00000000000    2.00000000000
     21.13885821154   -2.11388582115    0.00000000000    2.00000000000
      2.11388582115  -21.13885821154    0.00000000000    2.00000000000
     -2.11388582115  -21.13885821154    0.00000000000    2.00000000000
    -21.13885821154   -2.11388582115    0.00000000000    2.00000000000
    -21.13885821154    0.00000000000   -2.11388582115    2.00000000000
    -16.91108656923   12.68331492692   -2.11388582115    2.00000000000
    -12.68331492692   16.91108656923   -2.11388582115    2.00000000000
      0.00000000000   21.13885821154   -2.11388582115    2.00000000000
     12.68331492692   16.91108656923   -2.11388582115    2.00000000000
     16.91108656923   12.68331492692   -2.11388582115    2.00000000000
     21.13885821154    0.00000000000   -2.11388582115    2.00000000000
     16.91108656923  -12.68331492692   -2.11388582115    2.00000000000
     12.68331492692  -16.91108656923   -2.11388582115    2.00000000000
      0.00000000000  -21.13885821154   -2.11388582115    2.00000000000
    -12.68331492692  -16.91108656923   -2.11388582115    2.00000000000
    -16.91108656923  -12.68331492692   -2.11388582115    2.00000000000
    -21.13885821154    2.11388582115   -2.11388582115   -2.00000000000
     -2.11388582115   21.13885821154   -2.11388582115   -2.00000000000
      2.11388582115   21.13885821154   -2.11388582115   -2.00000000000
     21.13885821154    2.11388582115   -2.11388582115   -2.00000000000
     21.13885821154   -2.11388582115   -2.11388582115   -2.00000000000
      2.11388582115  -21.13885821154   -2.11388582115   -2.00000000000
     -2.11388582115  -21.13885821154   -2.11388582115   -2.00000000000
    -21.13885821154   -2.11388582115   -2.11388582115   -2.00000000000
    -21.13885821154    4.22777164231    0.00000000000   -2.00000000000
     -4.22777164231   21.13885821154    0.00000000000   -2.00000000000
      4.22777164231   21.13885821154    0.00000000000   -2.00000000000
     21.13885821154    4.22777164231    0.00000000000   -2.00000000000
     21.13885821154   -4.22777164231    0.00000000000   -2.00000000000
      4.22777164231  -21.13885821154    0.00000000000   -2.00000000000
     -4.22777164231  -21.13885821154    0.00000000000   -2.00000000000
    -21.13885821154   -4.22777164231    0.00000000000   -2.00000000000
    -21.13885821154    4.22777164231   -2.11388582115    2.00000000000
     -4.22777164231   21.13885821154   -2.11388582115    2.00000000000
      4.22777164231   21.13885821154   -2.11388582115    2.00000000000
     21.13885821154    4.22777164231   -2.11388582115    2.00000000000
     21.13885821154   -4.22777164231   -2.11388582115    2.00000000000
      4.22777164231  -21.13885821154   -2.11388582115    2.00000000000
     -4.22777164231  -21.13885821154   -2.11388582115    2.00000000000
    -21.13885821154   -4.22777164231   -2.11388582115    2.00000000000
    -19.02497239038   10.56942910577    0.00000000000   -2.00000000000
    -10.56942910577   19.02497239038    0.00000000000   -2.00000000000
     10.56942910577   19.02497239038    0.00000000000   -2.00000000000
     19.02497239038   10.56942910577    0.00000000000   -2.00000000000
     19.02497239038  -10.56942910577    0.00000000000   -2.00000000000
     10.56942910577  -19.02497239038    0.00000000000   -2.00000000000
    -10.56942910577  -19.02497239038    0.00000000000   -2.00000000000
    -19.02497239038  -10.56942910577    0.00000000000   -2.00000000000
    -19.02497239038   10.56942910577   -2.11388582115    2.00000000000
    -10.56942910577   19.02497239038   -2.11388582115    2.00000000000
     10.56942910577   19.02497239038   -2.11388582115    2.00000000000
     19.02497239038   10.56942910577   -2.11388582115    2.00000000000
     19.02497239038  -10.56942910577   -2.11388582115    2.00000000000
     10.56942910577  -19.02497239038   -2.11388582115    2.00000000000
    -10.56942910577  -19.02497239038   -2.11388582115    2.00000000000
    -19.02497239038  -10.56942910577   -2.11388582115    2.00000000000
    -21.13885821154    6.34165746346    0.00000000000    2.00000000000
     -6.34165746346   21.13885821154    0.00000000000    2.00000000000
      6.34165746346   21.13885821154    0.00000000000    2.00000000000
     21.13885821154    6.34165746346    0.00000000000    2.00000000000
     21.13885821154   -6.34165746346    0.00000000000    2.00000000000
      6.34165746346  -21.13885821154    0.00000000000    2.00000000000
     -6.34165746346  -21.13885821154    0.00000000000    2.00000000000
    -21.13885821154   -6.34165746346    0.00000000000    2.00000000000
    -21.13885821154    6.34165746346   -2.11388582115   -2.00000000000
     -6.34165746346   21.13885821154   -2.11388582115   -2.00000000000
      6.34165746346   21.13885821154   -2.11388582115   -2.00000000000
     21.13885821154    6.34165746346   -2.11388582115   -2.00000000000
     21.13885821154   -6.34165746346   -2.11388582115   -2.00000000000
      6.34165746346  -21.13885821154   -2.11388582115   -2.00000000000
     -6.34165746346  -21.13885821154   -2.11388582115   -2.00000000000
    -21.13885821154   -6.34165746346   -2.11388582115   -2.00000000000
    -16.91108656923   14.79720074808    0.00000000000    2.00000000000
    -14.79720074808   16.91108656923    0.00000000000    2.00000000000
     14.79720074808   16.91108656923    0.00000000000    2.00000000000
     16.91108656923   14.79720074808    0.00000000000    2.00000000000
     16.91108656923  -14.79720074808    0.00000000000    2.00000000000
     14.79720074808  -16.91108656923    0.00000000000    2.00000000000
    -14.79720074808  -16.91108656923    0.00000000000    2.00000000000
    -16.91108656923  -14.79720074808    0.00000000000    2.00000000000
    -16.91108656923   14.79720074808   -2.11388582115   -2.00000000000
    -14.79720074808   16.91108656923   -2.11388582115   -2.00000000000
     14.79720074808   16.91108656923   -2.11388582115   -2.00000000000
     16.91108656923   14.79720074808   -2.11388582115   -2.00000000000
     16.91108656923  -14.79720074808   -2.11388582115   -2.00000000000
     14.79720074808  -16.91108656923   -2.11388582115   -2.00000000000
    -14.79720074808  -16.91108656923   -2.11388582115   -2.00000000000
    -16.91108656923  -14.79720074808   -2.11388582115   -2.00000000000
    -21.13885821154    8.45554328461    0.00000000000   -2.00000000000
     -8.45554328461   21.13885821154    0.00000000000   -2.00000000000
      8.45554328461   21.13885821154    0.00000000000   -2.00000000000
     21.13885821154    8.45554328461    0.00000000000   -2.00000000000
     21.13885821154   -8.45554328461    0.00000000000   -2.00000000000
      8.45554328461  -21.13885821154    0.00000000000   -2.00000000000
     -8.45554328461  -21.13885821154    0.00000000000   -2.00000000000
    -21.13885821154   -8.45554328461    0.00000000000   -2.00000000000
    -19.02497239038   12.68331492692    0.00000000000    2.00000000000
    -12.68331492692   19.02497239038    0.00000000000    2.00000000000
     12.68331492692   19.02497239038    0.00000000000    2.00000000000
     19.02497239038   12.68331492692    0.00000000000    2.00000000000
     19.02497239038  -12.68331492692    0.00000000000    2.00000000000
     12.68331492692  -19.02497239038    0.00000000000    2.00000000000
    -12.68331492692  -19.02497239038    0.00000000000    2.00000000000
    -19.02497239038  -12.68331492692    0.00000000000    2.00000000000
    -21.13885821154    8.45554328461   -2.11388582115    2.00000000000
     -8.45554328461   21.13885821154   -2.11388582115    2.00000000000
      8.45554328461   21.13885821154   -2.11388582115    2.00000000000
     21.13885821154    8.45554328461   -2.11388582115    2.00000000000
     21.13885821154   -8.45554328461   -2.11388582115    2.00000000000
      8.45554328461  -21.13885821154   -2.11388582115    2.00000000000
     -8.45554328461  -21.13885821154   -2.11388582115    2.00000000000
    -21.13885821154   -8.45554328461   -2.11388582115    2.00000000000
    -19.02497239038   12.68331492692   -2.11388582115   -2.00000000000
    -12.68331492692   19.02497239038   -2.11388582115   -2.00000000000
     12.68331492692   19.02497239038   -2.11388582115   -2.00000000000
     19.02497239038   12.68331492692   -2.11388582115   -2.00000000000
     19.02497239038  -12.68331492692   -2.11388582115   -2.00000000000
     12.68331492692  -19.02497239038   -2.11388582115   -2.00000000000
    -12.68331492692  -19.02497239038   -2.11388582115   -2.00000000000
    -19.02497239038  -12.68331492692   -2.11388582115   -2.00000000000
    -23.25274403269    0.00000000000    0.00000000000    2.00000000000
      0.00000000000   23.25274403269    0.00000000000    2.00000000000
     23.25274403269    0.00000000000    0.00000000000    2.00000000000
      0.00000000000  -23.25274403269    0.00000000000    2.00000000000
    -23.25274403269    2.11388582115    0.00000000000   -2.00000000000
     -2.11388582115   23.25274403269    0.00000000000   -2.00000000000
      2.11388582115   23.25274403269    0.00000000000   -2.00000000000
     23.25274403269    2.11388582115    0.00000000000   -2.00000000000
     23.25274403269   -2.11388582115    0.00000000000   -2.00000000000
      2.11388582115  -23.25274403269    0.00000000000   -2.00000000000
     -2.11388582115  -23.25274403269    0.00000000000   -2.00000000000
    -23.25274403269   -2.11388582115    0.00000000000   -2.00000000000
    -23.25274403269    0.00000000000   -2.11388582115   -2.00000000000
      0.00000000000   23.25274403269   -2.11388582115   -2.00000000000
     23.25274403269    0.00000000000   -2.11388582115   -2.00000000000
      0.00000000000  -23.25274403269   -2.11388582115   -2.00000000000
    -23.25274403269    2.11388582115   -2.11388582115    2.00000000000
     -2.11388582115   23.25274403269   -2.11388582115    2.00000000000
      2.11388582115   23.25274403269   -2.11388582115    2.00000000000
     23.25274403269    2.11388582115   -2.11388582115    2.00000000000
     23.25274403269   -2.11388582115   -2.11388582115    2.00000000000
      2.11388582115  -23.25274403269   -2.11388582115    2.00000000000
     -2.11388582115  -23.25274403269   -2.11388582115    2.00000000000
    -23.25274403269   -2.11388582115   -2.11388582115    2.00000000000
    -23.25274403269    4.22777164231    0.00000000000    2.00000000000
    -21.13885821154   10.56942910577    0.00000000000    2.00000000000
    -10.56942910577   21.13885821154    0.00000000000    2.00000000000
     -4.22777164231   23.25274403269    0.00000000000    2.00000000000
      4.22777164231   23.25274403269    0.00000000000    2.00000000000
     10.56942910577   21.13885821154    0.00000000000    2.00000000000
     21.13885821154   10.56942910577    0.00000000000    2.00000000000
     23.25274403269    4.22777164231    0.00000000000    2.00000000000
     23.25274403269   -4.22777164231    0.00000000000    2.00000000000
     21.13885821154  -10.56942910577    0.00000000000    2.00000000000
     10.56942910577  -21.13885821154    0.00000000000    2.00000000000
      4.22777164231  -23.25274403269    0.00000000000    2.00000000000
     -4.22777164231  -23.25274403269    0.00000000000    2.00000000000
    -10.56942910577  -21.13885821154    0.00000000000    2.00000000000
    -21.13885821154  -10.56942910577    0.00000000000    2.00000000000
    -23.25274403269   -4.22777164231    0.00000000000    2.00000000000
    -23.25274403269    4.22777164231   -2.11388582115   -2.00000000000
    -21.13885821154   10.56942910577   -2.11388582115   -2.00000000000
    -10.56942910577   21.13885821154   -2.11388582115   -2.00000000000
     -4.22777164231   23.25274403269   -2.11388582115   -2.00000000000
      4.22777164231   23.25274403269   -2.11388582115   -2.00000000000
     10.56942910577   21.13885821154   -2.11388582115   -2.00000000000
     21.13885821154   10.56942910577   -2.11388582115   -2.00000000000
     23.25274403269    4.22777164231   -2.11388582115   -2.00000000000
     23.25274403269   -4.22777164231   -2.11388582115   -2.00000000000
     21.13885821154  -10.56942910577   -2.11388582115   -2.00000000000
     10.56942910577  -21.13885821154   -2.11388582115   -2.00000000000
      4.22777164231  -23.25274403269   -2.11388582115   -2.00000000000
     -4.22777164231  -23.25274403269   -2.11388582115   -2.00000000000
    -10.56942910577  -21.13885821154   -2.11388582115   -2.00000000000
    -21.13885821154  -10.56942910577   -2.11388582115   -2.00000000000
    -23.25274403269   -4.22777164231   -2.11388582115   -2.00000000000
    -16.91108656923   16.91108656923    0.00000000000   -2.00000000000
     16.91108656923   16.91108656923    0.00000000000   -2.00000000000
     16.91108656923  -16.91108656923    0.00000000000   -2.00000000000
    -16.91108656923  -16.91108656923    0.00000000000   -2.00000000000
    -16.91108656923   16.91108656923   -2.11388582115    2.00000000000
     16.91108656923   16.91108656923   -2.11388582115    2.00000000000
     16.91108656923  -16.91108656923   -2.11388582115    2.00000000000
    -16.91108656923  -16.91108656923   -2.11388582115    2.00000000000
    -23.25274403269    6.34165746346    0.00000000000   -2.00000000000
    -19.02497239038   14.79720074808    0.00000000000   -2.00000000000
    -14.79720074808   19.02497239038    0.00000000000   -2.00000000000
     -6.34165746346   23.25274403269    0.00000000000   -2.00000000000
      6.34165746346   23.25274403269    0.00000000000   -2.00000000000
     14.79720074808   19.02497239038    0.00000000000   -2.00000000000
     19.02497239038   14.79720074808    0.00000000000   -2.00000000000
     23.25274403269    6.34165746346    0.00000000000   -2.00000000000
     23.25274403269   -6.34165746346    0.00000000000   -2.00000000000
     19.02497239038  -14.79720074808    0.00000000000   -2.00000000000
     14.79720074808  -19.02497239038    0.00000000000   -2.00000000000
      6.34165746346  -23.25274403269    0.00000000000   -2.00000000000
     -6.34165746346  -23.25274403269    0.00000000000   -2.00000000000
    -14.79720074808  -19.02497239038    0.00000000000   -2.00000000000
    -19.02497239038  -14.79720074808    0.00000000000   -2.00000000000
    -23.25274403269   -6.34165746346    0.00000000000   -2.00000000000
    -23.25274403269    6.34165746346   -2.11388582115    2.00000000000
    -19.02497239038   14.79720074808   -2.11388582115    2.00000000000
    -14.79720074808   19.02497239038   -2.11388582115    2.00000000000
     -6.34165746346   23.25274403269   -2.11388582115    2.00000000000
      6.34165746346   23.25274403269   -2.11388582115    2.00000000000
     14.79720074808   19.02497239038   -2.11388582115    2.00000000000
     19.02497239038   14.79720074808   -2.11388582115    2.00000000000
     23.25274403269    6.34165746346   -2.11388582115    2.00000000000
     23.25274403269   -6.34165746346   -2.11388582115    2.00000000000
     19.02497239038  -14.79720074808   -2.11388582115    2.00000000000
     14.79720074808  -19.02497239038   -2.11388582115    2.00000000000
      6.34165746346  -23.25274403269   -2.11388582115    2.00000000000
     -6.34165746346  -23.25274403269   -2.11388582115    2.00000000000
    -14.79720074808  -19.02497239038   -2.11388582115    2.00000000000
    -19.02497239038  -14.79720074808   -2.11388582115    2.00000000000
    -23.25274403269   -6.34165746346   -2.11388582115    2.00000000000
    -21.13885821154   12.68331492692    0.00000000000   -2.00000000000
    -12.68331492692   21.13885821154    0.00000000000   -2.00000000000
     12.68331492692   21.13885821154    0.00000000000   -2.00000000000
     21.13885821154   12.68331492692    0.00000000000   -2.00000000000
     21.13885821154  -12.68331492692    0.00000000000   -2.00000000000
     12.68331492692  -21.13885821154    0.00000000000   -2.00000000000
    -12.68331492692  -21.13885821154    0.00000000000   -2.00000000000
    -21.13885821154  -12.68331492692    0.00000000000   -2.00000000000
    -23.25274403269    8.45554328461    0.00000000000    2.00000000000
     -8.45554328461   23.25274403269    0.00000000000    2.00000000000
      8.45554328461   23.25274403269    0.00000000000    2.00000000000
     23.25274403269    8.45554328461    0.00000000000    2.00000000000
     23.25274403269   -8.45554328461    0.00000000000    2.00000000000
      8.45554328461  -23.25274403269    0.00000000000    2.00000000000
     -8.45554328461  -23.25274403269    0.00000000000    2.00000000000
    -23.25274403269   -8.45554328461    0.00000000000    2.00000000000
    -21.13885821154   12.68331492692   -2.11388582115    2.00000000000
    -12.68331492692   21.13885821154   -2.11388582115    2.00000000000
     12.68331492692   21.13885821154   -2.11388582115    2.00000000000
     21.13885821154   12.68331492692   -2.11388582115    2.00000000000
     21.13885821154  -12.68331492692   -2.11388582115    2.00000000000
     12.68331492692  -21.13885821154   -2.11388582115    2.00000000000
    -12.68331492692  -21.13885821154   -2.11388582115    2.00000000000
    -21.13885821154  -12.68331492692   -2.11388582115    2.00000000000
    -23.25274403269    8.45554328461   -2.11388582115   -2.00000000000
     -8.45554328461   23.25274403269   -2.11388582115   -2.00000000000
      8.45554328461   23.25274403269   -2.11388582115   -2.00000000000
     23.25274403269    8.45554328461   -2.11388582115   -2.00000000000
     23.25274403269   -8.45554328461   -2.11388582115   -2.00000000000
      8.45554328461  -23.25274403269   -2.11388582115   -2.00000000000
     -8.45554328461  -23.25274403269   -2.11388582115   -2.00000000000
    -23.25274403269   -8.45554328461   -2.11388582115   -2.00000000000
    -25.36662985384    0.00000000000    0.00000000000   -2.00000000000
      0.00000000000   25.36662985384    0.00000000000   -2.00000000000
     25.36662985384    0.00000000000    0.00000000000   -2.00000000000
      0.00000000000  -25.36662985384    0.00000000000   -2.00000000000
    -25.36662985384    2.11388582115    0.00000000000    2.00000000000
    -19.02497239038   16.91108656923    0.00000000000    2.00000000000
    -16.91108656923   19.02497239038    0.00000000000    2.00000000000
     -2.11388582115   25.36662985384    0.00000000000    2.00000000000
      2.11388582115   25.36662985384    0.00000000000    2.00000000000
     16.91108656923   19.02497239038    0.00000000000    2.00000000000
     19.02497239038   16.91108656923    0.00000000000    2.00000000000
     25.36662985384    2.11388582115    0.00000000000    2.00000000000
     25.36662985384   -2.11388582115    0.00000000000    2.00000000000
     19.02497239038  -16.91108656923    0.00000000000    2.00000000000
     16.91108656923  -19.02497239038    0.00000000000    2.00000000000
      2.11388582115  -25.36662985384    0.00000000000    2.00000000000
     -2.11388582115  -25.36662985384    0.00000000000    2.00000000000
    -16.91108656923  -19.02497239038    0.00000000000    2.00000000000
    -19.02497239038  -16.91108656923    0.00000000000    2.00000000000
    -25.36662985384   -2.11388582115    0.00000000000    2.00000000000
    -25.36662985384    0.00000000000   -2.11388582115    2.00000000000
      0.00000000000   25.36662985384   -2.11388582115    2.00000000000
     25.36662985384    0.00000000000   -2.11388582115    2.00000000000
      0.00000000000  -25.36662985384   -2.11388582115    2.00000000000
    -23.25274403269   10.56942910577    0.00000000000   -2.00000000000
    -10.56942910577   23.25274403269    0.00000000000   -2.00000000000
     10.56942910577   23.25274403269    0.00000000000   -2.00000000000
     23.25274403269   10.56942910577    0.00000000000   -2.00000000000
     23.25274403269  -10.56942910577    0.00000000000   -2.00000000000
     10.56942910577  -23.25274403269    0.00000000000   -2.00000000000
    -10.56942910577  -23.25274403269    0.00000000000   -2.00000000000
    -23.25274403269  -10.56942910577    0.00000000000   -2.00000000000
    -25.36662985384    2.11388582115   -2.11388582115   -2.00000000000
    -19.02497239038   16.91108656923   -2.11388582115   -2.00000000000
    -16.91108656923   19.02497239038   -2.11388582115   -2.00000000000
     -2.11388582115   25.36662985384   -2.11388582115   -2.00000000000
      2.11388582115   25.36662985384   -2.11388582115   -2.00000000000
     16.91108656923   19.02497239038   -2.11388582115   -2.00000000000
     19.02497239038   16.91108656923   -2.11388582115   -2.00000000000
     25.36662985384    2.11388582115   -2.11388582115   -2.00000000000
     25.36662985384   -2.11388582115   -2.11388582115   -2.00000000000
     19.02497239038  -16.91108656923   -2.11388582115   -2.00000000000
     16.91108656923  -19.02497239038   -2.11388582115   -2.00000000000
      2.11388582115  -25.36662985384   -2.11388582115   -2.00000000000
     -2.11388582115  -25.36662985384   -2.11388582115   -2.00000000000
    -16.91108656923  -19.02497239038   -2.11388582115   -2.00000000000
    -19.02497239038  -16.91108656923   -2.11388582115   -2.00000000000
    -25.36662985384   -2.11388582115   -2.11388582115   -2.00000000000
    -23.25274403269   10.56942910577   -2.11388582115    2.00000000000
    -10.56942910577   23.25274403269   -2.11388582115    2.00000000000
     10.56942910577   23.25274403269   -2.11388582115    2.00000000000
     23.25274403269   10.56942910577   -2.11388582115    2.00000000000
     23.25274403269  -10.56942910577   -2.11388582115    2.00000000000
     10.56942910577  -23.25274403269   -2.11388582115    2.00000000000
    -10.56942910577  -23.25274403269   -2.11388582115    2.00000000000
    -23.25274403269  -10.56942910577   -2.11388582115    2.00000000000
    -25.36662985384    4.22777164231    0.00000000000   -2.00000000000
     -4.22777164231   25.36662985384    0.00000000000   -2.00000000000
      4.22777164231   25.36662985384    0.00000000000   -2.00000000000
     25.36662985384    4.22777164231    0.00000000000   -2.00000000000
     25.36662985384   -4.22777164231    0.00000000000   -2.00000000000
      4.22777164231  -25.36662985384    0.00000000000   -2.00000000000
     -4.22777164231  -25.36662985384    0.00000000000   -2.00000000000
    -25.36662985384   -4.22777164231    0.00000000000   -2.00000000000
    -21.13885821154   14.79720074808    0.00000000000    2.00000000000
    -14.79720074808   21.13885821154    0.00000000000    2.00000000000
     14.79720074808   21.13885821154    0.00000000000    2.00000000000
     21.13885821154   14.79720074808    0.00000000000    2.00000000000
     21.13885821154  -14.79720074808    0.00000000000    2.00000000000
     14.79720074808  -21.13885821154    0.00000000000    2.00000000000
    -14.79720074808  -21.13885821154    0.00000000000    2.00000000000
    -21.13885821154  -14.79720074808    0.00000000000    2.00000000000
    -25.36662985384    4.22777164231   -2.11388582115    2.00000000000
     -4.22777164231   25.36662985384   -2.11388582115    2.00000000000
      4.22777164231   25.36662985384   -2.11388582115    2.00000000000
     25.36662985384    4.22777164231   -2.11388582115    2.00000000000
     25.36662985384   -4.22777164231   -2.11388582115    2.00000000000
      4.22777164231  -25.36662985384   -2.11388582115    2.00000000000
     -4.22777164231  -25.36662985384   -2.11388582115    2.00000000000
    -25.36662985384   -4.22777164231   -2.11388582115    2.00000000000
    -21.13885821154   14.79720074808   -2.11388582115   -2.00000000000
    -14.79720074808   21.13885821154   -2.11388582115   -2.00000000000
     14.79720074808   21.13885821154   -2.11388582115   -2.00000000000
     21.13885821154   14.79720074808   -2.11388582115   -2.00000000000
     21.13885821154  -14.79720074808   -2.11388582115   -2.00000000000
     14.79720074808  -21.13885821154   -2.11388582115   -2.00000000000
    -14.79720074808  -21.13885821154   -2.11388582115   -2.00000000000
    -21.13885821154  -14.79720074808   -2.11388582115   -2.00000000000
    -25.36662985384    6.34165746346    0.00000000000    2.00000000000
     -6.34165746346   25.36662985384    0.00000000000    2.00000000000
      6.34165746346   25.36662985384    0.00000000000    2.00000000000
     25.36662985384    6.34165746346    0.00000000000    2.00000000000
     25.36662985384   -6.34165746346    0.00000000000    2.00000000000
      6.34165746346  -25.36662985384    0.00000000000    2.00000000000
     -6.34165746346  -25.36662985384    0.00000000000    2.00000000000
    -25.36662985384   -6.34165746346    0.00000000000    2.00000000000
    -25.36662985384    6.34165746346   -2.11388582115   -2.00000000000
     -6.34165746346   25.36662985384   -2.11388582115   -2.00000000000
      6.34165746346   25.36662985384   -2.11388582115   -2.00000000000
     25.36662985384    6.34165746346   -2.11388582115   -2.00000000000
     25.36662985384   -6.34165746346   -2.11388582115   -2.00000000000
      6.34165746346  -25.36662985384   -2.11388582115   -2.00000000000
     -6.34165746346  -25.36662985384   -2.11388582115   -2.00000000000
    -25.36662985384   -6.34165746346   -2.11388582115   -2.00000000000
    -23.25274403269   12.68331492692    0.00000000000    2.00000000000
    -12.68331492692   23.25274403269    0.00000000000    2.00000000000
     12.68331492692   23.25274403269    0.00000000000    2.00000000000
     23.25274403269   12.68331492692    0.00000000000    2.00000000000
     23.25274403269  -12.68331492692    0.00000000000    2.00000000000
     12.68331492692  -23.25274403269    0.00000000000    2.00000000000
    -12.68331492692  -23.25274403269    0.00000000000    2.00000000000
    -23.25274403269  -12.68331492692    0.00000000000    2.00000000000
    -23.25274403269   12.68331492692   -2.11388582115   -2.00000000000
    -12.68331492692   23.25274403269   -2.11388582115   -2.00000000000
     12.68331492692   23.25274403269   -2.11388582115   -2.00000000000
     23.25274403269   12.68331492692   -2.11388582115   -2.00000000000
     23.25274403269  -12.68331492692   -2.11388582115   -2.00000000000
     12.68331492692  -23.25274403269   -2.11388582115   -2.00000000000
    -12.68331492692  -23.25274403269   -2.11388582115   -2.00000000000
    -23.25274403269  -12.68331492692   -2.11388582115   -2.00000000000
    -25.36662985384    8.45554328461    0.00000000000   -2.00000000000
     -8.45554328461   25.36662985384    0.00000000000   -2.00000000000
      8.45554328461   25.36662985384    0.00000000000   -2.00000000000
     25.36662985384    8.45554328461    0.00000000000   -2.00000000000
     25.36662985384   -8.45554328461    0.00000000000   -2.00000000000
      8.45554328461  -25.36662985384    0.00000000000   -2.00000000000
     -8.45554328461  -25.36662985384    0.00000000000   -2.00000000000
    -25.36662985384   -8.45554328461    0.00000000000   -2.00000000000
    -25.36662985384    8.45554328461   -2.11388582115    2.00000000000
     -8.45554328461   25.36662985384   -2.11388582115    2.00000000000
      8.45554328461   25.36662985384   -2.11388582115    2.00000000000
     25.36662985384    8.45554328461   -2.11388582115    2.00000000000
     25.36662985384   -8.45554328461   -2.11388582115    2.00000000000
      8.45554328461  -25.36662985384   -2.11388582115    2.00000000000
     -8.45554328461  -25.36662985384   -2.11388582115    2.00000000000
    -25.36662985384   -8.45554328461   -2.11388582115    2.00000000000
    -19.02497239038   19.02497239038    0.00000000000   -2.00000000000
     19.02497239038   19.02497239038    0.00000000000   -2.00000000000
     19.02497239038  -19.02497239038    0.00000000000   -2.00000000000
    -19.02497239038  -19.02497239038    0.00000000000   -2.00000000000
    -19.02497239038   19.02497239038   -2.11388582115    2.00000000000
     19.02497239038   19.02497239038   -2.11388582115    2.00000000000
     19.02497239038  -19.02497239038   -2.11388582115    2.00000000000
    -19.02497239038  -19.02497239038   -2.11388582115    2.00000000000
    -21.13885821154   16.91108656923    0.00000000000   -2.00000000000
    -16.91108656923   21.13885821154    0.00000000000   -2.00000000000
     16.91108656923   21.13885821154    0.00000000000   -2.00000000000
     21.13885821154   16.91108656923    0.00000000000   -2.00000000000
     21.13885821154  -16.91108656923    0.00000000000   -2.00000000000
     16.91108656923  -21.13885821154    0.00000000000   -2.00000000000
    -16.91108656923  -21.13885821154    0.00000000000   -2.00000000000
    -21.13885821154  -16.91108656923    0.00000000000   -2.00000000000
    -21.13885821154   16.91108656923   -2.11388582115    2.00000000000
    -16.91108656923   21.13885821154   -2.11388582115    2.00000000000
     16.91108656923   21.13885821154   -2.11388582115    2.00000000000
     21.13885821154   16.91108656923   -2.11388582115    2.00000000000
     21.13885821154  -16.91108656923   -2.11388582115    2.00000000000
     16.91108656923  -21.13885821154   -2.11388582115    2.00000000000
    -16.91108656923  -21.13885821154   -2.11388582115    2.00000000000
    -21.13885821154  -16.91108656923   -2.11388582115    2.00000000000
    -27.48051567500    0.00000000000    0.00000000000    2.00000000000
    -25.36662985384   10.56942910577    0.00000000000    2.00000000000
    -10.56942910577   25.36662985384    0.00000000000    2.00000000000
      0.00000000000   27.48051567500    0.00000000000    2.00000000000
     10.56942910577   25.36662985384    0.00000000000    2.00000000000
[...]
 
 T1 contribution [au]:                         0.000000000000
 CCSD correlation energy [au]:                -0.076069873120
 
 CPU time [min]: 17742.138                   Wall time [min]:  1021.731
 
 Calculation of (T) correction...
 
 Laplace threshold, nquadmin:  1.00E-02   3
 Number of quadrature points:    3
 
     1269.40 MB memory is utilized for (T)

 0%       25%       50%       75%       100%
 |---------|---------|---------|---------| 
 
 (T) correction [au]:                   -0.003240694405
 CCSD(T) correlation energy [au]:       -0.079310567525
 
 CPU time [min]: 17753.786                   Wall time [min]:  1022.375
 
 MO:   101
 Number of atoms in domain:      28
 Number of atomic orbitals:    2672
 Number of atoms for local DF:   28
 Number of fitting functions:  6212 (100.00%)
 Warning: drop high-lying PAOs                    18
 Number of occupied orbitals:    40
 Number of virtual  orbitals:  2524
 Number of Cholesky vectors:      8
 MP2 energy in ED [au]:          -0.076633785967
 Number of occupied LNOs:        23  (57.50%)
 Number of virtual  LNOs:       113   (4.48%)
 tol*100>norm                  1067  8.470770515379400E-003
 tol*100>norm                  1387  8.154612968001429E-003
 tol*100>norm                  1467  8.147473457911997E-003
dropped smallnorm  1629  1630   6.17299863E-06
dropped smallnorm  1642  1644   2.00979336E-05
dropped smallnorm  1642  1645   1.57345429E-05
dropped smallnorm  1642  1646   1.78183529E-05
 tol*100>norm                  1896  7.887189061695497E-003
dropped smallnorm  2163  2168   5.63849111E-06
dropped smallnorm  2176  2182   1.98679765E-05
dropped smallnorm  2176  2183   1.57337220E-05
dropped smallnorm  2176  2184   1.56353345E-05
 tol*100>norm                  2274  7.875503075173762E-003
 tol*100>norm                  2354  7.746616835474355E-003
 tol*100>norm                  2434  7.886086138723852E-003
 tol*100>norm                  2594  7.582612282526449E-003
 Number of Cholesky vectors:      6
 MP2 energy in LIS [au]:         -0.075783390994
 Correction for frozen LNO [au]: -0.000850394973     (1.110%)
 Number of NAFs:                373   (6.00%)
 CPU time [min]: 17961.292                   Wall time [min]:  1034.297
 

 Direct DF-CCSD(T) calculation
 
 Convergence criterion:  1.0E-05
 
 Number of occupied/virtual/auxiliary orbitals:    23   113   373
    448.02 MB is the minimal memory requirement for (T)
    326.15 MB is the minimal memory requirement for CCSD
 
 MP2 correlation energy [au]:       -0.705912204037
 
 LMP2 domain correlation energy contribution [au]:       -0.075782623010
 
 CPU time [min]: 17961.423                   Wall time [min]:  1034.312
 
 
 Starting CCSD iterations...
 
                     Residual norm       Correlation Energy
 Iteration  1        0.216535941081       -0.710891779472
 Iteration  2        0.053344591100       -0.728038484456
 Iteration  3        0.017709382997       -0.730386427358
 Iteration  4        0.005066035301       -0.730404265030
 Iteration  5        0.001442709306       -0.730421930937
 Iteration  6        0.000356502011       -0.730413047478
 Iteration  7        0.000118680413       -0.730411841544
 Iteration  8        0.000040232061       -0.730412898567
 
 CCSD iteration has converged in  8 steps.
      930.26 MB memory was utilized by CCSD
 
 T1 diagnostic:      1.163E-02            D1 diagnostic:      3.148E-02
 
 T1 contribution [au]:                         0.000000000000
 CCSD correlation energy [au]:                -0.074482935032
 
 CPU time [min]: 17966.015                   Wall time [min]:  1034.617
 
 Calculation of (T) correction...
 
 Laplace threshold, nquadmin:  1.00E-02   3
 Number of quadrature points:    3
 
      685.46 MB memory is utilized for (T)

 0%       25%       50%       75%       100%
 |---------|---------|---------|---------| 
 
 (T) correction [au]:                   -0.003043313113
 CCSD(T) correlation energy [au]:       -0.077526248146
 
 CPU time [min]: 17969.591                   Wall time [min]:  1034.816
 
 MO:   102
 Number of atoms in domain:      27
 Number of atomic orbitals:    2592
 Number of atoms for local DF:   20
 Number of fitting functions:  4595  (76.03%)
 Warning: drop high-lying PAOs                    15
 Number of occupied orbitals:    24
 Number of virtual  orbitals:  1888
 Number of Cholesky vectors:      8
 MP2 energy in ED [au]:          -0.075225129197
 Number of occupied LNOs:        14  (58.33%)
 Number of virtual  LNOs:        89   (4.71%)
 tol*100>norm                   362  8.601920726316279E-003
dropped smallnorm   444   445   6.64649572E-06
dropped smallnorm   457   459   2.06637325E-05
dropped smallnorm   457   460   1.89337823E-05
dropped smallnorm   457   461   1.62901510E-05
 tol*100>norm                   987  7.892049027048896E-003
 tol*100>norm                  1147  7.892586443128983E-003
 tol*100>norm                  1227  7.872467523414571E-003
 tol*100>norm                  1547  7.582769122631457E-003
 Number of Cholesky vectors:      6
 MP2 energy in LIS [au]:         -0.074629921184
 Correction for frozen LNO [au]: -0.000595208013     (0.791%)
 Number of NAFs:                271   (5.90%)
 CPU time [min]: 18060.848                   Wall time [min]:  1039.895
 

 Direct DF-CCSD(T) calculation
 
 Convergence criterion:  1.0E-05
 
 Number of occupied/virtual/auxiliary orbitals:    14    89   271
    271.74 MB is the minimal memory requirement for (T)
    214.03 MB is the minimal memory requirement for CCSD
 
 MP2 correlation energy [au]:       -0.514718148243
 
 LMP2 domain correlation energy contribution [au]:       -0.074629173331
 
 CPU time [min]: 18060.899                   Wall time [min]:  1039.897
 
 
 Starting CCSD iterations...
 
                     Residual norm       Correlation Energy
 Iteration  1        0.192968996883       -0.513032262991
 Iteration  2        0.045725354982       -0.524338193748
 Iteration  3        0.014948539495       -0.526027819402
 Iteration  4        0.004163122195       -0.526005902490
 Iteration  5        0.001190343178       -0.526049306558
 Iteration  6        0.000262200818       -0.526040167221
 Iteration  7        0.000080716519       -0.526039304003
 
 CCSD iteration has converged in  7 steps.
      446.88 MB memory was utilized by CCSD
 
 T1 diagnostic:      1.043E-02            D1 diagnostic:      2.621E-02
 
 T1 contribution [au]:                         0.000000000000
 CCSD correlation energy [au]:                -0.073523192834
 
 CPU time [min]: 18061.874                   Wall time [min]:  1039.951
 
 Calculation of (T) correction...
 
 Laplace threshold, nquadmin:  1.00E-02   3
 Number of quadrature points:    3
 
      328.38 MB memory is utilized for (T)

 0%       25%       50%       75%       100%
 |---------|---------|---------|---------| 
 
 (T) correction [au]:                   -0.002854186320
 CCSD(T) correlation energy [au]:       -0.076377379154
 
 CPU time [min]: 18062.514                   Wall time [min]:  1039.987
 
 MO:   103
 Number of atoms in domain:      28
 Number of atomic orbitals:    2672
 Number of atoms for local DF:   28
 Number of fitting functions:  6212 (100.00%)
 Warning: drop high-lying PAOs                    18
 Number of occupied orbitals:    52
 Number of virtual  orbitals:  2524
 Number of Cholesky vectors:      8
 MP2 energy in ED [au]:          -0.078638485383
 Number of occupied LNOs:        30  (57.69%)
 Number of virtual  LNOs:       134   (5.31%)
 tol*100>norm                   362  8.470459919840427E-003
dropped smallnorm   662   663   5.87349779E-06
dropped smallnorm   675   677   1.97087516E-05
dropped smallnorm   675   678   1.57246961E-05
dropped smallnorm   675   679   1.57109960E-05
dropped smallnorm   876   881   5.60371704E-06
dropped smallnorm   889   895   1.97832278E-05
dropped smallnorm   889   896   1.57311109E-05
dropped smallnorm   889   897   1.56926997E-05
 tol*100>norm                  1067  8.471568568180248E-003
 tol*100>norm                  1147  7.886771410401812E-003
 tol*100>norm                  1307  7.881738868090840E-003
 tol*100>norm                  1387  8.031121959360028E-003
 tol*100>norm                  1467  7.902153541600843E-003
 tol*100>norm                  1547  7.875557651505239E-003
dropped smallnorm  1621  1630   6.16456285E-06
dropped smallnorm  1634  1644   2.01315048E-05
dropped smallnorm  1634  1645   1.56969565E-05
dropped smallnorm  1634  1646   1.78661225E-05
 tol*100>norm                  1896  7.887042726150366E-003
 tol*100>norm                  2274  7.881576784208921E-003
 tol*100>norm                  2354  7.875430091287260E-003
 Number of Cholesky vectors:      6
 MP2 energy in LIS [au]:         -0.077474549750
 Correction for frozen LNO [au]: -0.001163935633     (1.480%)
 Number of NAFs:                474   (7.63%)
 CPU time [min]: 18313.297                   Wall time [min]:  1054.540
 

 Direct DF-CCSD(T) calculation
 
 Convergence criterion:  1.0E-05
 
 Number of occupied/virtual/auxiliary orbitals:    30   134   474
    713.45 MB is the minimal memory requirement for (T)
    500.66 MB is the minimal memory requirement for CCSD
 
 MP2 correlation energy [au]:       -0.905881272849
 
 LMP2 domain correlation energy contribution [au]:       -0.077473868404
 
 CPU time [min]: 18313.481                   Wall time [min]:  1054.564
 
 
 Starting CCSD iterations...
 
                     Residual norm       Correlation Energy
 Iteration  1        0.239847360641       -0.910880802343
 Iteration  2        0.059491830408       -0.931296573134
 Iteration  3        0.019844093019       -0.934214748515
 Iteration  4        0.005659275293       -0.934257524357
 Iteration  5        0.001649915429       -0.934246845969
 Iteration  6        0.000422252411       -0.934238594590
 Iteration  7        0.000144174008       -0.934235712861
 Iteration  8        0.000045771525       -0.934236656880
 
 CCSD iteration has converged in  8 steps.
     1700.24 MB memory was utilized by CCSD
 
 T1 diagnostic:      1.155E-02            D1 diagnostic:      3.654E-02
 
 T1 contribution [au]:                         0.000000000000
 CCSD correlation energy [au]:                -0.076069055457
 
 CPU time [min]: 18325.042                   Wall time [min]:  1055.288
 
 Calculation of (T) correction...
 
 Laplace threshold, nquadmin:  1.00E-02   3
 Number of quadrature points:    3
 
     1269.40 MB memory is utilized for (T)

 0%       25%       50%       75%       100%
 |---------|---------|---------|---------| 
 
 (T) correction [au]:                   -0.003240688154
 CCSD(T) correlation energy [au]:       -0.079309743612
 
 CPU time [min]: 18337.317                   Wall time [min]:  1055.967
 
 MO:   104
 Number of atoms in domain:      28
 Number of atomic orbitals:    2672
 Number of atoms for local DF:   28
 Number of fitting functions:  6212 (100.00%)
 Warning: drop high-lying PAOs                    18
 Number of occupied orbitals:    40
 Number of virtual  orbitals:  2524
 Number of Cholesky vectors:      8
 MP2 energy in ED [au]:          -0.077682262719
 Number of occupied LNOs:        24  (60.00%)
 Number of virtual  LNOs:       121   (4.79%)
 tol*100>norm                   362  8.605112950308602E-003
dropped smallnorm   553   554   5.88156282E-06
dropped smallnorm   566   568   1.99591640E-05
dropped smallnorm   566   569   1.58711514E-05
dropped smallnorm   566   570   1.59140962E-05
 tol*100>norm                   987  7.893053160534449E-003
 tol*100>norm                  1067  8.482141757421076E-003
 tol*100>norm                  1387  8.138730571060723E-003
 tol*100>norm                  1816  7.768550294519085E-003
dropped smallnorm  2054  2059   5.64648418E-06
dropped smallnorm  2067  2073   2.00762276E-05
dropped smallnorm  2067  2074   1.57110500E-05
dropped smallnorm  2067  2075   1.57930401E-05
 tol*100>norm                  2274  7.864298031877992E-003
 tol*100>norm                  2434  7.892366027577103E-003
 tol*100>norm                  2514  7.582529662381269E-003
 Number of Cholesky vectors:      6
 MP2 energy in LIS [au]:         -0.076743226280
 Correction for frozen LNO [au]: -0.000939036439     (1.209%)
 Number of NAFs:                414   (6.66%)
 CPU time [min]: 18553.129                   Wall time [min]:  1068.475
 

 Direct DF-CCSD(T) calculation
 
 Convergence criterion:  1.0E-05
 
 Number of occupied/virtual/auxiliary orbitals:    24   121   414
    520.53 MB is the minimal memory requirement for (T)
    367.86 MB is the minimal memory requirement for CCSD
 
 MP2 correlation energy [au]:       -0.803471742295
 
 LMP2 domain correlation energy contribution [au]:       -0.076742433059
 
 CPU time [min]: 18553.271                   Wall time [min]:  1068.494
 
 
 Starting CCSD iterations...
 
                     Residual norm       Correlation Energy
 Iteration  1        0.228619289806       -0.805134371020
 Iteration  2        0.055963470147       -0.822113367863
 Iteration  3        0.018544035274       -0.824675512959
 Iteration  4        0.005162218667       -0.824684719641
 Iteration  5        0.001506867525       -0.824685470875
 Iteration  6        0.000358721953       -0.824678493653
 Iteration  7        0.000119065832       -0.824675486800
 Iteration  8        0.000035203270       -0.824676363167
 
 CCSD iteration has converged in  8 steps.
     1164.79 MB memory was utilized by CCSD
 
 T1 diagnostic:      1.122E-02            D1 diagnostic:      3.455E-02
 
 T1 contribution [au]:                         0.000000000000
 CCSD correlation energy [au]:                -0.075473268434
 
 CPU time [min]: 18559.016                   Wall time [min]:  1068.890
 
 Calculation of (T) correction...
 
 Laplace threshold, nquadmin:  1.00E-02   3
 Number of quadrature points:    3
 
      825.28 MB memory is utilized for (T)

 0%       25%       50%       75%       100%
 |---------|---------|---------|---------| 
 
 (T) correction [au]:                   -0.003128745367
 CCSD(T) correlation energy [au]:       -0.078602013801
 
 CPU time [min]: 18563.875                   Wall time [min]:  1069.163
 
 **********************************************************************
 Dimensions of the extended domains:    Minimum / Average / Maximum
 
 Number of atoms in domain:                  27      27.7        28
 Number of atomic orbitals:                2592    2647.4      2672
 Number of fitting functions:              4336    5694.5      6212
 Number of occupied localized MOs:           24      36.0        72
 Number of PAOs:                           1788    2320.6      2524
 Number of occupied LNOs:                     9      19.7        41
 Number of virtual  LNOs:                    50      97.0       155
 Number of NAFs:                            180     333.2       593
 
 **********************************************************************
 Distant (and weak) pair contributions, corrections
 
 Sum of pair energies [au]:                    -0.006029054979    (0.077%)
 Sum of energy corrections [au]:               -0.101946707113    (1.307%)
 Pair energies + LNO corrections [au]:         -0.107975762092
 Sum of LMP2 contributions [au]:               -7.799854392309
 
 **********************************************************************
  Time of manipulations in the EDs:      max CPU/Wall [s]  all CPU/Wall [min]
 
 PD construction & multipole pair E    7853.44   398.98   130.89     6.65
 Construct MO basis of the ED            89.58     4.55   131.26     6.70
 (mu,nu|P) evaluation & trf 2 (ai|P)   5083.45   271.28  4826.00   248.33
 Evaluate MP2 energy of the ED         2782.67   139.15  2087.03   104.37
 Transformations to the LNO basis       531.30    26.62   402.70    20.16
 Build W_PQ (Jai or Jpi part)            20.72    10.49    16.50     1.97
 Evaluate MP2 energy of the LIS           8.33     0.42     4.31     0.22
 (mu,nu|P) evaluation & trf 2 J(abQ)  10108.69   630.57  9660.29   602.28
 Total of the above for all EDs       18624.73  1083.08 17128.08   984.02
 
 **********************************************************************
 Maximum memory requirement [MB]:       
 
 PD construction & multipole pair E        491.9
 AO integral evaluation in the EDs       23549.5
 (mu,nu|P) evaluation & trf 2 (aI|P)     45677.8
 Evaluate MP2 energy in the EDs          20104.4
 Transformation to the LNO basis          2544.5
 (mu,nu|P) to Jab transformation         25206.8
 Evaluate MP2 energy in the LIS           3000.8
 Minimum requirement for LIS CCSD          858.2
 Actually allocated  for LIS CCSD         3001.0
 Minimum requirement for LIS (T)          1205.5
 Actually allocated  for LIS (T)          2460.3
 
 ======================================================================
 ======================================================================
 
 
 
 ======================================================================
 ======================================================================
 
 Final local CC results:
 
 Minimum number of correlated electrons:        18       (  8.7%)
 Maximum number of correlated electrons:        82       ( 39.4%)
 Average number of correlated electrons:        39.4     ( 18.9%)
 Minimum number of correlated orbitals:         59       (  2.2%)
 Maximum number of correlated orbitals:        195       (  7.4%)
 Average number of correlated orbitals:        116.7     (  4.4%)
 
 CPU time for integral calculations [min]:                 98.250
 Wall time for integral calculations [min]:                28.574
 
 CPU time for SCF calculation [min]:                      884.586
 Wall time for SCF calculation [min]:                      44.824
 
 CPU time for orbital localization [min]:                   0.738
 Wall time for orbital localization [min]:                  0.510
 
 CPU time for integral transformations [min]:           17503.974
 Wall time for integral transformations [min]:           1004.387
 
 Reference energy [au]:                                -10306.864546487559
 
 LMP2 correlation energy [au]:                             -7.799854392309
 Total LMP2 energy [au]:                               -10314.664400879868
 
 Total MP2 correction for dropped NAFs [au]:               -0.000113279804
 Total MP2 correction [au]:                                -0.108089041895
 
 CPU time for CCSD calculations [min]:                    547.268
 Total CPU time for CCSD [min]:                         19034.816
 Wall time for CCSD calculations [min]:                    36.523
 Total wall time for CCSD [min]:                         1114.818
 
 CCSD correlation energy [au]:                             -7.632652731822
 Total CCSD energy [au]:                               -10314.497199219380
 CCSD correlation energy + 0.5 MP2 corrections [au]:       -7.686697252769
 Total LNO-CCSD energy with MP2 corrections [au]:      -10314.551243740329
 
 CPU time for (T) corrections [min]:                      512.656
 Total CPU time for CCSD(T) [min]:                      19547.472
 Wall time for (T) corrections [min]:                      28.259
 Total wall time for CCSD(T) [min]:                      1143.077
 
 Total (T) correlation energy contribution [au]:           -0.244779947332
 Total (T) correlation energy+0.5 MP2 correction [au]:     -0.298824468280
 CCSD(T) correlation energy [au]:                          -7.877432679154
 Total CCSD(T) energy [au]:                            -10314.741979166713
 CCSD(T) correlation energy + MP2 corrections [au]:        -7.985521721049
 Total LNO-CCSD(T) energy with MP2 corrections [au]:   -10314.850068208609
 
 ======================================================================
 ======================================================================
 
 ************************ 2023-01-11 03:24:33 *************************
                      Normal termination of mrcc.
 **********************************************************************
