 **********************************************************************
                          MRCC program system
 **********************************************************************
 
                              Written by
     Mihaly Kallay, Peter R. Nagy, David Mester, Laszlo Gyevi-Nagy,
        Jozsef Csoka, P. Bernat Szabo, Zoltan Rolik, Gyula Samu,
     Jozsef Csontos, Bence Hegely, Adam Ganyecz, Istvan Ladjanszki,
       Lorant Szegedy, Bence Ladoczki, Klara Petrov, Mate Farkas,
                    Pal D. Mezei, and Reka A. Horvath
 
        Department of Physical Chemistry and Materials Science
            Budapest University of Technology and Economics
                  Budapest P.O.Box 91, H-1521 Hungary
 
                              www.mrcc.hu
 
                      Release date: March 18, 2022

 ************************ 2023-01-16 17:42:30 *************************
 Executing minp...

 Reading input from MINP...
 
 Input file:
 
calc=LNO-CCSD(T)
verbosity=3
mem=220GB
symm=off
unit=angs
scfiguess=small
scfalg=locfit1
lcorthr=normal
bpedo=0.99999
usedisk=0
ccmaxit=400
ccsdalg=dfdirect
ccsdthreads=4
ccsdmkl=thr
ptthreads=4
ECP=MCDHF-ECP-60
basis=bse_ACVQZ
basis_sm=def2-SVP
dfbasis_scf=def2-QZVPP-RI-JK
dfbasis_cor=bse_ACVQZ_mp2fit
core=0
unit=angs
geom=xyz
4
Au4_4
Au     1.34227618     0.43836662     1.24985019
Au     0.01522087    -0.14250087    -1.36303947
Au    -0.48346539    -1.30769546     1.36303947
Au    -1.34227618     1.30769546     0.19991232

ghost=serialno


 
 
 Checking keyword combinations...
 
 Keywords:
 
 active=none
 agrid=ld0006-ld0590
 agrid_pssp=ld0006-ld0194
 agrid_pssp_sm=ld0006-ld0074
 basis=bse_acvqz
 basis_sm=def2-svp
 basopt=off
 bfbasis=none
 bfgsmem=10
 bfgstol=1.0d-3
 bpcompo=0.985
 bpcompv=0.98
 bpdfo=0.985
 bpocc=0.99999
 bppdo=0.999d0
 bppdv=0.98
 bpedo=0.99999
 bpedv=0.995d0
 calc=ccsd(t)
 ccmaxit=400
 ccprog=ccsd
 ccsdalg=dfdirect
 ccsdmkl=thr
 ccsdrest=off
 ccsdthreads=4
 cctol=5
 charge=0
 cialg=direct
 ciguess=off
 cmpgrp=auto
 comprest=off
 core=corr
 corembed=off
 csapprox=off
 cvs=off
 dboc=off
 delocsomofact=
 dendec=cholesky
 dens=0
 dfalg=lineq
 dfbasis_cab=none
 dfbasis_cor=bse_acvqz_mp2fit
 dfbasis_scf=def2-qzvpp-ri-jk
 dfbasis_scf_sm=def2-qzvpp-ri-jk
 dfintran=drpa
 dft=off
 dhexc=adc(2)
 diag=david
 docc=
 domrad=10.d0
 drpaalg=auto
 dual=off
 dual_df=off
 ecp=mcdhf-ecp-60
 edisp=off
 edisp_embed=off
 embed=off
 etemp=300
 epert=none
 eps=
 espcharge=off
 excrad=1.0
 excrad_fin=0.100000000D-02
 fitting=coulomb
 fmm=off
 fmmord=8
 freq=off
 gamma=1.d0
 gauss=spher
 geom=xyz
 gopt=off
 ghost=serialno
 gtol=7
 grdens=off
 gridbatch_cos=2000
 grtol=10
 guido_ct=off
 hamilton=dc
 iface=none
 intalg=auto
 itol=10
 laptol=1.d-2
 lccoporder=lccfirst
 lcorthr=normal
 lccrest=off
 lmp2dens=on
 lnoepso=1e-5
 lnoepsv=1e-6
 boysalg=jacobi
 localcc=2021
 localcorrsymm=off
 locintrf=direct
 mact=
 maxact=off
 maxdim=100
 maxex=0
 maxmicroit=100
 mcscfiguess=hf
 mem=220gb
 mmprog=
 molden=on
 mpitasks=1
 mulmet=3
 mult=
 nacto=0
 nactv=0
 naf_amp=1.d-2
 naf_cor=1e-2
 naf_scf=off
 nafalg=albe
 naftyp=jpq
 nchol=auto
 ndeps=1e-3
 nstate=1
 nsing=0
 nto=off
 ntrip=0
 occ=
 occri=off
 oniom=off
 oniom_eechg=off
 oniom_pcm=off
 oniom_qcorr=off
 optalg=
 optmaxit=50
 optetol=1e-6
 optex=0
 optgtol=1e-4
 optstol=1e-3
 orblocc=boys
 orbloce=off
 orbloco=boys
 orblocv=pao
 orblocguess=cholesky
 osveps=-1.d0
 ovirt=off
 ovltol=1e-7
 ovosnorb=80.0
 pcm=off
 popul=off
 pressure=100000
 pssp=off
 ptfreq=0.0
 ptthreads=4
 qro=off
 qscf=off
 qmmm=off
 redcost_exc=off
 redcost_tddft=0.985d0
 refdet=none
 rest=0
 rgrid=log3
 rism=off
 rohfcore=standard
 rohftype=semicanonical
 scfalg=locfit1
 scf_conv=difficult
 scfdamp=0.0d0
 scfdamp_mode=off
 scfdamp_end=50
 scfdamp_dampstep=0.d0
 scfdamp_dtol=0.0d0
 scfdamp_maxfact=0.0d0
 scfdamp_minfact=0.0d0
 scfdiis=on
 scfdiis_dtol=0.0d0
 scfdiis_end=50
 scfdiis_start=2
 scfdiis_step=1
 scfdiis_watch=off
 scfdiis_wrange=10
 scfdiis_wlimit=5
 scfdiis_delmax=2
 scfdtol=7
 scfext=10
 scfguessdens=
 scfiguess=small
 scfloc=pm
 scflshift=0.20
 scflshift_end=8
 scflshift_dtol=0.0
 scflshift_gaptol=0.20
 scfmaxit=50
 scftype=
 scftol=6
 scspe=1.d0
 scsph=1.d0
 scsps=1.2d0
 scsps_t=1.2d0
 scspt=0.33333333333333
 scspt_t=0.33333333333333
 scspv=1.d0
 spairtol=-1.d0
 sqmprog=
 subminp=top
 symm=0
 talg=lapl
 temp=298.15
 test=off
 theodore=off
 tlmo=0.999
 tpao=0.94
 tprint=off
 uncontract=off
 unit=angs
 usedisk=0
 verbosity=3
 wpairtol=1.d-5
 
 Calculating integrals for small-basis SCF...

 ************************ 2023-01-16 17:42:30 *************************
 Executing integ...

 Allocation of 220.0 Gbytes of memory...
 
 
 Number of atoms:                  4
 Charge:                           0
 Number of electrons:             76
 Number of core electrons:         0
 Spin multiplicity:                1
 
                 Cartesian coordinates [bohr]      Atomic mass [AMU]  Z
   1  Au    2.53653436    0.82839285    2.36187456   196.966543      79
   2  Au    0.02876328   -0.26928762   -2.57577130   196.966543      79
   3  Au   -0.91361718   -2.47118627    2.57577130   196.966543      79
   4  Au   -2.53653436    2.47118627    0.37777953   196.966543      79
 
 This molecule is an asymmetric top.
 
 Point group: C1  
 Computational point group: C1  
 
 Cartesian coordinates in standard orientation [bohr]
   1  Au    2.27932454   -1.72212867   -1.65242752
   2  Au   -2.26719807   -1.68826983    1.69453388
   3  Au    2.26933533    1.73120043    1.65074343
   4  Au   -2.28146180    1.67919807   -1.69284979
 
 Nuclear repulsion energy [au]:        405.981725271969
 
 
 Basis set information:
 
 Maximum angular momentum: i
 Maximum number of contracted Gaussians:   13
 Maximum number of primitive Gaussians:    13
 Spherical harmonic GTOs are used.
 
 
 Conventional basis set:
 
   1  Au def2-svp [ 7s 6p 5d 1f | 6s 3p 2d 1f ]
   2  Au def2-svp [ 7s 6p 5d 1f | 6s 3p 2d 1f ]
   3  Au def2-svp [ 7s 6p 5d 1f | 6s 3p 2d 1f ]
   4  Au def2-svp [ 7s 6p 5d 1f | 6s 3p 2d 1f ]
 
 Basis functions:
            1             2             3             4             5             6             7             8             9            10
    0    1Au1s         1Au2s         1Au3s         1Au4s         1Au5s         1Au6s         1Au1pz        1Au1py        1Au1px        1Au2pz    
    1    1Au2py        1Au2px        1Au3pz        1Au3py        1Au3px        1Au1d-2       1Au1d-1       1Au1d0        1Au1d+1       1Au1d+2   
    2    1Au2d-2       1Au2d-1       1Au2d0        1Au2d+1       1Au2d+2       1Au1f-3       1Au1f-2       1Au1f-1       1Au1f0        1Au1f+1   
    3    1Au1f+2       1Au1f+3       2Au1s         2Au2s         2Au3s         2Au4s         2Au5s         2Au6s         2Au1pz        2Au1py    
    4    2Au1px        2Au2pz        2Au2py        2Au2px        2Au3pz        2Au3py        2Au3px        2Au1d-2       2Au1d-1       2Au1d0    
    5    2Au1d+1       2Au1d+2       2Au2d-2       2Au2d-1       2Au2d0        2Au2d+1       2Au2d+2       2Au1f-3       2Au1f-2       2Au1f-1   
    6    2Au1f0        2Au1f+1       2Au1f+2       2Au1f+3       3Au1s         3Au2s         3Au3s         3Au4s         3Au5s         3Au6s     
    7    3Au1pz        3Au1py        3Au1px        3Au2pz        3Au2py        3Au2px        3Au3pz        3Au3py        3Au3px        3Au1d-2   
    8    3Au1d-1       3Au1d0        3Au1d+1       3Au1d+2       3Au2d-2       3Au2d-1       3Au2d0        3Au2d+1       3Au2d+2       3Au1f-3   
    9    3Au1f-2       3Au1f-1       3Au1f0        3Au1f+1       3Au1f+2       3Au1f+3       4Au1s         4Au2s         4Au3s         4Au4s     
   10    4Au5s         4Au6s         4Au1pz        4Au1py        4Au1px        4Au2pz        4Au2py        4Au2px        4Au3pz        4Au3py    
   11    4Au3px        4Au1d-2       4Au1d-1       4Au1d0        4Au1d+1       4Au1d+2       4Au2d-2       4Au2d-1       4Au2d0        4Au2d+1   
   12    4Au2d+2       4Au1f-3       4Au1f-2       4Au1f-1       4Au1f0        4Au1f+1       4Au1f+2       4Au1f+3   
 
 Maximum number of basis functions per shell:   10
 Total number of basis functions:    128
 
 
 Fitting basis set for the SCF calculation:
 
   1  Au def2-qzvpp-ri-jk [ 13s 12p 11d 9f 5g 3h 2i | 13s 11p 10d 8f 4g 3h 2i ]
   2  Au def2-qzvpp-ri-jk [ 13s 12p 11d 9f 5g 3h 2i | 13s 11p 10d 8f 4g 3h 2i ]
   3  Au def2-qzvpp-ri-jk [ 13s 12p 11d 9f 5g 3h 2i | 13s 11p 10d 8f 4g 3h 2i ]
   4  Au def2-qzvpp-ri-jk [ 13s 12p 11d 9f 5g 3h 2i | 13s 11p 10d 8f 4g 3h 2i ]
 
 Basis functions:
            1             2             3             4             5             6             7             8             9            10
    0    1Au1s         1Au2s         1Au3s         1Au4s         1Au5s         1Au6s         1Au7s         1Au8s         1Au9s         1Au10s    
    1    1Au11s        1Au12s        1Au13s        1Au1pz        1Au1py        1Au1px        1Au2pz        1Au2py        1Au2px        1Au3pz    
    2    1Au3py        1Au3px        1Au4pz        1Au4py        1Au4px        1Au5pz        1Au5py        1Au5px        1Au6pz        1Au6py    
    3    1Au6px        1Au7pz        1Au7py        1Au7px        1Au8pz        1Au8py        1Au8px        1Au9pz        1Au9py        1Au9px    
    4    1Au10pz       1Au10py       1Au10px       1Au11pz       1Au11py       1Au11px       1Au1d-2       1Au1d-1       1Au1d0        1Au1d+1   
    5    1Au1d+2       1Au2d-2       1Au2d-1       1Au2d0        1Au2d+1       1Au2d+2       1Au3d-2       1Au3d-1       1Au3d0        1Au3d+1   
    6    1Au3d+2       1Au4d-2       1Au4d-1       1Au4d0        1Au4d+1       1Au4d+2       1Au5d-2       1Au5d-1       1Au5d0        1Au5d+1   
    7    1Au5d+2       1Au6d-2       1Au6d-1       1Au6d0        1Au6d+1       1Au6d+2       1Au7d-2       1Au7d-1       1Au7d0        1Au7d+1   
    8    1Au7d+2       1Au8d-2       1Au8d-1       1Au8d0        1Au8d+1       1Au8d+2       1Au9d-2       1Au9d-1       1Au9d0        1Au9d+1   
    9    1Au9d+2       1Au10d-2      1Au10d-1      1Au10d0       1Au10d+1      1Au10d+2      1Au1f-3       1Au1f-2       1Au1f-1       1Au1f0    
   10    1Au1f+1       1Au1f+2       1Au1f+3       1Au2f-3       1Au2f-2       1Au2f-1       1Au2f0        1Au2f+1       1Au2f+2       1Au2f+3   
   11    1Au3f-3       1Au3f-2       1Au3f-1       1Au3f0        1Au3f+1       1Au3f+2       1Au3f+3       1Au4f-3       1Au4f-2       1Au4f-1   
   12    1Au4f0        1Au4f+1       1Au4f+2       1Au4f+3       1Au5f-3       1Au5f-2       1Au5f-1       1Au5f0        1Au5f+1       1Au5f+2   
   13    1Au5f+3       1Au6f-3       1Au6f-2       1Au6f-1       1Au6f0        1Au6f+1       1Au6f+2       1Au6f+3       1Au7f-3       1Au7f-2   
   14    1Au7f-1       1Au7f0        1Au7f+1       1Au7f+2       1Au7f+3       1Au8f-3       1Au8f-2       1Au8f-1       1Au8f0        1Au8f+1   
   15    1Au8f+2       1Au8f+3       1Au1g-4       1Au1g-3       1Au1g-2       1Au1g-1       1Au1g0        1Au1g+1       1Au1g+2       1Au1g+3   
   16    1Au1g+4       1Au2g-4       1Au2g-3       1Au2g-2       1Au2g-1       1Au2g0        1Au2g+1       1Au2g+2       1Au2g+3       1Au2g+4   
   17    1Au3g-4       1Au3g-3       1Au3g-2       1Au3g-1       1Au3g0        1Au3g+1       1Au3g+2       1Au3g+3       1Au3g+4       1Au4g-4   
   18    1Au4g-3       1Au4g-2       1Au4g-1       1Au4g0        1Au4g+1       1Au4g+2       1Au4g+3       1Au4g+4       1Au1h-5       1Au1h-4   
   19    1Au1h-3       1Au1h-2       1Au1h-1       1Au1h0        1Au1h+1       1Au1h+2       1Au1h+3       1Au1h+4       1Au1h+5       1Au2h-5   
   20    1Au2h-4       1Au2h-3       1Au2h-2       1Au2h-1       1Au2h0        1Au2h+1       1Au2h+2       1Au2h+3       1Au2h+4       1Au2h+5   
   21    1Au3h-5       1Au3h-4       1Au3h-3       1Au3h-2       1Au3h-1       1Au3h0        1Au3h+1       1Au3h+2       1Au3h+3       1Au3h+4   
   22    1Au3h+5       1Au1i-6       1Au1i-5       1Au1i-4       1Au1i-3       1Au1i-2       1Au1i-1       1Au1i0        1Au1i+1       1Au1i+2   
   23    1Au1i+3       1Au1i+4       1Au1i+5       1Au1i+6       1Au2i-6       1Au2i-5       1Au2i-4       1Au2i-3       1Au2i-2       1Au2i-1   
   24    1Au2i0        1Au2i+1       1Au2i+2       1Au2i+3       1Au2i+4       1Au2i+5       1Au2i+6       2Au1s         2Au2s         2Au3s     
   25    2Au4s         2Au5s         2Au6s         2Au7s         2Au8s         2Au9s         2Au10s        2Au11s        2Au12s        2Au13s    
   26    2Au1pz        2Au1py        2Au1px        2Au2pz        2Au2py        2Au2px        2Au3pz        2Au3py        2Au3px        2Au4pz    
   27    2Au4py        2Au4px        2Au5pz        2Au5py        2Au5px        2Au6pz        2Au6py        2Au6px        2Au7pz        2Au7py    
   28    2Au7px        2Au8pz        2Au8py        2Au8px        2Au9pz        2Au9py        2Au9px        2Au10pz       2Au10py       2Au10px   
   29    2Au11pz       2Au11py       2Au11px       2Au1d-2       2Au1d-1       2Au1d0        2Au1d+1       2Au1d+2       2Au2d-2       2Au2d-1   
   30    2Au2d0        2Au2d+1       2Au2d+2       2Au3d-2       2Au3d-1       2Au3d0        2Au3d+1       2Au3d+2       2Au4d-2       2Au4d-1   
   31    2Au4d0        2Au4d+1       2Au4d+2       2Au5d-2       2Au5d-1       2Au5d0        2Au5d+1       2Au5d+2       2Au6d-2       2Au6d-1   
   32    2Au6d0        2Au6d+1       2Au6d+2       2Au7d-2       2Au7d-1       2Au7d0        2Au7d+1       2Au7d+2       2Au8d-2       2Au8d-1   
   33    2Au8d0        2Au8d+1       2Au8d+2       2Au9d-2       2Au9d-1       2Au9d0        2Au9d+1       2Au9d+2       2Au10d-2      2Au10d-1  
   34    2Au10d0       2Au10d+1      2Au10d+2      2Au1f-3       2Au1f-2       2Au1f-1       2Au1f0        2Au1f+1       2Au1f+2       2Au1f+3   
   35    2Au2f-3       2Au2f-2       2Au2f-1       2Au2f0        2Au2f+1       2Au2f+2       2Au2f+3       2Au3f-3       2Au3f-2       2Au3f-1   
   36    2Au3f0        2Au3f+1       2Au3f+2       2Au3f+3       2Au4f-3       2Au4f-2       2Au4f-1       2Au4f0        2Au4f+1       2Au4f+2   
   37    2Au4f+3       2Au5f-3       2Au5f-2       2Au5f-1       2Au5f0        2Au5f+1       2Au5f+2       2Au5f+3       2Au6f-3       2Au6f-2   
   38    2Au6f-1       2Au6f0        2Au6f+1       2Au6f+2       2Au6f+3       2Au7f-3       2Au7f-2       2Au7f-1       2Au7f0        2Au7f+1   
   39    2Au7f+2       2Au7f+3       2Au8f-3       2Au8f-2       2Au8f-1       2Au8f0        2Au8f+1       2Au8f+2       2Au8f+3       2Au1g-4   
   40    2Au1g-3       2Au1g-2       2Au1g-1       2Au1g0        2Au1g+1       2Au1g+2       2Au1g+3       2Au1g+4       2Au2g-4       2Au2g-3   
   41    2Au2g-2       2Au2g-1       2Au2g0        2Au2g+1       2Au2g+2       2Au2g+3       2Au2g+4       2Au3g-4       2Au3g-3       2Au3g-2   
   42    2Au3g-1       2Au3g0        2Au3g+1       2Au3g+2       2Au3g+3       2Au3g+4       2Au4g-4       2Au4g-3       2Au4g-2       2Au4g-1   
   43    2Au4g0        2Au4g+1       2Au4g+2       2Au4g+3       2Au4g+4       2Au1h-5       2Au1h-4       2Au1h-3       2Au1h-2       2Au1h-1   
   44    2Au1h0        2Au1h+1       2Au1h+2       2Au1h+3       2Au1h+4       2Au1h+5       2Au2h-5       2Au2h-4       2Au2h-3       2Au2h-2   
   45    2Au2h-1       2Au2h0        2Au2h+1       2Au2h+2       2Au2h+3       2Au2h+4       2Au2h+5       2Au3h-5       2Au3h-4       2Au3h-3   
   46    2Au3h-2       2Au3h-1       2Au3h0        2Au3h+1       2Au3h+2       2Au3h+3       2Au3h+4       2Au3h+5       2Au1i-6       2Au1i-5   
   47    2Au1i-4       2Au1i-3       2Au1i-2       2Au1i-1       2Au1i0        2Au1i+1       2Au1i+2       2Au1i+3       2Au1i+4       2Au1i+5   
   48    2Au1i+6       2Au2i-6       2Au2i-5       2Au2i-4       2Au2i-3       2Au2i-2       2Au2i-1       2Au2i0        2Au2i+1       2Au2i+2   
   49    2Au2i+3       2Au2i+4       2Au2i+5       2Au2i+6       3Au1s         3Au2s         3Au3s         3Au4s         3Au5s         3Au6s     
   50    3Au7s         3Au8s         3Au9s         3Au10s        3Au11s        3Au12s        3Au13s        3Au1pz        3Au1py        3Au1px    
   51    3Au2pz        3Au2py        3Au2px        3Au3pz        3Au3py        3Au3px        3Au4pz        3Au4py        3Au4px        3Au5pz    
   52    3Au5py        3Au5px        3Au6pz        3Au6py        3Au6px        3Au7pz        3Au7py        3Au7px        3Au8pz        3Au8py    
   53    3Au8px        3Au9pz        3Au9py        3Au9px        3Au10pz       3Au10py       3Au10px       3Au11pz       3Au11py       3Au11px   
   54    3Au1d-2       3Au1d-1       3Au1d0        3Au1d+1       3Au1d+2       3Au2d-2       3Au2d-1       3Au2d0        3Au2d+1       3Au2d+2   
   55    3Au3d-2       3Au3d-1       3Au3d0        3Au3d+1       3Au3d+2       3Au4d-2       3Au4d-1       3Au4d0        3Au4d+1       3Au4d+2   
   56    3Au5d-2       3Au5d-1       3Au5d0        3Au5d+1       3Au5d+2       3Au6d-2       3Au6d-1       3Au6d0        3Au6d+1       3Au6d+2   
   57    3Au7d-2       3Au7d-1       3Au7d0        3Au7d+1       3Au7d+2       3Au8d-2       3Au8d-1       3Au8d0        3Au8d+1       3Au8d+2   
   58    3Au9d-2       3Au9d-1       3Au9d0        3Au9d+1       3Au9d+2       3Au10d-2      3Au10d-1      3Au10d0       3Au10d+1      3Au10d+2  
   59    3Au1f-3       3Au1f-2       3Au1f-1       3Au1f0        3Au1f+1       3Au1f+2       3Au1f+3       3Au2f-3       3Au2f-2       3Au2f-1   
   60    3Au2f0        3Au2f+1       3Au2f+2       3Au2f+3       3Au3f-3       3Au3f-2       3Au3f-1       3Au3f0        3Au3f+1       3Au3f+2   
   61    3Au3f+3       3Au4f-3       3Au4f-2       3Au4f-1       3Au4f0        3Au4f+1       3Au4f+2       3Au4f+3       3Au5f-3       3Au5f-2   
   62    3Au5f-1       3Au5f0        3Au5f+1       3Au5f+2       3Au5f+3       3Au6f-3       3Au6f-2       3Au6f-1       3Au6f0        3Au6f+1   
   63    3Au6f+2       3Au6f+3       3Au7f-3       3Au7f-2       3Au7f-1       3Au7f0        3Au7f+1       3Au7f+2       3Au7f+3       3Au8f-3   
   64    3Au8f-2       3Au8f-1       3Au8f0        3Au8f+1       3Au8f+2       3Au8f+3       3Au1g-4       3Au1g-3       3Au1g-2       3Au1g-1   
   65    3Au1g0        3Au1g+1       3Au1g+2       3Au1g+3       3Au1g+4       3Au2g-4       3Au2g-3       3Au2g-2       3Au2g-1       3Au2g0    
   66    3Au2g+1       3Au2g+2       3Au2g+3       3Au2g+4       3Au3g-4       3Au3g-3       3Au3g-2       3Au3g-1       3Au3g0        3Au3g+1   
   67    3Au3g+2       3Au3g+3       3Au3g+4       3Au4g-4       3Au4g-3       3Au4g-2       3Au4g-1       3Au4g0        3Au4g+1       3Au4g+2   
   68    3Au4g+3       3Au4g+4       3Au1h-5       3Au1h-4       3Au1h-3       3Au1h-2       3Au1h-1       3Au1h0        3Au1h+1       3Au1h+2   
   69    3Au1h+3       3Au1h+4       3Au1h+5       3Au2h-5       3Au2h-4       3Au2h-3       3Au2h-2       3Au2h-1       3Au2h0        3Au2h+1   
   70    3Au2h+2       3Au2h+3       3Au2h+4       3Au2h+5       3Au3h-5       3Au3h-4       3Au3h-3       3Au3h-2       3Au3h-1       3Au3h0    
   71    3Au3h+1       3Au3h+2       3Au3h+3       3Au3h+4       3Au3h+5       3Au1i-6       3Au1i-5       3Au1i-4       3Au1i-3       3Au1i-2   
   72    3Au1i-1       3Au1i0        3Au1i+1       3Au1i+2       3Au1i+3       3Au1i+4       3Au1i+5       3Au1i+6       3Au2i-6       3Au2i-5   
   73    3Au2i-4       3Au2i-3       3Au2i-2       3Au2i-1       3Au2i0        3Au2i+1       3Au2i+2       3Au2i+3       3Au2i+4       3Au2i+5   
   74    3Au2i+6       4Au1s         4Au2s         4Au3s         4Au4s         4Au5s         4Au6s         4Au7s         4Au8s         4Au9s     
   75    4Au10s        4Au11s        4Au12s        4Au13s        4Au1pz        4Au1py        4Au1px        4Au2pz        4Au2py        4Au2px    
   76    4Au3pz        4Au3py        4Au3px        4Au4pz        4Au4py        4Au4px        4Au5pz        4Au5py        4Au5px        4Au6pz    
   77    4Au6py        4Au6px        4Au7pz        4Au7py        4Au7px        4Au8pz        4Au8py        4Au8px        4Au9pz        4Au9py    
   78    4Au9px        4Au10pz       4Au10py       4Au10px       4Au11pz       4Au11py       4Au11px       4Au1d-2       4Au1d-1       4Au1d0    
   79    4Au1d+1       4Au1d+2       4Au2d-2       4Au2d-1       4Au2d0        4Au2d+1       4Au2d+2       4Au3d-2       4Au3d-1       4Au3d0    
   80    4Au3d+1       4Au3d+2       4Au4d-2       4Au4d-1       4Au4d0        4Au4d+1       4Au4d+2       4Au5d-2       4Au5d-1       4Au5d0    
   81    4Au5d+1       4Au5d+2       4Au6d-2       4Au6d-1       4Au6d0        4Au6d+1       4Au6d+2       4Au7d-2       4Au7d-1       4Au7d0    
   82    4Au7d+1       4Au7d+2       4Au8d-2       4Au8d-1       4Au8d0        4Au8d+1       4Au8d+2       4Au9d-2       4Au9d-1       4Au9d0    
   83    4Au9d+1       4Au9d+2       4Au10d-2      4Au10d-1      4Au10d0       4Au10d+1      4Au10d+2      4Au1f-3       4Au1f-2       4Au1f-1   
   84    4Au1f0        4Au1f+1       4Au1f+2       4Au1f+3       4Au2f-3       4Au2f-2       4Au2f-1       4Au2f0        4Au2f+1       4Au2f+2   
   85    4Au2f+3       4Au3f-3       4Au3f-2       4Au3f-1       4Au3f0        4Au3f+1       4Au3f+2       4Au3f+3       4Au4f-3       4Au4f-2   
   86    4Au4f-1       4Au4f0        4Au4f+1       4Au4f+2       4Au4f+3       4Au5f-3       4Au5f-2       4Au5f-1       4Au5f0        4Au5f+1   
   87    4Au5f+2       4Au5f+3       4Au6f-3       4Au6f-2       4Au6f-1       4Au6f0        4Au6f+1       4Au6f+2       4Au6f+3       4Au7f-3   
   88    4Au7f-2       4Au7f-1       4Au7f0        4Au7f+1       4Au7f+2       4Au7f+3       4Au8f-3       4Au8f-2       4Au8f-1       4Au8f0    
   89    4Au8f+1       4Au8f+2       4Au8f+3       4Au1g-4       4Au1g-3       4Au1g-2       4Au1g-1       4Au1g0        4Au1g+1       4Au1g+2   
   90    4Au1g+3       4Au1g+4       4Au2g-4       4Au2g-3       4Au2g-2       4Au2g-1       4Au2g0        4Au2g+1       4Au2g+2       4Au2g+3   
   91    4Au2g+4       4Au3g-4       4Au3g-3       4Au3g-2       4Au3g-1       4Au3g0        4Au3g+1       4Au3g+2       4Au3g+3       4Au3g+4   
   92    4Au4g-4       4Au4g-3       4Au4g-2       4Au4g-1       4Au4g0        4Au4g+1       4Au4g+2       4Au4g+3       4Au4g+4       4Au1h-5   
   93    4Au1h-4       4Au1h-3       4Au1h-2       4Au1h-1       4Au1h0        4Au1h+1       4Au1h+2       4Au1h+3       4Au1h+4       4Au1h+5   
   94    4Au2h-5       4Au2h-4       4Au2h-3       4Au2h-2       4Au2h-1       4Au2h0        4Au2h+1       4Au2h+2       4Au2h+3       4Au2h+4   
   95    4Au2h+5       4Au3h-5       4Au3h-4       4Au3h-3       4Au3h-2       4Au3h-1       4Au3h0        4Au3h+1       4Au3h+2       4Au3h+3   
   96    4Au3h+4       4Au3h+5       4Au1i-6       4Au1i-5       4Au1i-4       4Au1i-3       4Au1i-2       4Au1i-1       4Au1i0        4Au1i+1   
   97    4Au1i+2       4Au1i+3       4Au1i+4       4Au1i+5       4Au1i+6       4Au2i-6       4Au2i-5       4Au2i-4       4Au2i-3       4Au2i-2   
   98    4Au2i-1       4Au2i0        4Au2i+1       4Au2i+2       4Au2i+3       4Au2i+4       4Au2i+5       4Au2i+6   
 
 Maximum number of basis functions per shell:   56
 Total number of basis functions:    988
 
 
 Effective core potentials:
 
   1  Au mcdhf-ecp-60        
   2  Au mcdhf-ecp-60        
   3  Au mcdhf-ecp-60        
   4  Au mcdhf-ecp-60        
 
 Initializing the SAD routines for the initial guess...
 Checking the files required for the initial guess...
 Density files have not been found for the initial guess.
 Generating SCFDENSITIES.Au.def2-svp.0
 CPU time [min]:     0.117                   Wall time [min]:     0.158
 
 Character table for point group C1:
 
          E  
    A     1
 
 Number of basis functions per irrep:
    A     128
 
 
 Calculation of overlap integrals...
 CPU time [min]:     0.118                   Wall time [min]:     0.158
 
 Calculation of the square root of the overlap matrix...
 Minimum eigenvalue of the overlap matrix: 0.292265E-02
 CPU time [min]:     0.136                   Wall time [min]:     0.159
 
 Calculation of kinetic energy integrals...
 CPU time [min]:     0.137                   Wall time [min]:     0.159
 Calculation of dipole moment integrals...
 CPU time [min]:     0.138                   Wall time [min]:     0.159
 Calculation of nuclear attraction integrals...
 CPU time [min]:     0.142                   Wall time [min]:     0.159
 Calculation of core potential integrals...
 CPU time [min]:     0.397                   Wall time [min]:     0.305
 
 Calculation of prescreening integrals...
 CPU time [min]:     0.542                   Wall time [min]:     0.309
 
 Calculation of two-center Coulomb integrals...
   1% done.
  12% done.
  25% done.
  36% done.
  48% done.
  63% done.
  82% done.
  95% done.
 100% done.
 CPU time [min]:     0.561                   Wall time [min]:     0.310
 
 Cholesky decomposition of the two-center matrix...
 Reciprocal of the condition number:  0.154923E-05
 CPU time [min]:     0.598                   Wall time [min]:     0.311
 
 
 Running small-basis SCF...

 ************************ 2023-01-16 17:42:49 *************************
 Executing scf...

 @scfsetup: integrals calculated directly
            mrcc/integ direct run
 @scfsetup: calculating on full matrices
            not using symmetry adapted basis
 @scfsetup: diis switched on
 @scfsetup: number of steps to extrapolate from  10
 @scfsetup: tolerance in energy deviation    0.100000E-05
            tolerance in density deviation    0.100000E-06
 @scfsetup: maximum number of iterations:  50
 @scfsetup: restricted closed shell hf calc
 @scfsetup: starting scf from superposition of atomic densities
 @scfsetup: occupation set:
            from initial orbitals
 @scfsetup: Parameter-set for SCF acceleration: difficult
 @scfsetup: diis runs from iteration:   2
 @scfsetup: diis runs to iteration:  50
 @scfsetup: diis runs in every iteration
 @scfsetup: diiswatch is disabled                   
 @scfsetup: diis dtol criteria to switch on:      0.0000E+00
           (or the iteration number below is reached)
 @scfsetup: damping is turned off.
 @scfsetup: dynamic level shifting
            tolarance in HOMO-LUMO gap:  0.200
            tolarance in density deviation:     0.0000E+00
            iteration step criteria to turn level shifting off: 8
 Allocation of 220.0 Gbytes of memory...
 ======================================================================
 ITERATION STEP   1
 CPU time [min]:     0.024                   Wall time [min]:     0.005
 

 SCF control                  : initial
 Damping factor/level shift   : 0.000/0.200
 DIIS [start/end/frequency]   :   2 / 50 /  1

 Constructing Fock-matrix...
 
 Pipek-Mezey localization...
 Step  Convergence
   1  57.695003020792
   2  18.270721087525
   3  11.224996435898
   4   3.168827601316
   5   0.134809161683
   6   0.000062463954
   7   0.000000005071
 CPU time [min]:     0.047                   Wall time [min]:     0.005
 
 Constructing local fitting domains...
 Maximum number of atoms in fitting domains:    4
 Average number of atoms in fitting domains:    4.0
 
 First step of Coulomb + first step of exchange...
 Exchange contribution is evaluated for MOs 1 to 38.
   1% done.
  14% done.
  25% done.
  38% done.
  49% done.
  64% done.
  75% done.
  89% done.
 100% done.
 CPU time [min]:     0.205                   Wall time [min]:     0.010
 
 Fitting and assembly step of exchange...
 CPU time [min]:     0.215                   Wall time [min]:     0.010
 
 Second step of Coulomb...
   1% done.
  14% done.
  25% done.
  38% done.
  49% done.
  64% done.
  75% done.
  89% done.
 100% done.
 CPU time [min]:     0.261                   Wall time [min]:     0.012
 
 Gradient norm:      2.6981E+00
 RMS of [F,P]:                                         0.04274144884368
 RMS of difference density:                            0.02954129979852
 Gap [au]:  0.13968604
 ALPHA OCC:  38
 BETA  OCC:  38
 
 ***HARTREE-FOCK ENERGY IN STEP   1 IS       -537.7022161078418776 [AU]
 ======================================================================
 ITERATION STEP   2
 CPU time [min]:     0.273                   Wall time [min]:     0.012
 

 SCF control                  : diis
 Damping factor/level shift   : 0.000/0.200
 DIIS [start/end/frequency]   :   2 / 50 /  1

 Constructing Fock-matrix...
 
 Pipek-Mezey localization...
 Step  Convergence
   1   2.439406416182
   2   2.007827114822
   3   0.135179830813
   4   0.000889140480
   5   0.000000123549
 CPU time [min]:     0.294                   Wall time [min]:     0.013
 
 Constructing local fitting domains...
 Maximum number of atoms in fitting domains:    4
 Average number of atoms in fitting domains:    4.0
 
 First step of Coulomb + first step of exchange...
 Exchange contribution is evaluated for MOs 1 to 38.
   1% done.
  14% done.
  25% done.
  38% done.
  49% done.
  64% done.
  75% done.
  89% done.
 100% done.
 CPU time [min]:     0.411                   Wall time [min]:     0.016
 
 Fitting and assembly step of exchange...
 CPU time [min]:     0.417                   Wall time [min]:     0.016
 
 Second step of Coulomb...
   1% done.
  14% done.
  25% done.
  38% done.
  49% done.
  64% done.
  75% done.
  89% done.
 100% done.
 CPU time [min]:     0.457                   Wall time [min]:     0.017
 
 Gradient norm:      4.0023E-01
 DIIS is running in this iteration step.
 RMS of [F,P]:                                         0.01373079983082
 RMS of difference density:                            0.01634469854110
 Gap [au]:  0.18806064
 ALPHA OCC:  38
 BETA  OCC:  38
 
 ***HARTREE-FOCK ENERGY IN STEP   2 IS       -538.8331548922658385 [AU]
 
 Step comparison  Energy Drift [au]  DIIS error drift  Gradient drift
        1            1.1309E+00         2.9011E-02       2.2979E+00
        2            5.3883E+02         1.0000E-07       2.2979E+00
 ======================================================================
 ITERATION STEP   3
 CPU time [min]:     0.467                   Wall time [min]:     0.018
 

 SCF control                  : diis
 Damping factor/level shift   : 0.000/0.200
 DIIS [start/end/frequency]   :   2 / 50 /  1

 Constructing Fock-matrix...
 
 Pipek-Mezey localization...
 Step  Convergence
   1  13.324723315280
   2   3.443384198317
   3   0.221156693292
   4   0.001173616835
   5   0.000000117295
 CPU time [min]:     0.488                   Wall time [min]:     0.018
 
 Constructing local fitting domains...
 Local fitting domains are unchanged.
 
 First step of Coulomb + first step of exchange...
 Exchange contribution is evaluated for MOs 1 to 38.
   1% done.
  14% done.
  25% done.
  38% done.
  49% done.
  64% done.
  75% done.
  89% done.
 100% done.
 CPU time [min]:     0.604                   Wall time [min]:     0.021
 
 Fitting and assembly step of exchange...
 CPU time [min]:     0.610                   Wall time [min]:     0.022
 
 Second step of Coulomb...
   1% done.
  14% done.
  25% done.
  38% done.
  49% done.
  64% done.
  75% done.
  89% done.
 100% done.
 CPU time [min]:     0.650                   Wall time [min]:     0.023
 
 Gradient norm:      1.3931E-01
 DIIS is running in this iteration step.
 RMS of [F,P]:                                         0.00524838228008
 RMS of difference density:                            0.00379671470324
 Gap [au]:  0.18171502
 ALPHA OCC:  38
 BETA  OCC:  38
 
 ***HARTREE-FOCK ENERGY IN STEP   3 IS       -539.0581177941085116 [AU]
 
 Step comparison  Energy Drift [au]  DIIS error drift  Gradient drift
        2            2.2496E-01         8.4824E-03       2.6092E-01
 ======================================================================
 ITERATION STEP   4
 CPU time [min]:     0.659                   Wall time [min]:     0.023
 

 SCF control                  : diis
 Damping factor/level shift   : 0.000/0.200
 DIIS [start/end/frequency]   :   2 / 50 /  1

 Constructing Fock-matrix...
 
 Pipek-Mezey localization...
 Step  Convergence
   1  18.896302006553
   2   2.149985254506
   3   0.069582243435
   4   0.000012920213
   5   0.000000002497
 CPU time [min]:     0.680                   Wall time [min]:     0.024
 
 Constructing local fitting domains...
 Local fitting domains are unchanged.
 
 First step of Coulomb + first step of exchange...
 Exchange contribution is evaluated for MOs 1 to 38.
   1% done.
  14% done.
  25% done.
  38% done.
  49% done.
  64% done.
  75% done.
  89% done.
 100% done.
 CPU time [min]:     0.795                   Wall time [min]:     0.027
 
 Fitting and assembly step of exchange...
 CPU time [min]:     0.801                   Wall time [min]:     0.027
 
 Second step of Coulomb...
   1% done.
  14% done.
  25% done.
  38% done.
  49% done.
  64% done.
  75% done.
  89% done.
 100% done.
 CPU time [min]:     0.841                   Wall time [min]:     0.028
 
 Gradient norm:      3.8758E-02
 DIIS is running in this iteration step.
 RMS of [F,P]:                                         0.00084174304404
 RMS of difference density:                            0.00088674990343
 Gap [au]:  0.18538780
 ALPHA OCC:  38
 BETA  OCC:  38
 
 ***HARTREE-FOCK ENERGY IN STEP   4 IS       -539.0988933069907034 [AU]
 
 Step comparison  Energy Drift [au]  DIIS error drift  Gradient drift
        3            4.0776E-02         4.4066E-03       1.0056E-01
 ======================================================================
 ITERATION STEP   5
 CPU time [min]:     0.850                   Wall time [min]:     0.028
 

 SCF control                  : diis
 Damping factor/level shift   : 0.000/0.200
 DIIS [start/end/frequency]   :   2 / 50 /  1

 Constructing Fock-matrix...
 
 Pipek-Mezey localization...
 Step  Convergence
   1  13.155469394048
   2   1.526755010535
   3   0.058677825630
   4   0.000010780618
   5   0.000000002481
 CPU time [min]:     0.871                   Wall time [min]:     0.029
 
 Constructing local fitting domains...
 Local fitting domains are unchanged.
 
 First step of Coulomb + first step of exchange...
 Exchange contribution is evaluated for MOs 1 to 38.
   1% done.
  14% done.
  25% done.
  38% done.
  49% done.
  64% done.
  75% done.
  89% done.
 100% done.
 CPU time [min]:     0.986                   Wall time [min]:     0.032
 
 Fitting and assembly step of exchange...
 CPU time [min]:     0.992                   Wall time [min]:     0.032
 
 Second step of Coulomb...
   1% done.
  14% done.
  25% done.
  38% done.
  49% done.
  64% done.
  75% done.
  89% done.
 100% done.
 CPU time [min]:     1.032                   Wall time [min]:     0.033
 
 Gradient norm:      1.9731E-02
 DIIS is running in this iteration step.
 RMS of [F,P]:                                         0.00035574297046
 RMS of difference density:                            0.00095536463097
 Gap [au]:  0.18792113
 ALPHA OCC:  38
 BETA  OCC:  38
 
 ***HARTREE-FOCK ENERGY IN STEP   5 IS       -539.1011518979198627 [AU]
 
 Step comparison  Energy Drift [au]  DIIS error drift  Gradient drift
        4            2.2586E-03         4.8600E-04       1.9026E-02
 ======================================================================
 ITERATION STEP   6
 CPU time [min]:     1.042                   Wall time [min]:     0.034
 

 SCF control                  : diis
 Damping factor/level shift   : 0.000/0.200
 DIIS [start/end/frequency]   :   2 / 50 /  1

 Constructing Fock-matrix...
 
 Pipek-Mezey localization...
 Step  Convergence
   1  12.525516650130
   2   3.481648751024
   3   0.266820210513
   4   0.000354792146
   5   0.000000014006
 CPU time [min]:     1.063                   Wall time [min]:     0.034
 
 Constructing local fitting domains...
 Local fitting domains are unchanged.
 
 First step of Coulomb + first step of exchange...
 Exchange contribution is evaluated for MOs 1 to 38.
   1% done.
  14% done.
  25% done.
  38% done.
  49% done.
  64% done.
  75% done.
  89% done.
 100% done.
 CPU time [min]:     1.178                   Wall time [min]:     0.037
 
 Fitting and assembly step of exchange...
 CPU time [min]:     1.184                   Wall time [min]:     0.038
 
 Second step of Coulomb...
   1% done.
  14% done.
  25% done.
  38% done.
  49% done.
  64% done.
  75% done.
  89% done.
 100% done.
 CPU time [min]:     1.224                   Wall time [min]:     0.039
 
 Gradient norm:      1.1507E-02
 DIIS is running in this iteration step.
 RMS of [F,P]:                                         0.00012425804191
 RMS of difference density:                            0.00044106082136
 Gap [au]:  0.18813554
 ALPHA OCC:  38
 BETA  OCC:  38
 
 ***HARTREE-FOCK ENERGY IN STEP   6 IS       -539.1020018158317271 [AU]
 
 Step comparison  Energy Drift [au]  DIIS error drift  Gradient drift
        5            8.4992E-04         2.3148E-04       8.2241E-03
 ======================================================================
 ITERATION STEP   7
 CPU time [min]:     1.233                   Wall time [min]:     0.039
 

 SCF control                  : diis
 Damping factor/level shift   : 0.000/0.200
 DIIS [start/end/frequency]   :   2 / 50 /  1

 Constructing Fock-matrix...
 
 Pipek-Mezey localization...
 Step  Convergence
   1  20.148912797316
   2   8.730012450958
   3   9.732759022468
   4   2.717148447075
   5   0.826675580152
   6   0.041469136027
   7   0.009441200259
   8   0.001405408256
   9   0.000610154149
  10   0.000093719607
  11   0.000042180875
  12   0.000006808513
  13   0.000002977535
  14   0.000000513615
  15   0.000000216836
  16   0.000000040174
  17   0.000000016207
  18   0.000000003262
  19   0.000000001270
  20   0.000000000273
  21   0.000000000102
  22   0.000000000023
  23   0.000000000008
  24   0.000000000002
  25   0.000000000001
 CPU time [min]:     1.263                   Wall time [min]:     0.040
 
 Constructing local fitting domains...
 Local fitting domains are unchanged.
 
 First step of Coulomb + first step of exchange...
 Exchange contribution is evaluated for MOs 1 to 38.
   1% done.
  14% done.
  25% done.
  38% done.
  49% done.
  64% done.
  75% done.
  89% done.
 100% done.
 CPU time [min]:     1.378                   Wall time [min]:     0.043
 
 Fitting and assembly step of exchange...
 CPU time [min]:     1.384                   Wall time [min]:     0.043
 
 Second step of Coulomb...
   1% done.
  14% done.
  25% done.
  38% done.
  49% done.
  64% done.
  75% done.
  89% done.
 100% done.
 CPU time [min]:     1.424                   Wall time [min]:     0.044
 
 Gradient norm:      6.7843E-03
 DIIS is running in this iteration step.
 RMS of [F,P]:                                         0.00006708827652
 RMS of difference density:                            0.00026329230281
 Gap [au]:  0.18863082
 ALPHA OCC:  38
 BETA  OCC:  38
 
 ***HARTREE-FOCK ENERGY IN STEP   7 IS       -539.1021887495746796 [AU]
 
 Step comparison  Energy Drift [au]  DIIS error drift  Gradient drift
        6            1.8693E-04         5.7170E-05       4.7229E-03
 ======================================================================
 ITERATION STEP   8
 CPU time [min]:     1.434                   Wall time [min]:     0.045
 

 SCF control                  : diis
 Damping factor/level shift   : 0.000/0.200
 DIIS [start/end/frequency]   :   2 / 50 /  1

 Constructing Fock-matrix...
 
 Pipek-Mezey localization...
 Step  Convergence
   1  17.275194120003
   2   7.498004836804
   3   7.690526880815
   4   3.010012396871
   5   0.743675492352
   6   0.216471146696
   7   0.084040258673
   8   0.013630704605
   9   0.002050358504
  10   0.001211186096
  11   0.000197998564
  12   0.000103251709
  13   0.000018603836
  14   0.000008828715
  15   0.000001546497
  16   0.000000664021
  17   0.000000129493
  18   0.000000054265
  19   0.000000010852
  20   0.000000004654
  21   0.000000000985
  22   0.000000000392
  23   0.000000000078
  24   0.000000000029
  25   0.000000000006
  26   0.000000000002
  27   0.000000000001
 CPU time [min]:     1.465                   Wall time [min]:     0.046
 
 Constructing local fitting domains...
 Local fitting domains are unchanged.
 
 First step of Coulomb + first step of exchange...
 Exchange contribution is evaluated for MOs 1 to 38.
   1% done.
  14% done.
  25% done.
  38% done.
  49% done.
  64% done.
  75% done.
  89% done.
 100% done.
 CPU time [min]:     1.579                   Wall time [min]:     0.049
 
 Fitting and assembly step of exchange...
 CPU time [min]:     1.585                   Wall time [min]:     0.049
 
 Second step of Coulomb...
   1% done.
  14% done.
  25% done.
  38% done.
  49% done.
  64% done.
  75% done.
  89% done.
 100% done.
 CPU time [min]:     1.625                   Wall time [min]:     0.050
 
 Gradient norm:      3.5327E-03
 DIIS is running in this iteration step.
 RMS of [F,P]:                                         0.00003275053396
 RMS of difference density:                            0.00013503534556
 Gap [au]:  0.18872176
 ALPHA OCC:  38
 BETA  OCC:  38
 
 ***HARTREE-FOCK ENERGY IN STEP   8 IS       -539.1022504649668008 [AU]
 
 Step comparison  Energy Drift [au]  DIIS error drift  Gradient drift
        7            6.1715E-05         3.4338E-05       3.2516E-03
 ======================================================================
 ITERATION STEP   9
 CPU time [min]:     1.634                   Wall time [min]:     0.050
 

 SCF control                  : diis
 Damping factor/level shift   : 0.000/0.000
 DIIS [start/end/frequency]   :   2 / 50 /  1

 Constructing Fock-matrix...
 
 Pipek-Mezey localization...
 Step  Convergence
   1  20.146813429328
   2   8.782838258258
   3   6.569005045715
   4   3.002709332410
   5   1.431019144881
   6   0.197128645557
   7   0.064742561258
   8   0.010459230165
   9   0.004107351097
  10   0.000975616014
  11   0.000345846567
  12   0.000085870079
  13   0.000029762986
  14   0.000007604455
  15   0.000002568722
  16   0.000000683262
  17   0.000000229576
  18   0.000000062015
  19   0.000000020530
  20   0.000000005683
  21   0.000000001859
  22   0.000000000523
  23   0.000000000168
  24   0.000000000049
  25   0.000000000016
  26   0.000000000005
  27   0.000000000001
  28   0.000000000000
 CPU time [min]:     1.665                   Wall time [min]:     0.051
 
 Constructing local fitting domains...
 Local fitting domains are unchanged.
 
 First step of Coulomb + first step of exchange...
 Exchange contribution is evaluated for MOs 1 to 38.
   1% done.
  14% done.
  25% done.
  38% done.
  49% done.
  64% done.
  75% done.
  89% done.
 100% done.
 CPU time [min]:     1.780                   Wall time [min]:     0.054
 
 Fitting and assembly step of exchange...
 CPU time [min]:     1.786                   Wall time [min]:     0.055
 
 Second step of Coulomb...
   1% done.
  14% done.
  25% done.
  38% done.
  49% done.
  64% done.
  75% done.
  89% done.
 100% done.
 CPU time [min]:     1.826                   Wall time [min]:     0.056
 
 Gradient norm:      1.8371E-03
 DIIS is running in this iteration step.
 RMS of [F,P]:                                         0.00001644114070
 RMS of difference density:                            0.00010042800800
 Gap [au]:  0.18878979
 ALPHA OCC:  38
 BETA  OCC:  38
 
 ***HARTREE-FOCK ENERGY IN STEP   9 IS       -539.1022661685467483 [AU]
 
 Step comparison  Energy Drift [au]  DIIS error drift  Gradient drift
        8            1.5704E-05         1.6309E-05       1.6956E-03
 ======================================================================
 ITERATION STEP  10
 CPU time [min]:     1.836                   Wall time [min]:     0.056
 

 SCF control                  : diis
 Damping factor/level shift   : 0.000/0.000
 DIIS [start/end/frequency]   :   2 / 50 /  1

 Constructing Fock-matrix...
 
 Pipek-Mezey localization...
 Step  Convergence
   1  19.979415913758
   2   8.072943115992
   3   6.550841803300
   4   4.030980262495
   5   0.554329983158
   6   0.075902523981
   7   0.031057127324
   8   0.059881147016
   9   0.176724314917
  10   0.008522080164
  11   0.002696860600
  12   0.000965626135
  13   0.000249906122
  14   0.000093888599
  15   0.000025906729
  16   0.000009526200
  17   0.000002738561
  18   0.000000854421
  19   0.000000428371
  20   0.000000076624
  21   0.000000039992
  22   0.000000007959
  23   0.000000003916
  24   0.000000000827
  25   0.000000000386
  26   0.000000000086
  27   0.000000000038
  28   0.000000000009
  29   0.000000000004
  30   0.000000000001
 CPU time [min]:     1.868                   Wall time [min]:     0.057
 
 Constructing local fitting domains...
 Local fitting domains are unchanged.
 
 First step of Coulomb + first step of exchange...
 Exchange contribution is evaluated for MOs 1 to 38.
   1% done.
  14% done.
  25% done.
  38% done.
  49% done.
  64% done.
  75% done.
  89% done.
 100% done.
 CPU time [min]:     1.982                   Wall time [min]:     0.060
 
 Fitting and assembly step of exchange...
 CPU time [min]:     1.988                   Wall time [min]:     0.060
 
 Second step of Coulomb...
   1% done.
  14% done.
  25% done.
  38% done.
  49% done.
  64% done.
  75% done.
  89% done.
 100% done.
 CPU time [min]:     2.028                   Wall time [min]:     0.061
 
 Gradient norm:      1.4058E-04
 DIIS is running in this iteration step.
 RMS of [F,P]:                                         0.00000227054255
 RMS of difference density:                            0.00000952176981
 Gap [au]:  0.18879419
 ALPHA OCC:  38
 BETA  OCC:  38
 
 ***HARTREE-FOCK ENERGY IN STEP  10 IS       -539.1022708047637479 [AU]
 
 Step comparison  Energy Drift [au]  DIIS error drift  Gradient drift
        9            4.6362E-06         1.4171E-05       1.6965E-03
 ======================================================================
 ITERATION STEP  11
 CPU time [min]:     2.062                   Wall time [min]:     0.062
 

 SCF control                  : diis
 Damping factor/level shift   : 0.000/0.000
 DIIS [start/end/frequency]   :   2 / 50 /  1

 Constructing Fock-matrix...
 
 Pipek-Mezey localization...
 Step  Convergence
   1  20.022625466935
   2   6.754144654425
   3  10.087451426161
   4   4.346239738766
   5   0.879520690310
   6   0.563681122083
   7   0.047401765583
   8   0.014323524402
   9   0.012622670796
  10   0.010510579065
  11   0.010795153043
  12   0.014797293504
  13   0.263996667122
  14   0.010611339114
  15   0.013596345427
  16   0.005401261020
  17   0.002272886251
  18   0.000876497204
  19   0.000337618194
  20   0.000129664634
  21   0.000049086955
  22   0.000018323305
  23   0.000006970177
  24   0.000002581508
  25   0.000000981578
  26   0.000000362910
  27   0.000000137938
  28   0.000000050977
  29   0.000000019382
  30   0.000000007182
  31   0.000000002698
  32   0.000000001014
  33   0.000000000380
  34   0.000000000143
  35   0.000000000053
  36   0.000000000020
  37   0.000000000007
  38   0.000000000003
  39   0.000000000001
  40   0.000000000000
 CPU time [min]:     2.098                   Wall time [min]:     0.063
 
 Constructing local fitting domains...
 Local fitting domains are unchanged.
 
 First step of Coulomb + first step of exchange...
 Exchange contribution is evaluated for MOs 1 to 38.
   1% done.
  14% done.
  25% done.
  38% done.
  49% done.
  64% done.
  75% done.
  89% done.
 100% done.
 CPU time [min]:     2.213                   Wall time [min]:     0.067
 
 Fitting and assembly step of exchange...
 CPU time [min]:     2.219                   Wall time [min]:     0.067
 
 Second step of Coulomb...
   1% done.
  14% done.
  25% done.
  38% done.
  49% done.
  64% done.
  75% done.
  89% done.
 100% done.
 CPU time [min]:     2.259                   Wall time [min]:     0.068
 
 Gradient norm:      2.3759E-05
 DIIS is running in this iteration step.
 RMS of [F,P]:                                         0.00000052749995
 RMS of difference density:                            0.00000174408457
 Gap [au]:  0.18879537
 ALPHA OCC:  38
 BETA  OCC:  38
 
 ***HARTREE-FOCK ENERGY IN STEP  11 IS       -539.1022708506043273 [AU]
 
 Step comparison  Energy Drift [au]  DIIS error drift  Gradient drift
       10            4.5841E-08         1.7430E-06       1.1682E-04
 ======================================================================
 ITERATION STEP  12
 CPU time [min]:     2.269                   Wall time [min]:     0.068
 

 SCF control                  : diis
 Damping factor/level shift   : 0.000/0.000
 DIIS [start/end/frequency]   :   2 / 50 /  1

 Constructing Fock-matrix...
 
 Pipek-Mezey localization...
 Step  Convergence
   1  18.190688671399
   2   9.701326049869
   3  11.169997812951
   4   3.848646336870
   5   0.896627237811
   6   0.148204698700
   7   0.029098091170
   8   0.007470109177
   9   0.002643603436
  10   0.001131067974
  11   0.000375735720
  12   0.000163678946
  13   0.000056090322
  14   0.000023950155
  15   0.000008495786
  16   0.000003573542
  17   0.000001330701
  18   0.000000524036
  19   0.000000204041
  20   0.000000080657
  21   0.000000031327
  22   0.000000012609
  23   0.000000004959
  24   0.000000002003
  25   0.000000000782
  26   0.000000000309
  27   0.000000000124
  28   0.000000000049
  29   0.000000000020
  30   0.000000000008
  31   0.000000000003
  32   0.000000000001
  33   0.000000000001
 CPU time [min]:     2.302                   Wall time [min]:     0.069
 
 Constructing local fitting domains...
 Local fitting domains are unchanged.
 
 First step of Coulomb + first step of exchange...
 Exchange contribution is evaluated for MOs 1 to 38.
   1% done.
  14% done.
  25% done.
  38% done.
  49% done.
  64% done.
  75% done.
  89% done.
 100% done.
 CPU time [min]:     2.418                   Wall time [min]:     0.072
 
 Fitting and assembly step of exchange...
 CPU time [min]:     2.423                   Wall time [min]:     0.072
 
 Second step of Coulomb...
   1% done.
  14% done.
  25% done.
  38% done.
  49% done.
  64% done.
  75% done.
  89% done.
 100% done.
 CPU time [min]:     2.464                   Wall time [min]:     0.074
 
 Gradient norm:      8.3388E-06
 DIIS is running in this iteration step.
 RMS of [F,P]:                                         0.00000030905428
 RMS of difference density:                            0.00000073046532
 Gap [au]:  0.18879580
 ALPHA OCC:  38
 BETA  OCC:  38
 
 ***HARTREE-FOCK ENERGY IN STEP  12 IS       -539.1022708522525591 [AU]
 
 Step comparison  Energy Drift [au]  DIIS error drift  Gradient drift
       11            1.6482E-09         2.1845E-07       1.5420E-05
 ======================================================================
 ITERATION STEP  13
 CPU time [min]:     2.473                   Wall time [min]:     0.074
 

 SCF control                  : diis
 Damping factor/level shift   : 0.000/0.000
 DIIS [start/end/frequency]   :   2 / 50 /  1

 Constructing Fock-matrix...
 
 Pipek-Mezey localization...
 Step  Convergence
   1  19.153731359934
   2  11.780556704240
   3   8.037135541777
   4   5.750838805199
   5   2.916827484019
   6   1.450973587764
   7   0.204258423911
   8   0.015470337936
   9   0.001610303783
  10   0.000538926533
  11   0.000154149600
  12   0.000056699571
  13   0.000017436994
  14   0.000006479633
  15   0.000002143330
  16   0.000000719133
  17   0.000000234045
  18   0.000000084546
  19   0.000000028255
  20   0.000000010093
  21   0.000000003309
  22   0.000000001186
  23   0.000000000400
  24   0.000000000142
  25   0.000000000049
  26   0.000000000017
  27   0.000000000006
  28   0.000000000002
  29   0.000000000001
 CPU time [min]:     2.504                   Wall time [min]:     0.075
 
 Constructing local fitting domains...
 Local fitting domains are unchanged.
 
 First step of Coulomb + first step of exchange...
 Exchange contribution is evaluated for MOs 1 to 38.
   1% done.
  14% done.
  25% done.
  38% done.
  49% done.
  64% done.
  75% done.
  89% done.
 100% done.
 CPU time [min]:     2.619                   Wall time [min]:     0.078
 
 Fitting and assembly step of exchange...
 CPU time [min]:     2.625                   Wall time [min]:     0.078
 
 Second step of Coulomb...
   1% done.
  14% done.
  25% done.
  38% done.
  49% done.
  64% done.
  75% done.
  89% done.
 100% done.
 CPU time [min]:     2.665                   Wall time [min]:     0.079
 
 Gradient norm:      5.0911E-06
 DIIS is running in this iteration step.
 RMS of [F,P]:                                         0.00000007468552
 RMS of difference density:                            0.00000031606477
 Gap [au]:  0.18879594
 ALPHA OCC:  38
 BETA  OCC:  38
 
 ***HARTREE-FOCK ENERGY IN STEP  13 IS       -539.1022708526365932 [AU]
 
 Step comparison  Energy Drift [au]  DIIS error drift  Gradient drift
       12            3.8403E-10         2.3437E-07       3.2477E-06
 ======================================================================
 ITERATION STEP  14
 CPU time [min]:     2.675                   Wall time [min]:     0.079
 

 SCF control                  : diis
 Damping factor/level shift   : 0.000/0.000
 DIIS [start/end/frequency]   :   2 / 50 /  1

 Constructing Fock-matrix...
 
 Pipek-Mezey localization...
 Step  Convergence
   1  20.863564975390
   2   9.200144365588
   3   9.895950947628
   4   5.588112725595
   5   0.892594012262
   6   0.467431951829
   7   0.237053584187
   8   0.032775839171
   9   0.019935394725
  10   0.016804109852
  11   0.023030653320
  12   0.128848397456
  13   0.015069012838
  14   0.005111430055
  15   0.002367400355
  16   0.001034353968
  17   0.000350671340
  18   0.000151454245
  19   0.000049063078
  20   0.000020561572
  21   0.000006723635
  22   0.000002759711
  23   0.000000960434
  24   0.000000368658
  25   0.000000141840
  26   0.000000055719
  27   0.000000019889
  28   0.000000007118
  29   0.000000002824
  30   0.000000000927
  31   0.000000000382
  32   0.000000000140
  33   0.000000000049
  34   0.000000000020
  35   0.000000000007
  36   0.000000000003
  37   0.000000000001
  38   0.000000000000
 CPU time [min]:     2.710                   Wall time [min]:     0.080
 
 Constructing local fitting domains...
 Local fitting domains are unchanged.
 
 First step of Coulomb + first step of exchange...
 Exchange contribution is evaluated for MOs 1 to 38.
   1% done.
  14% done.
  25% done.
  38% done.
  49% done.
  64% done.
  75% done.
  89% done.
 100% done.
 CPU time [min]:     2.825                   Wall time [min]:     0.084
 
 Fitting and assembly step of exchange...
 CPU time [min]:     2.831                   Wall time [min]:     0.084
 
 Second step of Coulomb...
   1% done.
  14% done.
  25% done.
  38% done.
  49% done.
  64% done.
  75% done.
  89% done.
 100% done.
 CPU time [min]:     2.871                   Wall time [min]:     0.085
 
 Gradient norm:      4.0596E-06
 DIIS is running in this iteration step.
 RMS of [F,P]:                                         0.00000003801332
 RMS of difference density:                            0.00000020321150
 Gap [au]:  0.18879603
 ALPHA OCC:  38
 BETA  OCC:  38
 
 ***HARTREE-FOCK ENERGY IN STEP  14 IS       -539.1022708527279974 [AU]
 
 Step comparison  Energy Drift [au]  DIIS error drift  Gradient drift
       13            9.1404E-11         3.6672E-08       1.0316E-06
 ======================================================================
 ITERATION STEP  15
 CPU time [min]:     2.880                   Wall time [min]:     0.085
 

 SCF control                  : diis
 Damping factor/level shift   : 0.000/0.000
 DIIS [start/end/frequency]   :   2 / 50 /  1

 Constructing Fock-matrix...
 
 Pipek-Mezey localization...
 Step  Convergence
   1  21.871493804379
   2   6.978442872406
   3   8.240422132210
   4   4.386540840690
   5   1.805371113636
   6   0.328347086907
   7   0.045686625792
   8   0.017690044890
   9   0.005222893324
  10   0.001654039023
  11   0.000529415634
  12   0.000162309144
  13   0.000054017225
  14   0.000016479293
  15   0.000005501366
  16   0.000001690230
  17   0.000000567536
  18   0.000000174549
  19   0.000000058587
  20   0.000000017912
  21   0.000000006045
  22   0.000000001883
  23   0.000000000622
  24   0.000000000195
  25   0.000000000065
  26   0.000000000020
  27   0.000000000007
  28   0.000000000002
  29   0.000000000001
 CPU time [min]:     2.912                   Wall time [min]:     0.086
 
 Constructing local fitting domains...
 Local fitting domains are unchanged.
 
 First step of Coulomb + first step of exchange...
 Exchange contribution is evaluated for MOs 1 to 38.
   1% done.
  14% done.
  25% done.
  38% done.
  49% done.
  64% done.
  75% done.
  89% done.
 100% done.
 CPU time [min]:     3.027                   Wall time [min]:     0.089
 
 Fitting and assembly step of exchange...
 CPU time [min]:     3.033                   Wall time [min]:     0.090
 
 Second step of Coulomb...
   1% done.
  14% done.
  25% done.
  38% done.
  49% done.
  64% done.
  75% done.
  89% done.
 100% done.
 CPU time [min]:     3.073                   Wall time [min]:     0.091
 
 Gradient norm:      2.8088E-06
 DIIS is running in this iteration step.
 RMS of [F,P]:                                         0.00000002867740
 RMS of difference density:                            0.00000020837847
 Gap [au]:  0.18879603
 ALPHA OCC:  38
 BETA  OCC:  38
 
 ***HARTREE-FOCK ENERGY IN STEP  15 IS       -539.1022708527616487 [AU]
 
 Step comparison  Energy Drift [au]  DIIS error drift  Gradient drift
       14            3.3651E-11         9.3359E-09       1.2507E-06
 ======================================================================
 ITERATION STEP  16
 CPU time [min]:     3.082                   Wall time [min]:     0.091
 

 SCF control                  : diis
 Damping factor/level shift   : 0.000/0.000
 DIIS [start/end/frequency]   :   2 / 50 /  1

 Constructing Fock-matrix...
 
 Pipek-Mezey localization...
 Step  Convergence
   1  20.891158851726
   2   7.483234127325
   3   7.257279370236
   4   3.234755050875
   5   0.623448745988
   6   0.049971815259
   7   0.208127798844
   8   0.011397990682
   9   0.003318316738
  10   0.002008740479
  11   0.000658667027
  12   0.000289486402
  13   0.000104935471
  14   0.000054254217
  15   0.000014096449
  16   0.000004023862
  17   0.000002192065
  18   0.000000741808
  19   0.000000400737
  20   0.000000073812
  21   0.000000047878
  22   0.000000014947
  23   0.000000006390
  24   0.000000002358
  25   0.000000000926
  26   0.000000000353
  27   0.000000000272
  28   0.000000000017
  29   0.000000000029
  30   0.000000000003
  31   0.000000000003
  32   0.000000000002
  33   0.000000000000
 CPU time [min]:     3.116                   Wall time [min]:     0.092
 
 Constructing local fitting domains...
 Local fitting domains are unchanged.
 
 First step of Coulomb + first step of exchange...
 Exchange contribution is evaluated for MOs 1 to 38.
   1% done.
  14% done.
  25% done.
  38% done.
  49% done.
  64% done.
  75% done.
  89% done.
 100% done.
 CPU time [min]:     3.231                   Wall time [min]:     0.095
 
 Fitting and assembly step of exchange...
 CPU time [min]:     3.237                   Wall time [min]:     0.095
 
 Second step of Coulomb...
   1% done.
  14% done.
  25% done.
  38% done.
  49% done.
  64% done.
  75% done.
  89% done.
 100% done.
 CPU time [min]:     3.276                   Wall time [min]:     0.096
 
 Gradient norm:      1.8407E-06
 DIIS is running in this iteration step.
 RMS of [F,P]:                                         0.00000001532001
 RMS of difference density:                            0.00000018847442
 Gap [au]:  0.18879602
 ALPHA OCC:  38
 BETA  OCC:  38
 
 ***HARTREE-FOCK ENERGY IN STEP  16 IS       -539.1022708527864324 [AU]
 
 Step comparison  Energy Drift [au]  DIIS error drift  Gradient drift
       15            2.4784E-11         1.3357E-08       9.6819E-07
 ======================================================================
 ITERATION STEP  17
 CPU time [min]:     3.312                   Wall time [min]:     0.097
 

 SCF control                  : diis
 Damping factor/level shift   : 0.000/0.000
 DIIS [start/end/frequency]   :   2 / 50 /  1

 Constructing Fock-matrix...
 
 Pipek-Mezey localization...
 Step  Convergence
   1  17.574559278204
   2   6.530853475199
   3   5.071856024719
   4   4.021539393557
   5   0.584427634345
   6   0.234529817678
   7   0.052879530742
   8   0.033833672910
   9   0.019250116887
  10   0.030266302134
  11   0.195479485476
  12   0.010824716547
  13   0.003080700058
  14   0.001128274452
  15   0.000375752359
  16   0.000124154829
  17   0.000040544445
  18   0.000013343424
  19   0.000004366045
  20   0.000001439950
  21   0.000000477045
  22   0.000000157667
  23   0.000000052128
  24   0.000000017265
  25   0.000000005716
  26   0.000000001898
  27   0.000000000630
  28   0.000000000209
  29   0.000000000069
  30   0.000000000023
  31   0.000000000007
  32   0.000000000003
  33   0.000000000001
 CPU time [min]:     3.346                   Wall time [min]:     0.098
 
 Constructing local fitting domains...
 Local fitting domains are unchanged.
 
 First step of Coulomb + first step of exchange...
 Exchange contribution is evaluated for MOs 1 to 38.
   1% done.
  14% done.
  25% done.
  38% done.
  49% done.
  64% done.
  75% done.
  89% done.
 100% done.
 CPU time [min]:     3.461                   Wall time [min]:     0.102
 
 Fitting and assembly step of exchange...
 CPU time [min]:     3.467                   Wall time [min]:     0.102
 
 Second step of Coulomb...
   1% done.
  14% done.
  25% done.
  38% done.
  49% done.
  64% done.
  75% done.
  89% done.
 100% done.
 CPU time [min]:     3.507                   Wall time [min]:     0.103
 
 Gradient norm:      7.9191E-07
 DIIS is running in this iteration step.
 RMS of [F,P]:                                         0.00000000857277
 RMS of difference density:                            0.00000009260380
 Gap [au]:  0.18879602
 ALPHA OCC:  38
 BETA  OCC:  38
 
 ***HARTREE-FOCK ENERGY IN STEP  17 IS       -539.1022708527975738 [AU]
 
 Step comparison  Energy Drift [au]  DIIS error drift  Gradient drift
       16            1.1141E-11         6.7472E-09       1.0487E-06
 ======================================================================
 
 SUCCESS...
 THE SCF ITERATION HAS CONVERGED!
 
                   A   
 FINAL ALPHA OCC:  38
 FINAL BETA  OCC:  38
 
 ***FINAL HARTREE-FOCK ENERGY:       -539.1022708527975738 [AU]
 
 Orbital energies [au]:
      Irrep         Alpha          Beta
    1   A         -4.677663      -4.677663
    2   A         -4.677534      -4.677534
    3   A         -4.676748      -4.676748
    4   A         -4.676741      -4.676741
    5   A         -2.753164      -2.753164
    6   A         -2.752053      -2.752053
    7   A         -2.739587      -2.739587
    8   A         -2.739444      -2.739444
    9   A         -2.739307      -2.739307
   10   A         -2.737846      -2.737846
   11   A         -2.737606      -2.737606
   12   A         -2.737578      -2.737578
   13   A         -2.736824      -2.736824
   14   A         -2.736810      -2.736810
   15   A         -2.736149      -2.736149
   16   A         -2.736119      -2.736119
   17   A         -0.545250      -0.545250
   18   A         -0.525030      -0.525030
   19   A         -0.523687      -0.523687
   20   A         -0.511218      -0.511218
   21   A         -0.511094      -0.511094
   22   A         -0.491612      -0.491612
   23   A         -0.477576      -0.477576
   24   A         -0.477094      -0.477094
   25   A         -0.475642      -0.475642
   26   A         -0.456692      -0.456692
   27   A         -0.454780      -0.454780
   28   A         -0.446683      -0.446683
   29   A         -0.446033      -0.446033
   30   A         -0.432531      -0.432531
   31   A         -0.432177      -0.432177
   32   A         -0.431059      -0.431059
   33   A         -0.430679      -0.430679
   34   A         -0.421663      -0.421663
   35   A         -0.405338      -0.405338
   36   A         -0.404101      -0.404101
   37   A         -0.372008      -0.372008
   38   A         -0.208872      -0.208872
 
   39   A         -0.020076      -0.020076
   40   A         -0.018703      -0.018703
   41   A          0.061353       0.061353
   42   A          0.082259       0.082259
   43   A          0.083136       0.083136
   44   A          0.090893       0.090893
   45   A          0.094300       0.094300
   46   A          0.112987       0.112987
   47   A          0.172658       0.172658
   48   A          0.182859       0.182859
   49   A          0.187517       0.187517
   50   A          0.188761       0.188761
   51   A          0.193855       0.193855
   52   A          0.194139       0.194139
   53   A          0.317980       0.317980
   54   A          0.351040       0.351040
   55   A          0.353471       0.353471
   56   A          0.362741       0.362741
   57   A          0.561203       0.561203
   58   A          0.595095       0.595095
   59   A          0.596460       0.596460
   60   A          0.606919       0.606919
   61   A          0.643584       0.643584
   62   A          0.643668       0.643668
   63   A          0.665681       0.665681
   64   A          0.700140       0.700140
   65   A          0.701516       0.701516
   66   A          0.704854       0.704854
   67   A          0.715667       0.715667
   68   A          0.730073       0.730073
   69   A          0.756135       0.756135
   70   A          0.761281       0.761281
   71   A          0.802985       0.802985
   72   A          0.804844       0.804844
   73   A          0.811505       0.811505
   74   A          0.827442       0.827442
   75   A          0.835564       0.835564
   76   A          0.843465       0.843465
   77   A          0.992935       0.992935
   78   A          1.021822       1.021822
   79   A          1.063170       1.063170
   80   A          1.119871       1.119871
   81   A          1.120551       1.120551
   82   A          1.196730       1.196730
   83   A          1.227607       1.227607
   84   A          1.239149       1.239149
   85   A          1.251992       1.251992
   86   A          1.379081       1.379081
   87   A          1.495312       1.495312
   88   A          1.497522       1.497522
   89   A          1.759029       1.759029
   90   A          1.787574       1.787574
   91   A          1.788215       1.788215
   92   A          1.793210       1.793210
   93   A          1.823953       1.823953
   94   A          1.830513       1.830513
   95   A          1.840843       1.840843
   96   A          1.841157       1.841157
   97   A          1.846405       1.846405
   98   A          1.846613       1.846613
   99   A          1.868549       1.868549
  100   A          1.869687       1.869687
  101   A          1.875201       1.875201
  102   A          1.879775       1.879775
  103   A          1.879840       1.879840
  104   A          1.881177       1.881177
  105   A          1.884385       1.884385
  106   A          1.896283       1.896283
  107   A          1.899695       1.899695
  108   A          1.909055       1.909055
  109   A          1.910598       1.910598
  110   A          1.968258       1.968258
  111   A          1.995517       1.995517
  112   A          2.005250       2.005250
  113   A          2.006556       2.006556
  114   A          2.007194       2.007194
  115   A          2.158421       2.158421
  116   A          2.160050       2.160050
  117   A          2.262333       2.262333
  118   A          2.437615       2.437615
  119   A          2.437727       2.437727
  120   A          2.463545       2.463545
  121   A         41.873247      41.873247
  122   A         41.947520      41.947520
  123   A         41.948930      41.948930
  124   A         42.040096      42.040096
  125   A        200.225649     200.225649
  126   A        200.264004     200.264004
  127   A        200.264666     200.264666
  128   A        200.309410     200.309410
 
 RETURNING FROM SCF ALGORITHM
 ======================================================================

 ************************ 2023-01-16 17:42:56 *************************
 Executing integ...

 Allocation of 220.0 Gbytes of memory...
 
 
 Number of atoms:                  4
 Charge:                           0
 Number of electrons:             76
 Number of core electrons:         0
 Spin multiplicity:                1
 
                 Cartesian coordinates [bohr]      Atomic mass [AMU]  Z
   1  Au    2.53653436    0.82839285    2.36187456   196.966543      79
   2  Au    0.02876328   -0.26928762   -2.57577130   196.966543      79
   3  Au   -0.91361718   -2.47118627    2.57577130   196.966543      79
   4  Au   -2.53653436    2.47118627    0.37777953   196.966543      79
 
 This molecule is an asymmetric top.
 
 Point group: C1  
 Computational point group: C1  
 
 Cartesian coordinates in standard orientation [bohr]
   1  Au    2.27932454   -1.72212867   -1.65242752
   2  Au   -2.26719807   -1.68826983    1.69453388
   3  Au    2.26933533    1.73120043    1.65074343
   4  Au   -2.28146180    1.67919807   -1.69284979
 
 Nuclear repulsion energy [au]:        405.981725271968
 
 
 Basis set information:
 
 Maximum angular momentum: k
 Maximum number of contracted Gaussians:   13
 Maximum number of primitive Gaussians:    17
 Spherical harmonic GTOs are used.
 
 
 Conventional basis set:
 
   1  Au bse_acvqz [ 17s 14p 13d 5f 4g 3h | 9s 9p 8d 5f 4g 3h ]
   2  Au bse_acvqz [ 17s 14p 13d 5f 4g 3h | 9s 9p 8d 5f 4g 3h ]
   3  Au bse_acvqz [ 17s 14p 13d 5f 4g 3h | 9s 9p 8d 5f 4g 3h ]
   4  Au bse_acvqz [ 17s 14p 13d 5f 4g 3h | 9s 9p 8d 5f 4g 3h ]
 
 Basis functions:
            1             2             3             4             5             6             7             8             9            10
    0    1Au1s         1Au2s         1Au3s         1Au4s         1Au5s         1Au6s         1Au7s         1Au8s         1Au9s         1Au1pz    
    1    1Au1py        1Au1px        1Au2pz        1Au2py        1Au2px        1Au3pz        1Au3py        1Au3px        1Au4pz        1Au4py    
    2    1Au4px        1Au5pz        1Au5py        1Au5px        1Au6pz        1Au6py        1Au6px        1Au7pz        1Au7py        1Au7px    
    3    1Au8pz        1Au8py        1Au8px        1Au9pz        1Au9py        1Au9px        1Au1d-2       1Au1d-1       1Au1d0        1Au1d+1   
    4    1Au1d+2       1Au2d-2       1Au2d-1       1Au2d0        1Au2d+1       1Au2d+2       1Au3d-2       1Au3d-1       1Au3d0        1Au3d+1   
    5    1Au3d+2       1Au4d-2       1Au4d-1       1Au4d0        1Au4d+1       1Au4d+2       1Au5d-2       1Au5d-1       1Au5d0        1Au5d+1   
    6    1Au5d+2       1Au6d-2       1Au6d-1       1Au6d0        1Au6d+1       1Au6d+2       1Au7d-2       1Au7d-1       1Au7d0        1Au7d+1   
    7    1Au7d+2       1Au8d-2       1Au8d-1       1Au8d0        1Au8d+1       1Au8d+2       1Au1f-3       1Au1f-2       1Au1f-1       1Au1f0    
    8    1Au1f+1       1Au1f+2       1Au1f+3       1Au2f-3       1Au2f-2       1Au2f-1       1Au2f0        1Au2f+1       1Au2f+2       1Au2f+3   
    9    1Au3f-3       1Au3f-2       1Au3f-1       1Au3f0        1Au3f+1       1Au3f+2       1Au3f+3       1Au4f-3       1Au4f-2       1Au4f-1   
   10    1Au4f0        1Au4f+1       1Au4f+2       1Au4f+3       1Au5f-3       1Au5f-2       1Au5f-1       1Au5f0        1Au5f+1       1Au5f+2   
   11    1Au5f+3       1Au1g-4       1Au1g-3       1Au1g-2       1Au1g-1       1Au1g0        1Au1g+1       1Au1g+2       1Au1g+3       1Au1g+4   
   12    1Au2g-4       1Au2g-3       1Au2g-2       1Au2g-1       1Au2g0        1Au2g+1       1Au2g+2       1Au2g+3       1Au2g+4       1Au3g-4   
   13    1Au3g-3       1Au3g-2       1Au3g-1       1Au3g0        1Au3g+1       1Au3g+2       1Au3g+3       1Au3g+4       1Au4g-4       1Au4g-3   
   14    1Au4g-2       1Au4g-1       1Au4g0        1Au4g+1       1Au4g+2       1Au4g+3       1Au4g+4       1Au1h-5       1Au1h-4       1Au1h-3   
   15    1Au1h-2       1Au1h-1       1Au1h0        1Au1h+1       1Au1h+2       1Au1h+3       1Au1h+4       1Au1h+5       1Au2h-5       1Au2h-4   
   16    1Au2h-3       1Au2h-2       1Au2h-1       1Au2h0        1Au2h+1       1Au2h+2       1Au2h+3       1Au2h+4       1Au2h+5       1Au3h-5   
   17    1Au3h-4       1Au3h-3       1Au3h-2       1Au3h-1       1Au3h0        1Au3h+1       1Au3h+2       1Au3h+3       1Au3h+4       1Au3h+5   
   18    2Au1s         2Au2s         2Au3s         2Au4s         2Au5s         2Au6s         2Au7s         2Au8s         2Au9s         2Au1pz    
   19    2Au1py        2Au1px        2Au2pz        2Au2py        2Au2px        2Au3pz        2Au3py        2Au3px        2Au4pz        2Au4py    
   20    2Au4px        2Au5pz        2Au5py        2Au5px        2Au6pz        2Au6py        2Au6px        2Au7pz        2Au7py        2Au7px    
   21    2Au8pz        2Au8py        2Au8px        2Au9pz        2Au9py        2Au9px        2Au1d-2       2Au1d-1       2Au1d0        2Au1d+1   
   22    2Au1d+2       2Au2d-2       2Au2d-1       2Au2d0        2Au2d+1       2Au2d+2       2Au3d-2       2Au3d-1       2Au3d0        2Au3d+1   
   23    2Au3d+2       2Au4d-2       2Au4d-1       2Au4d0        2Au4d+1       2Au4d+2       2Au5d-2       2Au5d-1       2Au5d0        2Au5d+1   
   24    2Au5d+2       2Au6d-2       2Au6d-1       2Au6d0        2Au6d+1       2Au6d+2       2Au7d-2       2Au7d-1       2Au7d0        2Au7d+1   
   25    2Au7d+2       2Au8d-2       2Au8d-1       2Au8d0        2Au8d+1       2Au8d+2       2Au1f-3       2Au1f-2       2Au1f-1       2Au1f0    
   26    2Au1f+1       2Au1f+2       2Au1f+3       2Au2f-3       2Au2f-2       2Au2f-1       2Au2f0        2Au2f+1       2Au2f+2       2Au2f+3   
   27    2Au3f-3       2Au3f-2       2Au3f-1       2Au3f0        2Au3f+1       2Au3f+2       2Au3f+3       2Au4f-3       2Au4f-2       2Au4f-1   
   28    2Au4f0        2Au4f+1       2Au4f+2       2Au4f+3       2Au5f-3       2Au5f-2       2Au5f-1       2Au5f0        2Au5f+1       2Au5f+2   
   29    2Au5f+3       2Au1g-4       2Au1g-3       2Au1g-2       2Au1g-1       2Au1g0        2Au1g+1       2Au1g+2       2Au1g+3       2Au1g+4   
   30    2Au2g-4       2Au2g-3       2Au2g-2       2Au2g-1       2Au2g0        2Au2g+1       2Au2g+2       2Au2g+3       2Au2g+4       2Au3g-4   
   31    2Au3g-3       2Au3g-2       2Au3g-1       2Au3g0        2Au3g+1       2Au3g+2       2Au3g+3       2Au3g+4       2Au4g-4       2Au4g-3   
   32    2Au4g-2       2Au4g-1       2Au4g0        2Au4g+1       2Au4g+2       2Au4g+3       2Au4g+4       2Au1h-5       2Au1h-4       2Au1h-3   
   33    2Au1h-2       2Au1h-1       2Au1h0        2Au1h+1       2Au1h+2       2Au1h+3       2Au1h+4       2Au1h+5       2Au2h-5       2Au2h-4   
   34    2Au2h-3       2Au2h-2       2Au2h-1       2Au2h0        2Au2h+1       2Au2h+2       2Au2h+3       2Au2h+4       2Au2h+5       2Au3h-5   
   35    2Au3h-4       2Au3h-3       2Au3h-2       2Au3h-1       2Au3h0        2Au3h+1       2Au3h+2       2Au3h+3       2Au3h+4       2Au3h+5   
   36    3Au1s         3Au2s         3Au3s         3Au4s         3Au5s         3Au6s         3Au7s         3Au8s         3Au9s         3Au1pz    
   37    3Au1py        3Au1px        3Au2pz        3Au2py        3Au2px        3Au3pz        3Au3py        3Au3px        3Au4pz        3Au4py    
   38    3Au4px        3Au5pz        3Au5py        3Au5px        3Au6pz        3Au6py        3Au6px        3Au7pz        3Au7py        3Au7px    
   39    3Au8pz        3Au8py        3Au8px        3Au9pz        3Au9py        3Au9px        3Au1d-2       3Au1d-1       3Au1d0        3Au1d+1   
   40    3Au1d+2       3Au2d-2       3Au2d-1       3Au2d0        3Au2d+1       3Au2d+2       3Au3d-2       3Au3d-1       3Au3d0        3Au3d+1   
   41    3Au3d+2       3Au4d-2       3Au4d-1       3Au4d0        3Au4d+1       3Au4d+2       3Au5d-2       3Au5d-1       3Au5d0        3Au5d+1   
   42    3Au5d+2       3Au6d-2       3Au6d-1       3Au6d0        3Au6d+1       3Au6d+2       3Au7d-2       3Au7d-1       3Au7d0        3Au7d+1   
   43    3Au7d+2       3Au8d-2       3Au8d-1       3Au8d0        3Au8d+1       3Au8d+2       3Au1f-3       3Au1f-2       3Au1f-1       3Au1f0    
   44    3Au1f+1       3Au1f+2       3Au1f+3       3Au2f-3       3Au2f-2       3Au2f-1       3Au2f0        3Au2f+1       3Au2f+2       3Au2f+3   
   45    3Au3f-3       3Au3f-2       3Au3f-1       3Au3f0        3Au3f+1       3Au3f+2       3Au3f+3       3Au4f-3       3Au4f-2       3Au4f-1   
   46    3Au4f0        3Au4f+1       3Au4f+2       3Au4f+3       3Au5f-3       3Au5f-2       3Au5f-1       3Au5f0        3Au5f+1       3Au5f+2   
   47    3Au5f+3       3Au1g-4       3Au1g-3       3Au1g-2       3Au1g-1       3Au1g0        3Au1g+1       3Au1g+2       3Au1g+3       3Au1g+4   
   48    3Au2g-4       3Au2g-3       3Au2g-2       3Au2g-1       3Au2g0        3Au2g+1       3Au2g+2       3Au2g+3       3Au2g+4       3Au3g-4   
   49    3Au3g-3       3Au3g-2       3Au3g-1       3Au3g0        3Au3g+1       3Au3g+2       3Au3g+3       3Au3g+4       3Au4g-4       3Au4g-3   
   50    3Au4g-2       3Au4g-1       3Au4g0        3Au4g+1       3Au4g+2       3Au4g+3       3Au4g+4       3Au1h-5       3Au1h-4       3Au1h-3   
   51    3Au1h-2       3Au1h-1       3Au1h0        3Au1h+1       3Au1h+2       3Au1h+3       3Au1h+4       3Au1h+5       3Au2h-5       3Au2h-4   
   52    3Au2h-3       3Au2h-2       3Au2h-1       3Au2h0        3Au2h+1       3Au2h+2       3Au2h+3       3Au2h+4       3Au2h+5       3Au3h-5   
   53    3Au3h-4       3Au3h-3       3Au3h-2       3Au3h-1       3Au3h0        3Au3h+1       3Au3h+2       3Au3h+3       3Au3h+4       3Au3h+5   
   54    4Au1s         4Au2s         4Au3s         4Au4s         4Au5s         4Au6s         4Au7s         4Au8s         4Au9s         4Au1pz    
   55    4Au1py        4Au1px        4Au2pz        4Au2py        4Au2px        4Au3pz        4Au3py        4Au3px        4Au4pz        4Au4py    
   56    4Au4px        4Au5pz        4Au5py        4Au5px        4Au6pz        4Au6py        4Au6px        4Au7pz        4Au7py        4Au7px    
   57    4Au8pz        4Au8py        4Au8px        4Au9pz        4Au9py        4Au9px        4Au1d-2       4Au1d-1       4Au1d0        4Au1d+1   
   58    4Au1d+2       4Au2d-2       4Au2d-1       4Au2d0        4Au2d+1       4Au2d+2       4Au3d-2       4Au3d-1       4Au3d0        4Au3d+1   
   59    4Au3d+2       4Au4d-2       4Au4d-1       4Au4d0        4Au4d+1       4Au4d+2       4Au5d-2       4Au5d-1       4Au5d0        4Au5d+1   
   60    4Au5d+2       4Au6d-2       4Au6d-1       4Au6d0        4Au6d+1       4Au6d+2       4Au7d-2       4Au7d-1       4Au7d0        4Au7d+1   
   61    4Au7d+2       4Au8d-2       4Au8d-1       4Au8d0        4Au8d+1       4Au8d+2       4Au1f-3       4Au1f-2       4Au1f-1       4Au1f0    
   62    4Au1f+1       4Au1f+2       4Au1f+3       4Au2f-3       4Au2f-2       4Au2f-1       4Au2f0        4Au2f+1       4Au2f+2       4Au2f+3   
   63    4Au3f-3       4Au3f-2       4Au3f-1       4Au3f0        4Au3f+1       4Au3f+2       4Au3f+3       4Au4f-3       4Au4f-2       4Au4f-1   
   64    4Au4f0        4Au4f+1       4Au4f+2       4Au4f+3       4Au5f-3       4Au5f-2       4Au5f-1       4Au5f0        4Au5f+1       4Au5f+2   
   65    4Au5f+3       4Au1g-4       4Au1g-3       4Au1g-2       4Au1g-1       4Au1g0        4Au1g+1       4Au1g+2       4Au1g+3       4Au1g+4   
   66    4Au2g-4       4Au2g-3       4Au2g-2       4Au2g-1       4Au2g0        4Au2g+1       4Au2g+2       4Au2g+3       4Au2g+4       4Au3g-4   
   67    4Au3g-3       4Au3g-2       4Au3g-1       4Au3g0        4Au3g+1       4Au3g+2       4Au3g+3       4Au3g+4       4Au4g-4       4Au4g-3   
[...]
 Number of Cholesky vectors:      9
 MP2 energy in ED [au]:          -0.089401326634
 Number of occupied LNOs:        26  (68.42%)
 Number of virtual  LNOs:       147  (21.68%)
dropped smallnorm     2     3   2.99809465E-06
dropped smallnorm    14    16   2.79515848E-05
dropped smallnorm    14    17   2.87642387E-05
dropped smallnorm    14    18   1.68450114E-05
 tol*100>norm                    47  2.378915711640168E-003
 tol*100>norm                    48  8.975699260559775E-003
 tol*100>norm                    49  2.121375674073241E-003
 tol*100>norm                    50  2.410989523865319E-003
 tol*100>norm                    51  3.547139322327163E-003
dropped smallnorm   178   183   3.00186632E-06
dropped smallnorm   190   196   2.84084487E-05
dropped smallnorm   190   197   2.83900653E-05
dropped smallnorm   190   198   1.68327608E-05
 tol*100>norm                   227  2.404694905014609E-003
 tol*100>norm                   228  8.995815367422296E-003
 tol*100>norm                   229  2.317549626524895E-003
 tol*100>norm                   230  2.392411722624541E-003
 tol*100>norm                   231  3.332052525003285E-003
dropped smallnorm   354   363   3.00225562E-06
dropped smallnorm   366   376   2.79595338E-05
dropped smallnorm   366   377   2.87404478E-05
dropped smallnorm   366   378   1.68234336E-05
 tol*100>norm                   407  2.387360366578027E-003
 tol*100>norm                   408  8.965569389351544E-003
 tol*100>norm                   409  2.116263097705355E-003
 tol*100>norm                   410  2.403327856876926E-003
 tol*100>norm                   411  3.543238381864862E-003
dropped smallnorm   530   543   2.99607916E-06
dropped smallnorm   542   556   2.84082488E-05
dropped smallnorm   542   557   2.84115013E-05
dropped smallnorm   542   558   1.68631871E-05
 tol*100>norm                   587  2.398414550804351E-003
 tol*100>norm                   588  9.009716189806333E-003
 tol*100>norm                   589  2.322088135265602E-003
 tol*100>norm                   590  2.396466409790824E-003
 tol*100>norm                   591  3.340920971646385E-003
 Number of Cholesky vectors:      8
 MP2 energy in LIS [au]:         -0.088287735281
 Correction for frozen LNO [au]: -0.001113591354     (1.246%)
 Number of NAFs:                550  (29.01%)
 CPU time [min]:  2038.095                   Wall time [min]:    67.919
 

 Direct DF-CCSD(T) calculation
 
 Convergence criterion:  1.0E-05
 
 Number of occupied/virtual/auxiliary orbitals:    26   147   550
    682.98 MB is the minimal memory requirement for (T)
    395.33 MB is the minimal memory requirement for CCSD
 
 MP2 correlation energy [au]:       -1.517263566826
 
 LMP2 domain correlation energy contribution [au]:       -0.088287254810
 
 CPU time [min]:  2038.376                   Wall time [min]:    67.941
 
 
 Starting CCSD iterations...
 
                     Residual norm       Correlation Energy
 Iteration  1        0.365071116388       -1.341458228659
 Iteration  2        0.121253488111       -1.400060173279
 Iteration  3        0.031066076268       -1.408157797476
 Iteration  4        0.016280166283       -1.406028183401
 Iteration  5        0.007048423286       -1.405185075654
 Iteration  6        0.004367050534       -1.405800911607
 Iteration  7        0.002433340595       -1.405957950951
 Iteration  8        0.001500677639       -1.405788055683
 Iteration  9        0.000930134401       -1.405808050008
 Iteration 10        0.000535971887       -1.405838415781
 Iteration 11        0.000359210110       -1.405810933878
 Iteration 12        0.000189284252       -1.405814065933
 Iteration 13        0.000108598119       -1.405821569142
 Iteration 14        0.000048621849       -1.405819542120
 
 CCSD iteration has converged in 14 steps.
     2149.25 MB memory was utilized by CCSD
 
 T1 diagnostic:      2.468E-02            D1 diagnostic:      1.082E-01
 
 T1 contribution [au]:                         0.000000000000
 CCSD correlation energy [au]:                -0.081990390997
 
 CPU time [min]:  2061.539                   Wall time [min]:    68.803
 
 Calculation of (T) correction...
 
 Laplace threshold, nquadmin:  1.00E-02   3
 Number of quadrature points:    3
 
     1268.28 MB memory is utilized for (T)

 0%       25%       50%       75%       100%
 |---------|---------|---------|---------| 
 
 (T) correction [au]:                   -0.003595175317
 CCSD(T) correlation energy [au]:       -0.085585566314
 
 CPU time [min]:  2073.167                   Wall time [min]:    69.156
 
 MO:    37
 Number of atoms in domain:       4
 Number of atomic orbitals:     720
 Number of atoms for local DF:    4
 Number of fitting functions:  1896 (100.00%)
 Warning: drop high-lying PAOs                     4
 Number of occupied orbitals:    38
 Number of virtual  orbitals:   678
 Number of Cholesky vectors:      9
 MP2 energy in ED [au]:          -0.103689559018
 Number of occupied LNOs:        32  (84.21%)
 Number of virtual  LNOs:       240  (35.40%)
dropped smallnorm     2     3   2.99809465E-06
dropped smallnorm    14    16   2.79515848E-05
dropped smallnorm    14    17   2.87642387E-05
dropped smallnorm    14    18   1.68450114E-05
 tol*100>norm                    47  2.378915711640167E-003
 tol*100>norm                    48  8.975699260559772E-003
 tol*100>norm                    49  2.121375674073240E-003
 tol*100>norm                    50  2.410989523865318E-003
 tol*100>norm                    51  3.547139322327164E-003
dropped smallnorm   178   183   3.00186632E-06
dropped smallnorm   190   196   2.84084487E-05
dropped smallnorm   190   197   2.83900653E-05
dropped smallnorm   190   198   1.68327608E-05
 tol*100>norm                   227  2.404694905014609E-003
 tol*100>norm                   228  8.995815367422298E-003
 tol*100>norm                   229  2.317549626524894E-003
 tol*100>norm                   230  2.392411722624541E-003
 tol*100>norm                   231  3.332052525003284E-003
dropped smallnorm   354   363   3.00225562E-06
dropped smallnorm   366   376   2.79595338E-05
dropped smallnorm   366   377   2.87404478E-05
dropped smallnorm   366   378   1.68234336E-05
 tol*100>norm                   407  2.387360366578028E-003
 tol*100>norm                   408  8.965569389351547E-003
 tol*100>norm                   409  2.116263097705355E-003
 tol*100>norm                   410  2.403327856876927E-003
 tol*100>norm                   411  3.543238381864860E-003
dropped smallnorm   530   543   2.99607916E-06
dropped smallnorm   542   556   2.84082488E-05
dropped smallnorm   542   557   2.84115013E-05
dropped smallnorm   542   558   1.68631871E-05
 tol*100>norm                   587  2.398414550804351E-003
 tol*100>norm                   588  9.009716189806347E-003
 tol*100>norm                   589  2.322088135265602E-003
 tol*100>norm                   590  2.396466409790825E-003
 tol*100>norm                   591  3.340920971646385E-003
 Number of Cholesky vectors:      8
 MP2 energy in LIS [au]:         -0.101769857474
 Correction for frozen LNO [au]: -0.001919701544     (1.851%)
 Number of NAFs:                868  (45.78%)
 CPU time [min]:  2116.865                   Wall time [min]:    70.687
 

 Direct DF-CCSD(T) calculation
 
 Convergence criterion:  1.0E-05
 
 Number of occupied/virtual/auxiliary orbitals:    32   240   868
   2756.20 MB is the minimal memory requirement for (T)
   1460.95 MB is the minimal memory requirement for CCSD
 
 MP2 correlation energy [au]:       -2.236773414142
 
 LMP2 domain correlation energy contribution [au]:       -0.101769467975
 
 CPU time [min]:  2117.468                   Wall time [min]:    70.765
 
 
 Starting CCSD iterations...
 
                     Residual norm       Correlation Energy
 Iteration  1        0.462655342078       -1.953470862388
 Iteration  2        0.168380308162       -2.040883182821
 Iteration  3        0.037723814174       -2.055193308194
 Iteration  4        0.021049467207       -2.052309084764
 Iteration  5        0.009307297090       -2.050009746671
 Iteration  6        0.005442906942       -2.050666790361
 Iteration  7        0.003048268346       -2.051316486818
 Iteration  8        0.001745086423       -2.051201892775
 Iteration  9        0.000928662900       -2.051116331567
 Iteration 10        0.000467373230       -2.051145488332
 Iteration 11        0.000223984653       -2.051141021098
 Iteration 12        0.000110606934       -2.051136879624
 Iteration 13        0.000057382876       -2.051139569033
 
 CCSD iteration has converged in 13 steps.
    14075.28 MB memory was utilized by CCSD
 
 T1 diagnostic:      2.363E-02            D1 diagnostic:      1.038E-01
 
 T1 contribution [au]:                         0.000000000000
 CCSD correlation energy [au]:                -0.088153326661
 
 CPU time [min]:  2239.602                   Wall time [min]:    75.032
 
 Calculation of (T) correction...
 
 Laplace threshold, nquadmin:  1.00E-02   3
 Number of quadrature points:    3
 
     5932.64 MB memory is utilized for (T)

 0%       25%       50%       75%       100%
 |---------|---------|---------|---------| 
 
 (T) correction [au]:                   -0.008170546505
 CCSD(T) correlation energy [au]:       -0.096323873165
 
 CPU time [min]:  2352.565                   Wall time [min]:    78.418
 
 MO:    38
 Number of atoms in domain:       4
 Number of atomic orbitals:     720
 Number of atoms for local DF:    4
 Number of fitting functions:  1896 (100.00%)
 Warning: drop high-lying PAOs                     4
 Number of occupied orbitals:    38
 Number of virtual  orbitals:   678
 Number of Cholesky vectors:      9
 MP2 energy in ED [au]:          -0.103672166825
 Number of occupied LNOs:        32  (84.21%)
 Number of virtual  LNOs:       241  (35.55%)
dropped smallnorm     2     3   2.99809465E-06
dropped smallnorm    14    16   2.79515848E-05
dropped smallnorm    14    17   2.87642387E-05
dropped smallnorm    14    18   1.68450114E-05
 tol*100>norm                    47  2.378915711640168E-003
 tol*100>norm                    48  8.975699260559782E-003
 tol*100>norm                    49  2.121375674073241E-003
 tol*100>norm                    50  2.410989523865318E-003
 tol*100>norm                    51  3.547139322327165E-003
dropped smallnorm   178   183   3.00186632E-06
dropped smallnorm   190   196   2.84084487E-05
dropped smallnorm   190   197   2.83900653E-05
dropped smallnorm   190   198   1.68327608E-05
 tol*100>norm                   227  2.404694905014609E-003
 tol*100>norm                   228  8.995815367422295E-003
 tol*100>norm                   229  2.317549626524894E-003
 tol*100>norm                   230  2.392411722624541E-003
 tol*100>norm                   231  3.332052525003283E-003
dropped smallnorm   354   363   3.00225562E-06
dropped smallnorm   366   376   2.79595338E-05
dropped smallnorm   366   377   2.87404478E-05
dropped smallnorm   366   378   1.68234336E-05
 tol*100>norm                   407  2.387360366578026E-003
 tol*100>norm                   408  8.965569389351542E-003
 tol*100>norm                   409  2.116263097705355E-003
 tol*100>norm                   410  2.403327856876926E-003
 tol*100>norm                   411  3.543238381864859E-003
dropped smallnorm   530   543   2.99607916E-06
dropped smallnorm   542   556   2.84082488E-05
dropped smallnorm   542   557   2.84115013E-05
dropped smallnorm   542   558   1.68631871E-05
 tol*100>norm                   587  2.398414550804350E-003
 tol*100>norm                   588  9.009716189806330E-003
 tol*100>norm                   589  2.322088135265602E-003
 tol*100>norm                   590  2.396466409790824E-003
 tol*100>norm                   591  3.340920971646384E-003
 Number of Cholesky vectors:      8
 MP2 energy in LIS [au]:         -0.101770115899
 Correction for frozen LNO [au]: -0.001902050926     (1.835%)
 Number of NAFs:                871  (45.94%)
 CPU time [min]:  2396.304                   Wall time [min]:    79.956
 

 Direct DF-CCSD(T) calculation
 
 Convergence criterion:  1.0E-05
 
 Number of occupied/virtual/auxiliary orbitals:    32   241   871
   2786.52 MB is the minimal memory requirement for (T)
   1474.83 MB is the minimal memory requirement for CCSD
 
 MP2 correlation energy [au]:       -2.242066601666
 
 LMP2 domain correlation energy contribution [au]:       -0.101769705800
 
 CPU time [min]:  2397.048                   Wall time [min]:    80.040
 
 
 Starting CCSD iterations...
 
                     Residual norm       Correlation Energy
 Iteration  1        0.462718258498       -1.958304253396
 Iteration  2        0.168352697164       -2.045763421743
 Iteration  3        0.037689440714       -2.060099081390
 Iteration  4        0.021030440053       -2.057206400240
 Iteration  5        0.009291602868       -2.054902000655
 Iteration  6        0.005432586756       -2.055555364579
 Iteration  7        0.003042044515       -2.056207202985
 Iteration  8        0.001741602639       -2.056093934058
 Iteration  9        0.000927607695       -2.056007576159
 Iteration 10        0.000467319315       -2.056036576912
 Iteration 11        0.000223891172       -2.056032260741
 Iteration 12        0.000110411493       -2.056028078454
 Iteration 13        0.000057137123       -2.056030716161
 
 CCSD iteration has converged in 13 steps.
    14301.13 MB memory was utilized by CCSD
 
 T1 diagnostic:      2.359E-02            D1 diagnostic:      1.037E-01
 
 T1 contribution [au]:                         0.000000000000
 CCSD correlation energy [au]:                -0.088152759269
 
 CPU time [min]:  2522.604                   Wall time [min]:    84.449
 
 Calculation of (T) correction...
 
 Laplace threshold, nquadmin:  1.00E-02   3
 Number of quadrature points:    3
 
     6001.44 MB memory is utilized for (T)

 0%       25%       50%       75%       100%
 |---------|---------|---------|---------| 
 
 (T) correction [au]:                   -0.008176344529
 CCSD(T) correlation energy [au]:       -0.096329103798
 
 CPU time [min]:  2635.443                   Wall time [min]:    87.891
 
 **********************************************************************
 Dimensions of the extended domains:    Minimum / Average / Maximum
 
 Number of atoms in domain:                   4       4.0         4
 Number of atomic orbitals:                 720     720.0       720
 Number of fitting functions:              1896    1896.0      1896
 Number of occupied localized MOs:           38      38.0        38
 Number of PAOs:                            678     678.0       678
 Number of occupied LNOs:                    26      26.3        32
 Number of virtual  LNOs:                   123     136.1       241
 Number of NAFs:                            469     516.3       871
 
 **********************************************************************
 Distant (and weak) pair contributions, corrections
 
 Sum of pair energies [au]:                     0.000000000000    (0.000%)
 Sum of energy corrections [au]:               -0.039854870803    (1.195%)
 Pair energies + LNO corrections [au]:         -0.039854870803
 Sum of LMP2 contributions [au]:               -3.335733766523
 
 **********************************************************************
  Time of manipulations in the EDs:      max CPU/Wall [s]  all CPU/Wall [min]
 
 PD construction & multipole pair E     406.84    11.92     6.78     0.20
 Construct MO basis of the ED            11.87     0.35     3.95     0.11
 (mu,nu|P) evaluation & trf 2 (ai|P)    711.01    19.80   440.38    12.26
 Evaluate MP2 energy of the ED           43.93     1.22    27.27     0.76
 Transformations to the LNO basis        28.03     0.79    14.15     0.40
 Build W_PQ (Jai or Jpi part)             2.84     0.08     1.25     0.03
 Evaluate MP2 energy of the LIS           5.14     0.14     0.99     0.03
 (mu,nu|P) evaluation & trf 2 J(abQ)   1811.37    68.95   772.13    28.42
 Total of the above for all EDs        2614.17    91.34  1260.12    42.01
 
 **********************************************************************
 Maximum memory requirement [MB]:       
 
 PD construction & multipole pair E         40.7
 AO integral evaluation in the EDs       17889.4
 (mu,nu|P) evaluation & trf 2 (aI|P)     19485.7
 Evaluate MP2 energy in the EDs            972.3
 Transformation to the LNO basis           493.3
 (mu,nu|P) to Jab transformation         18225.7
 Evaluate MP2 energy in the LIS            544.7
 Minimum requirement for LIS CCSD         1474.8
 Actually allocated  for LIS CCSD        14301.1
 Minimum requirement for LIS (T)          2786.6
 Actually allocated  for LIS (T)          6001.4
 
 ======================================================================
 ======================================================================
 
 
 
 ======================================================================
 ======================================================================
 
 Final local CC results:
 
 Minimum number of correlated electrons:        52       ( 68.4%)
 Maximum number of correlated electrons:        64       ( 84.2%)
 Average number of correlated electrons:        52.6     ( 69.3%)
 Minimum number of correlated orbitals:        149       ( 20.7%)
 Maximum number of correlated orbitals:        273       ( 37.9%)
 Average number of correlated orbitals:        162.4     ( 22.6%)
 
 CPU time for integral calculations [min]:                 33.680
 Wall time for integral calculations [min]:                11.817
 
 CPU time for SCF calculation [min]:                       35.552
 Wall time for SCF calculation [min]:                       1.035
 
 CPU time for orbital localization [min]:                   0.291
 Wall time for orbital localization [min]:                  0.054
 
 CPU time for integral transformations [min]:            1283.869
 Wall time for integral transformations [min]:             42.712
 
 Reference energy [au]:                                  -539.156704325858
 
 LMP2 correlation energy [au]:                             -3.335733766523
 Total LMP2 energy [au]:                                 -542.492438092380
 
 Total MP2 correction for dropped NAFs [au]:               -0.000013121080
 Total MP2 correction [au]:                                -0.039867991883
 
 CPU time for CCSD calculations [min]:                    827.706
 Total CPU time for CCSD [min]:                          2181.098
 Wall time for CCSD calculations [min]:                    29.315
 Total wall time for CCSD [min]:                           84.933
 
 CCSD correlation energy [au]:                             -3.074465728582
 Total CCSD energy [au]:                                 -542.231170054440
 CCSD correlation energy + 0.5 MP2 corrections [au]:       -3.094399724523
 Total LNO-CCSD energy with MP2 corrections [au]:        -542.251104050381
 
 CPU time for (T) corrections [min]:                      523.881
 Total CPU time for CCSD(T) [min]:                       2704.979
 Wall time for (T) corrections [min]:                      15.866
 Total wall time for CCSD(T) [min]:                       100.799
 
 Total (T) correlation energy contribution [au]:           -0.138249310988
 Total (T) correlation energy+0.5 MP2 correction [au]:     -0.158183306930
 CCSD(T) correlation energy [au]:                          -3.212715039570
 Total CCSD(T) energy [au]:                              -542.369419365428
 CCSD(T) correlation energy + MP2 corrections [au]:        -3.252583031453
 Total LNO-CCSD(T) energy with MP2 corrections [au]:     -542.409287357311
 
 ======================================================================
 ======================================================================
 
 ************************ 2023-01-16 19:23:45 *************************
                      Normal termination of mrcc.
 **********************************************************************
