 **********************************************************************
                          MRCC program system
 **********************************************************************
 
                              Written by
     Mihaly Kallay, Peter R. Nagy, David Mester, Laszlo Gyevi-Nagy,
        Jozsef Csoka, P. Bernat Szabo, Zoltan Rolik, Gyula Samu,
     Jozsef Csontos, Bence Hegely, Adam Ganyecz, Istvan Ladjanszki,
       Lorant Szegedy, Bence Ladoczki, Klara Petrov, Mate Farkas,
                    Pal D. Mezei, and Reka A. Horvath
 
        Department of Physical Chemistry and Materials Science
            Budapest University of Technology and Economics
                  Budapest P.O.Box 91, H-1521 Hungary
 
                              www.mrcc.hu
 
                      Release date: March 18, 2022

 ************************ 2022-12-22 19:35:14 *************************
 Executing minp...

 Reading input from MINP...
 
 Input file:
 
calc=LNO-CCSD(T)
verbosity=3
mem=220GB
symm=off
unit=angs
scfiguess=small
scfalg=locfit1
lcorthr=tight
bpedo=0.99999
usedisk=0
ccmaxit=400
ccsdalg=dfdirect
ccsdthreads=4
ccsdmkl=thr
ptthreads=4
ECP=MCDHF-ECP-10
basis=bse_ACVTZ
basis_sm=def2-SVP
dfbasis_scf=def2-QZVPP-RI-JK
dfbasis_cor=bse_ACVTZ_mp2fit
core=0
unit=angs
geom=xyz
8
Cu8_4
Cu    -1.08811376     0.00533327     1.22684637
Cu     1.54147726     0.37603058    -0.41630804
Cu     0.21270861    -0.55017840    -2.14095381
Cu     0.46388836     1.83699629     1.15892732
Cu    -0.68792452     1.24407023    -0.82127330
Cu     1.19826337    -0.44128443     1.81747850
Cu     0.23552610    -1.62478027     0.00948306
Cu    -1.87582542    -0.84618728    -0.83420009

ghost=serialno


 
 
 Checking keyword combinations...
 
 Keywords:
 
 active=none
 agrid=ld0006-ld0590
 agrid_pssp=ld0006-ld0194
 agrid_pssp_sm=ld0006-ld0074
 basis=bse_acvtz
 basis_sm=def2-svp
 basopt=off
 bfbasis=none
 bfgsmem=10
 bfgstol=1.0d-3
 bpcompo=0.985
 bpcompv=0.98
 bpdfo=0.985
 bpocc=0.99999
 bppdo=0.999d0
 bppdv=0.98
 bpedo=0.99999
 bpedv=0.995d0
 calc=ccsd(t)
 ccmaxit=400
 ccprog=ccsd
 ccsdalg=dfdirect
 ccsdmkl=thr
 ccsdrest=off
 ccsdthreads=4
 cctol=5
 charge=0
 cialg=direct
 ciguess=off
 cmpgrp=auto
 comprest=off
 core=corr
 corembed=off
 csapprox=off
 cvs=off
 dboc=off
 delocsomofact=
 dendec=cholesky
 dens=0
 dfalg=lineq
 dfbasis_cab=none
 dfbasis_cor=bse_acvtz_mp2fit
 dfbasis_scf=def2-qzvpp-ri-jk
 dfbasis_scf_sm=def2-qzvpp-ri-jk
 dfintran=drpa
 dft=off
 dhexc=adc(2)
 diag=david
 docc=
 domrad=10.d0
 drpaalg=auto
 dual=off
 dual_df=off
 ecp=mcdhf-ecp-10
 edisp=off
 edisp_embed=off
 embed=off
 etemp=300
 epert=none
 eps=
 espcharge=off
 excrad=1.0
 excrad_fin=0.100000000D-02
 fitting=coulomb
 fmm=off
 fmmord=8
 freq=off
 gamma=1.d0
 gauss=spher
 geom=xyz
 gopt=off
 ghost=serialno
 gtol=7
 grdens=off
 gridbatch_cos=2000
 grtol=10
 guido_ct=off
 hamilton=dc
 iface=none
 intalg=auto
 itol=10
 laptol=1.d-3
 lccoporder=lccfirst
 lcorthr=tight
 lccrest=off
 lmp2dens=on
 lnoepso=3e-6
 lnoepsv=3e-7
 boysalg=jacobi
 localcc=2021
 localcorrsymm=off
 locintrf=direct
 mact=
 maxact=off
 maxdim=100
 maxex=0
 maxmicroit=100
 mcscfiguess=hf
 mem=220gb
 mmprog=
 molden=on
 mpitasks=1
 mulmet=3
 mult=
 nacto=0
 nactv=0
 naf_amp=1.d-2
 naf_cor=1e-2
 naf_scf=off
 nafalg=albe
 naftyp=jpq
 nchol=auto
 ndeps=1e-3
 nstate=1
 nsing=0
 nto=off
 ntrip=0
 occ=
 occri=off
 oniom=off
 oniom_eechg=off
 oniom_pcm=off
 oniom_qcorr=off
 optalg=
 optmaxit=50
 optetol=1e-6
 optex=0
 optgtol=1e-4
 optstol=1e-3
 orblocc=boys
 orbloce=off
 orbloco=boys
 orblocv=pao
 orblocguess=cholesky
 osveps=-1.d0
 ovirt=off
 ovltol=1e-7
 ovosnorb=80.0
 pcm=off
 popul=off
 pressure=100000
 pssp=off
 ptfreq=0.0
 ptthreads=4
 qro=off
 qscf=off
 qmmm=off
 redcost_exc=off
 redcost_tddft=0.985d0
 refdet=none
 rest=0
 rgrid=log3
 rism=off
 rohfcore=standard
 rohftype=semicanonical
 scfalg=locfit1
 scf_conv=difficult
 scfdamp=0.0d0
 scfdamp_mode=off
 scfdamp_end=50
 scfdamp_dampstep=0.d0
 scfdamp_dtol=0.0d0
 scfdamp_maxfact=0.0d0
 scfdamp_minfact=0.0d0
 scfdiis=on
 scfdiis_dtol=0.0d0
 scfdiis_end=50
 scfdiis_start=2
 scfdiis_step=1
 scfdiis_watch=off
 scfdiis_wrange=10
 scfdiis_wlimit=5
 scfdiis_delmax=2
 scfdtol=7
 scfext=10
 scfguessdens=
 scfiguess=small
 scfloc=pm
 scflshift=0.20
 scflshift_end=8
 scflshift_dtol=0.0
 scflshift_gaptol=0.20
 scfmaxit=50
 scftype=
 scftol=6
 scspe=1.d0
 scsph=1.d0
 scsps=1.2d0
 scsps_t=1.2d0
 scspt=0.33333333333333
 scspt_t=0.33333333333333
 scspv=1.d0
 spairtol=-1.d0
 sqmprog=
 subminp=top
 symm=0
 talg=lapl
 temp=298.15
 test=off
 theodore=off
 tlmo=0.999
 tpao=0.94
 tprint=off
 uncontract=off
 unit=angs
 usedisk=0
 verbosity=3
 wpairtol=3.d-6
 
 Calculating integrals for small-basis SCF...

 ************************ 2022-12-22 19:35:14 *************************
 Executing integ...

 Allocation of 220.0 Gbytes of memory...
 
 
 Number of atoms:                  8
 Charge:                           0
 Number of electrons:            152
 Number of core electrons:        64
 Spin multiplicity:                1
 
                 Cartesian coordinates [bohr]      Atomic mass [AMU]  Z
   1  Cu   -2.05623700    0.01007842    2.31840364    62.929599      29
   2  Cu    2.91296985    0.71059481   -0.78670818    62.929599      29
   3  Cu    0.40196102   -1.03968650   -4.04581635    62.929599      29
   4  Cu    0.87662195    3.47141988    2.19005523    62.929599      29
   5  Cu   -1.29998894    2.35095202   -1.55198161    62.929599      29
   6  Cu    2.26438960   -0.83390672    3.43453660    62.929599      29
   7  Cu    0.44507982   -3.07038972    0.01792039    62.929599      29
   8  Cu   -3.54479630   -1.59906221   -1.57640970    62.929599      29
 
 This molecule is an asymmetric top.
 
 Point group: C1  
 Computational point group: C1  
 
 Cartesian coordinates in standard orientation [bohr]
   1  Cu    0.94919506   -0.15141239    2.94606697
   2  Cu    0.94802575    0.15329140   -2.94737121
   3  Cu   -3.48148247    0.12218887   -2.33997870
   4  Cu    3.48037823    2.34254468    0.12253910
   5  Cu   -0.94980133    2.94965560    0.15166680
   6  Cu    3.48083306   -2.34258919   -0.12239049
   7  Cu   -0.94803992   -2.95016159   -0.15322252
   8  Cu   -3.47910839   -0.12351738    2.34269004
 
 Nuclear repulsion energy [au]:       1946.387703836435
 
 
 Basis set information:
 
 Maximum angular momentum: i
 Maximum number of contracted Gaussians:   16
 Maximum number of primitive Gaussians:    19
 Spherical harmonic GTOs are used.
 
 
 Conventional basis set:
 
   1  Cu def2-svp [ 14s 9p 5d 1f | 5s 3p 2d 1f ]
   2  Cu def2-svp [ 14s 9p 5d 1f | 5s 3p 2d 1f ]
   3  Cu def2-svp [ 14s 9p 5d 1f | 5s 3p 2d 1f ]
   4  Cu def2-svp [ 14s 9p 5d 1f | 5s 3p 2d 1f ]
   5  Cu def2-svp [ 14s 9p 5d 1f | 5s 3p 2d 1f ]
   6  Cu def2-svp [ 14s 9p 5d 1f | 5s 3p 2d 1f ]
   7  Cu def2-svp [ 14s 9p 5d 1f | 5s 3p 2d 1f ]
   8  Cu def2-svp [ 14s 9p 5d 1f | 5s 3p 2d 1f ]
 
 Basis functions:
            1             2             3             4             5             6             7             8             9            10
    0    1Cu1s         1Cu2s         1Cu3s         1Cu4s         1Cu5s         1Cu1pz        1Cu1py        1Cu1px        1Cu2pz        1Cu2py    
    1    1Cu2px        1Cu3pz        1Cu3py        1Cu3px        1Cu1d-2       1Cu1d-1       1Cu1d0        1Cu1d+1       1Cu1d+2       1Cu2d-2   
    2    1Cu2d-1       1Cu2d0        1Cu2d+1       1Cu2d+2       1Cu1f-3       1Cu1f-2       1Cu1f-1       1Cu1f0        1Cu1f+1       1Cu1f+2   
    3    1Cu1f+3       2Cu1s         2Cu2s         2Cu3s         2Cu4s         2Cu5s         2Cu1pz        2Cu1py        2Cu1px        2Cu2pz    
    4    2Cu2py        2Cu2px        2Cu3pz        2Cu3py        2Cu3px        2Cu1d-2       2Cu1d-1       2Cu1d0        2Cu1d+1       2Cu1d+2   
    5    2Cu2d-2       2Cu2d-1       2Cu2d0        2Cu2d+1       2Cu2d+2       2Cu1f-3       2Cu1f-2       2Cu1f-1       2Cu1f0        2Cu1f+1   
    6    2Cu1f+2       2Cu1f+3       3Cu1s         3Cu2s         3Cu3s         3Cu4s         3Cu5s         3Cu1pz        3Cu1py        3Cu1px    
    7    3Cu2pz        3Cu2py        3Cu2px        3Cu3pz        3Cu3py        3Cu3px        3Cu1d-2       3Cu1d-1       3Cu1d0        3Cu1d+1   
    8    3Cu1d+2       3Cu2d-2       3Cu2d-1       3Cu2d0        3Cu2d+1       3Cu2d+2       3Cu1f-3       3Cu1f-2       3Cu1f-1       3Cu1f0    
    9    3Cu1f+1       3Cu1f+2       3Cu1f+3       4Cu1s         4Cu2s         4Cu3s         4Cu4s         4Cu5s         4Cu1pz        4Cu1py    
   10    4Cu1px        4Cu2pz        4Cu2py        4Cu2px        4Cu3pz        4Cu3py        4Cu3px        4Cu1d-2       4Cu1d-1       4Cu1d0    
   11    4Cu1d+1       4Cu1d+2       4Cu2d-2       4Cu2d-1       4Cu2d0        4Cu2d+1       4Cu2d+2       4Cu1f-3       4Cu1f-2       4Cu1f-1   
   12    4Cu1f0        4Cu1f+1       4Cu1f+2       4Cu1f+3       5Cu1s         5Cu2s         5Cu3s         5Cu4s         5Cu5s         5Cu1pz    
   13    5Cu1py        5Cu1px        5Cu2pz        5Cu2py        5Cu2px        5Cu3pz        5Cu3py        5Cu3px        5Cu1d-2       5Cu1d-1   
   14    5Cu1d0        5Cu1d+1       5Cu1d+2       5Cu2d-2       5Cu2d-1       5Cu2d0        5Cu2d+1       5Cu2d+2       5Cu1f-3       5Cu1f-2   
   15    5Cu1f-1       5Cu1f0        5Cu1f+1       5Cu1f+2       5Cu1f+3       6Cu1s         6Cu2s         6Cu3s         6Cu4s         6Cu5s     
   16    6Cu1pz        6Cu1py        6Cu1px        6Cu2pz        6Cu2py        6Cu2px        6Cu3pz        6Cu3py        6Cu3px        6Cu1d-2   
   17    6Cu1d-1       6Cu1d0        6Cu1d+1       6Cu1d+2       6Cu2d-2       6Cu2d-1       6Cu2d0        6Cu2d+1       6Cu2d+2       6Cu1f-3   
   18    6Cu1f-2       6Cu1f-1       6Cu1f0        6Cu1f+1       6Cu1f+2       6Cu1f+3       7Cu1s         7Cu2s         7Cu3s         7Cu4s     
   19    7Cu5s         7Cu1pz        7Cu1py        7Cu1px        7Cu2pz        7Cu2py        7Cu2px        7Cu3pz        7Cu3py        7Cu3px    
   20    7Cu1d-2       7Cu1d-1       7Cu1d0        7Cu1d+1       7Cu1d+2       7Cu2d-2       7Cu2d-1       7Cu2d0        7Cu2d+1       7Cu2d+2   
   21    7Cu1f-3       7Cu1f-2       7Cu1f-1       7Cu1f0        7Cu1f+1       7Cu1f+2       7Cu1f+3       8Cu1s         8Cu2s         8Cu3s     
   22    8Cu4s         8Cu5s         8Cu1pz        8Cu1py        8Cu1px        8Cu2pz        8Cu2py        8Cu2px        8Cu3pz        8Cu3py    
   23    8Cu3px        8Cu1d-2       8Cu1d-1       8Cu1d0        8Cu1d+1       8Cu1d+2       8Cu2d-2       8Cu2d-1       8Cu2d0        8Cu2d+1   
   24    8Cu2d+2       8Cu1f-3       8Cu1f-2       8Cu1f-1       8Cu1f0        8Cu1f+1       8Cu1f+2       8Cu1f+3   
 
 Maximum number of basis functions per shell:   10
 Total number of basis functions:    248
 
 
 Fitting basis set for the SCF calculation:
 
   1  Cu def2-qzvpp-ri-jk [ 19s 14p 12d 10f 7g 3h 1i | 16s 13p 11d 9f 5g 3h 1i ]
   2  Cu def2-qzvpp-ri-jk [ 19s 14p 12d 10f 7g 3h 1i | 16s 13p 11d 9f 5g 3h 1i ]
   3  Cu def2-qzvpp-ri-jk [ 19s 14p 12d 10f 7g 3h 1i | 16s 13p 11d 9f 5g 3h 1i ]
   4  Cu def2-qzvpp-ri-jk [ 19s 14p 12d 10f 7g 3h 1i | 16s 13p 11d 9f 5g 3h 1i ]
   5  Cu def2-qzvpp-ri-jk [ 19s 14p 12d 10f 7g 3h 1i | 16s 13p 11d 9f 5g 3h 1i ]
   6  Cu def2-qzvpp-ri-jk [ 19s 14p 12d 10f 7g 3h 1i | 16s 13p 11d 9f 5g 3h 1i ]
   7  Cu def2-qzvpp-ri-jk [ 19s 14p 12d 10f 7g 3h 1i | 16s 13p 11d 9f 5g 3h 1i ]
   8  Cu def2-qzvpp-ri-jk [ 19s 14p 12d 10f 7g 3h 1i | 16s 13p 11d 9f 5g 3h 1i ]
 
 Basis functions:
            1             2             3             4             5             6             7             8             9            10
    0    1Cu1s         1Cu2s         1Cu3s         1Cu4s         1Cu5s         1Cu6s         1Cu7s         1Cu8s         1Cu9s         1Cu10s    
    1    1Cu11s        1Cu12s        1Cu13s        1Cu14s        1Cu15s        1Cu16s        1Cu1pz        1Cu1py        1Cu1px        1Cu2pz    
    2    1Cu2py        1Cu2px        1Cu3pz        1Cu3py        1Cu3px        1Cu4pz        1Cu4py        1Cu4px        1Cu5pz        1Cu5py    
    3    1Cu5px        1Cu6pz        1Cu6py        1Cu6px        1Cu7pz        1Cu7py        1Cu7px        1Cu8pz        1Cu8py        1Cu8px    
    4    1Cu9pz        1Cu9py        1Cu9px        1Cu10pz       1Cu10py       1Cu10px       1Cu11pz       1Cu11py       1Cu11px       1Cu12pz   
    5    1Cu12py       1Cu12px       1Cu13pz       1Cu13py       1Cu13px       1Cu1d-2       1Cu1d-1       1Cu1d0        1Cu1d+1       1Cu1d+2   
    6    1Cu2d-2       1Cu2d-1       1Cu2d0        1Cu2d+1       1Cu2d+2       1Cu3d-2       1Cu3d-1       1Cu3d0        1Cu3d+1       1Cu3d+2   
    7    1Cu4d-2       1Cu4d-1       1Cu4d0        1Cu4d+1       1Cu4d+2       1Cu5d-2       1Cu5d-1       1Cu5d0        1Cu5d+1       1Cu5d+2   
    8    1Cu6d-2       1Cu6d-1       1Cu6d0        1Cu6d+1       1Cu6d+2       1Cu7d-2       1Cu7d-1       1Cu7d0        1Cu7d+1       1Cu7d+2   
    9    1Cu8d-2       1Cu8d-1       1Cu8d0        1Cu8d+1       1Cu8d+2       1Cu9d-2       1Cu9d-1       1Cu9d0        1Cu9d+1       1Cu9d+2   
   10    1Cu10d-2      1Cu10d-1      1Cu10d0       1Cu10d+1      1Cu10d+2      1Cu11d-2      1Cu11d-1      1Cu11d0       1Cu11d+1      1Cu11d+2  
   11    1Cu1f-3       1Cu1f-2       1Cu1f-1       1Cu1f0        1Cu1f+1       1Cu1f+2       1Cu1f+3       1Cu2f-3       1Cu2f-2       1Cu2f-1   
   12    1Cu2f0        1Cu2f+1       1Cu2f+2       1Cu2f+3       1Cu3f-3       1Cu3f-2       1Cu3f-1       1Cu3f0        1Cu3f+1       1Cu3f+2   
   13    1Cu3f+3       1Cu4f-3       1Cu4f-2       1Cu4f-1       1Cu4f0        1Cu4f+1       1Cu4f+2       1Cu4f+3       1Cu5f-3       1Cu5f-2   
   14    1Cu5f-1       1Cu5f0        1Cu5f+1       1Cu5f+2       1Cu5f+3       1Cu6f-3       1Cu6f-2       1Cu6f-1       1Cu6f0        1Cu6f+1   
   15    1Cu6f+2       1Cu6f+3       1Cu7f-3       1Cu7f-2       1Cu7f-1       1Cu7f0        1Cu7f+1       1Cu7f+2       1Cu7f+3       1Cu8f-3   
   16    1Cu8f-2       1Cu8f-1       1Cu8f0        1Cu8f+1       1Cu8f+2       1Cu8f+3       1Cu9f-3       1Cu9f-2       1Cu9f-1       1Cu9f0    
   17    1Cu9f+1       1Cu9f+2       1Cu9f+3       1Cu1g-4       1Cu1g-3       1Cu1g-2       1Cu1g-1       1Cu1g0        1Cu1g+1       1Cu1g+2   
   18    1Cu1g+3       1Cu1g+4       1Cu2g-4       1Cu2g-3       1Cu2g-2       1Cu2g-1       1Cu2g0        1Cu2g+1       1Cu2g+2       1Cu2g+3   
   19    1Cu2g+4       1Cu3g-4       1Cu3g-3       1Cu3g-2       1Cu3g-1       1Cu3g0        1Cu3g+1       1Cu3g+2       1Cu3g+3       1Cu3g+4   
   20    1Cu4g-4       1Cu4g-3       1Cu4g-2       1Cu4g-1       1Cu4g0        1Cu4g+1       1Cu4g+2       1Cu4g+3       1Cu4g+4       1Cu5g-4   
   21    1Cu5g-3       1Cu5g-2       1Cu5g-1       1Cu5g0        1Cu5g+1       1Cu5g+2       1Cu5g+3       1Cu5g+4       1Cu1h-5       1Cu1h-4   
   22    1Cu1h-3       1Cu1h-2       1Cu1h-1       1Cu1h0        1Cu1h+1       1Cu1h+2       1Cu1h+3       1Cu1h+4       1Cu1h+5       1Cu2h-5   
   23    1Cu2h-4       1Cu2h-3       1Cu2h-2       1Cu2h-1       1Cu2h0        1Cu2h+1       1Cu2h+2       1Cu2h+3       1Cu2h+4       1Cu2h+5   
   24    1Cu3h-5       1Cu3h-4       1Cu3h-3       1Cu3h-2       1Cu3h-1       1Cu3h0        1Cu3h+1       1Cu3h+2       1Cu3h+3       1Cu3h+4   
   25    1Cu3h+5       1Cu1i-6       1Cu1i-5       1Cu1i-4       1Cu1i-3       1Cu1i-2       1Cu1i-1       1Cu1i0        1Cu1i+1       1Cu1i+2   
   26    1Cu1i+3       1Cu1i+4       1Cu1i+5       1Cu1i+6       2Cu1s         2Cu2s         2Cu3s         2Cu4s         2Cu5s         2Cu6s     
   27    2Cu7s         2Cu8s         2Cu9s         2Cu10s        2Cu11s        2Cu12s        2Cu13s        2Cu14s        2Cu15s        2Cu16s    
   28    2Cu1pz        2Cu1py        2Cu1px        2Cu2pz        2Cu2py        2Cu2px        2Cu3pz        2Cu3py        2Cu3px        2Cu4pz    
   29    2Cu4py        2Cu4px        2Cu5pz        2Cu5py        2Cu5px        2Cu6pz        2Cu6py        2Cu6px        2Cu7pz        2Cu7py    
   30    2Cu7px        2Cu8pz        2Cu8py        2Cu8px        2Cu9pz        2Cu9py        2Cu9px        2Cu10pz       2Cu10py       2Cu10px   
   31    2Cu11pz       2Cu11py       2Cu11px       2Cu12pz       2Cu12py       2Cu12px       2Cu13pz       2Cu13py       2Cu13px       2Cu1d-2   
   32    2Cu1d-1       2Cu1d0        2Cu1d+1       2Cu1d+2       2Cu2d-2       2Cu2d-1       2Cu2d0        2Cu2d+1       2Cu2d+2       2Cu3d-2   
   33    2Cu3d-1       2Cu3d0        2Cu3d+1       2Cu3d+2       2Cu4d-2       2Cu4d-1       2Cu4d0        2Cu4d+1       2Cu4d+2       2Cu5d-2   
   34    2Cu5d-1       2Cu5d0        2Cu5d+1       2Cu5d+2       2Cu6d-2       2Cu6d-1       2Cu6d0        2Cu6d+1       2Cu6d+2       2Cu7d-2   
   35    2Cu7d-1       2Cu7d0        2Cu7d+1       2Cu7d+2       2Cu8d-2       2Cu8d-1       2Cu8d0        2Cu8d+1       2Cu8d+2       2Cu9d-2   
   36    2Cu9d-1       2Cu9d0        2Cu9d+1       2Cu9d+2       2Cu10d-2      2Cu10d-1      2Cu10d0       2Cu10d+1      2Cu10d+2      2Cu11d-2  
   37    2Cu11d-1      2Cu11d0       2Cu11d+1      2Cu11d+2      2Cu1f-3       2Cu1f-2       2Cu1f-1       2Cu1f0        2Cu1f+1       2Cu1f+2   
   38    2Cu1f+3       2Cu2f-3       2Cu2f-2       2Cu2f-1       2Cu2f0        2Cu2f+1       2Cu2f+2       2Cu2f+3       2Cu3f-3       2Cu3f-2   
   39    2Cu3f-1       2Cu3f0        2Cu3f+1       2Cu3f+2       2Cu3f+3       2Cu4f-3       2Cu4f-2       2Cu4f-1       2Cu4f0        2Cu4f+1   
   40    2Cu4f+2       2Cu4f+3       2Cu5f-3       2Cu5f-2       2Cu5f-1       2Cu5f0        2Cu5f+1       2Cu5f+2       2Cu5f+3       2Cu6f-3   
   41    2Cu6f-2       2Cu6f-1       2Cu6f0        2Cu6f+1       2Cu6f+2       2Cu6f+3       2Cu7f-3       2Cu7f-2       2Cu7f-1       2Cu7f0    
   42    2Cu7f+1       2Cu7f+2       2Cu7f+3       2Cu8f-3       2Cu8f-2       2Cu8f-1       2Cu8f0        2Cu8f+1       2Cu8f+2       2Cu8f+3   
   43    2Cu9f-3       2Cu9f-2       2Cu9f-1       2Cu9f0        2Cu9f+1       2Cu9f+2       2Cu9f+3       2Cu1g-4       2Cu1g-3       2Cu1g-2   
   44    2Cu1g-1       2Cu1g0        2Cu1g+1       2Cu1g+2       2Cu1g+3       2Cu1g+4       2Cu2g-4       2Cu2g-3       2Cu2g-2       2Cu2g-1   
   45    2Cu2g0        2Cu2g+1       2Cu2g+2       2Cu2g+3       2Cu2g+4       2Cu3g-4       2Cu3g-3       2Cu3g-2       2Cu3g-1       2Cu3g0    
   46    2Cu3g+1       2Cu3g+2       2Cu3g+3       2Cu3g+4       2Cu4g-4       2Cu4g-3       2Cu4g-2       2Cu4g-1       2Cu4g0        2Cu4g+1   
   47    2Cu4g+2       2Cu4g+3       2Cu4g+4       2Cu5g-4       2Cu5g-3       2Cu5g-2       2Cu5g-1       2Cu5g0        2Cu5g+1       2Cu5g+2   
   48    2Cu5g+3       2Cu5g+4       2Cu1h-5       2Cu1h-4       2Cu1h-3       2Cu1h-2       2Cu1h-1       2Cu1h0        2Cu1h+1       2Cu1h+2   
   49    2Cu1h+3       2Cu1h+4       2Cu1h+5       2Cu2h-5       2Cu2h-4       2Cu2h-3       2Cu2h-2       2Cu2h-1       2Cu2h0        2Cu2h+1   
   50    2Cu2h+2       2Cu2h+3       2Cu2h+4       2Cu2h+5       2Cu3h-5       2Cu3h-4       2Cu3h-3       2Cu3h-2       2Cu3h-1       2Cu3h0    
   51    2Cu3h+1       2Cu3h+2       2Cu3h+3       2Cu3h+4       2Cu3h+5       2Cu1i-6       2Cu1i-5       2Cu1i-4       2Cu1i-3       2Cu1i-2   
   52    2Cu1i-1       2Cu1i0        2Cu1i+1       2Cu1i+2       2Cu1i+3       2Cu1i+4       2Cu1i+5       2Cu1i+6       3Cu1s         3Cu2s     
   53    3Cu3s         3Cu4s         3Cu5s         3Cu6s         3Cu7s         3Cu8s         3Cu9s         3Cu10s        3Cu11s        3Cu12s    
   54    3Cu13s        3Cu14s        3Cu15s        3Cu16s        3Cu1pz        3Cu1py        3Cu1px        3Cu2pz        3Cu2py        3Cu2px    
   55    3Cu3pz        3Cu3py        3Cu3px        3Cu4pz        3Cu4py        3Cu4px        3Cu5pz        3Cu5py        3Cu5px        3Cu6pz    
   56    3Cu6py        3Cu6px        3Cu7pz        3Cu7py        3Cu7px        3Cu8pz        3Cu8py        3Cu8px        3Cu9pz        3Cu9py    
   57    3Cu9px        3Cu10pz       3Cu10py       3Cu10px       3Cu11pz       3Cu11py       3Cu11px       3Cu12pz       3Cu12py       3Cu12px   
   58    3Cu13pz       3Cu13py       3Cu13px       3Cu1d-2       3Cu1d-1       3Cu1d0        3Cu1d+1       3Cu1d+2       3Cu2d-2       3Cu2d-1   
   59    3Cu2d0        3Cu2d+1       3Cu2d+2       3Cu3d-2       3Cu3d-1       3Cu3d0        3Cu3d+1       3Cu3d+2       3Cu4d-2       3Cu4d-1   
   60    3Cu4d0        3Cu4d+1       3Cu4d+2       3Cu5d-2       3Cu5d-1       3Cu5d0        3Cu5d+1       3Cu5d+2       3Cu6d-2       3Cu6d-1   
   61    3Cu6d0        3Cu6d+1       3Cu6d+2       3Cu7d-2       3Cu7d-1       3Cu7d0        3Cu7d+1       3Cu7d+2       3Cu8d-2       3Cu8d-1   
   62    3Cu8d0        3Cu8d+1       3Cu8d+2       3Cu9d-2       3Cu9d-1       3Cu9d0        3Cu9d+1       3Cu9d+2       3Cu10d-2      3Cu10d-1  
   63    3Cu10d0       3Cu10d+1      3Cu10d+2      3Cu11d-2      3Cu11d-1      3Cu11d0       3Cu11d+1      3Cu11d+2      3Cu1f-3       3Cu1f-2   
   64    3Cu1f-1       3Cu1f0        3Cu1f+1       3Cu1f+2       3Cu1f+3       3Cu2f-3       3Cu2f-2       3Cu2f-1       3Cu2f0        3Cu2f+1   
   65    3Cu2f+2       3Cu2f+3       3Cu3f-3       3Cu3f-2       3Cu3f-1       3Cu3f0        3Cu3f+1       3Cu3f+2       3Cu3f+3       3Cu4f-3   
   66    3Cu4f-2       3Cu4f-1       3Cu4f0        3Cu4f+1       3Cu4f+2       3Cu4f+3       3Cu5f-3       3Cu5f-2       3Cu5f-1       3Cu5f0    
   67    3Cu5f+1       3Cu5f+2       3Cu5f+3       3Cu6f-3       3Cu6f-2       3Cu6f-1       3Cu6f0        3Cu6f+1       3Cu6f+2       3Cu6f+3   
   68    3Cu7f-3       3Cu7f-2       3Cu7f-1       3Cu7f0        3Cu7f+1       3Cu7f+2       3Cu7f+3       3Cu8f-3       3Cu8f-2       3Cu8f-1   
   69    3Cu8f0        3Cu8f+1       3Cu8f+2       3Cu8f+3       3Cu9f-3       3Cu9f-2       3Cu9f-1       3Cu9f0        3Cu9f+1       3Cu9f+2   
   70    3Cu9f+3       3Cu1g-4       3Cu1g-3       3Cu1g-2       3Cu1g-1       3Cu1g0        3Cu1g+1       3Cu1g+2       3Cu1g+3       3Cu1g+4   
   71    3Cu2g-4       3Cu2g-3       3Cu2g-2       3Cu2g-1       3Cu2g0        3Cu2g+1       3Cu2g+2       3Cu2g+3       3Cu2g+4       3Cu3g-4   
   72    3Cu3g-3       3Cu3g-2       3Cu3g-1       3Cu3g0        3Cu3g+1       3Cu3g+2       3Cu3g+3       3Cu3g+4       3Cu4g-4       3Cu4g-3   
   73    3Cu4g-2       3Cu4g-1       3Cu4g0        3Cu4g+1       3Cu4g+2       3Cu4g+3       3Cu4g+4       3Cu5g-4       3Cu5g-3       3Cu5g-2   
   74    3Cu5g-1       3Cu5g0        3Cu5g+1       3Cu5g+2       3Cu5g+3       3Cu5g+4       3Cu1h-5       3Cu1h-4       3Cu1h-3       3Cu1h-2   
   75    3Cu1h-1       3Cu1h0        3Cu1h+1       3Cu1h+2       3Cu1h+3       3Cu1h+4       3Cu1h+5       3Cu2h-5       3Cu2h-4       3Cu2h-3   
   76    3Cu2h-2       3Cu2h-1       3Cu2h0        3Cu2h+1       3Cu2h+2       3Cu2h+3       3Cu2h+4       3Cu2h+5       3Cu3h-5       3Cu3h-4   
   77    3Cu3h-3       3Cu3h-2       3Cu3h-1       3Cu3h0        3Cu3h+1       3Cu3h+2       3Cu3h+3       3Cu3h+4       3Cu3h+5       3Cu1i-6   
   78    3Cu1i-5       3Cu1i-4       3Cu1i-3       3Cu1i-2       3Cu1i-1       3Cu1i0        3Cu1i+1       3Cu1i+2       3Cu1i+3       3Cu1i+4   
   79    3Cu1i+5       3Cu1i+6       4Cu1s         4Cu2s         4Cu3s         4Cu4s         4Cu5s         4Cu6s         4Cu7s         4Cu8s     
   80    4Cu9s         4Cu10s        4Cu11s        4Cu12s        4Cu13s        4Cu14s        4Cu15s        4Cu16s        4Cu1pz        4Cu1py    
   81    4Cu1px        4Cu2pz        4Cu2py        4Cu2px        4Cu3pz        4Cu3py        4Cu3px        4Cu4pz        4Cu4py        4Cu4px    
   82    4Cu5pz        4Cu5py        4Cu5px        4Cu6pz        4Cu6py        4Cu6px        4Cu7pz        4Cu7py        4Cu7px        4Cu8pz    
   83    4Cu8py        4Cu8px        4Cu9pz        4Cu9py        4Cu9px        4Cu10pz       4Cu10py       4Cu10px       4Cu11pz       4Cu11py   
   84    4Cu11px       4Cu12pz       4Cu12py       4Cu12px       4Cu13pz       4Cu13py       4Cu13px       4Cu1d-2       4Cu1d-1       4Cu1d0    
   85    4Cu1d+1       4Cu1d+2       4Cu2d-2       4Cu2d-1       4Cu2d0        4Cu2d+1       4Cu2d+2       4Cu3d-2       4Cu3d-1       4Cu3d0    
   86    4Cu3d+1       4Cu3d+2       4Cu4d-2       4Cu4d-1       4Cu4d0        4Cu4d+1       4Cu4d+2       4Cu5d-2       4Cu5d-1       4Cu5d0    
   87    4Cu5d+1       4Cu5d+2       4Cu6d-2       4Cu6d-1       4Cu6d0        4Cu6d+1       4Cu6d+2       4Cu7d-2       4Cu7d-1       4Cu7d0    
   88    4Cu7d+1       4Cu7d+2       4Cu8d-2       4Cu8d-1       4Cu8d0        4Cu8d+1       4Cu8d+2       4Cu9d-2       4Cu9d-1       4Cu9d0    
   89    4Cu9d+1       4Cu9d+2       4Cu10d-2      4Cu10d-1      4Cu10d0       4Cu10d+1      4Cu10d+2      4Cu11d-2      4Cu11d-1      4Cu11d0   
   90    4Cu11d+1      4Cu11d+2      4Cu1f-3       4Cu1f-2       4Cu1f-1       4Cu1f0        4Cu1f+1       4Cu1f+2       4Cu1f+3       4Cu2f-3   
   91    4Cu2f-2       4Cu2f-1       4Cu2f0        4Cu2f+1       4Cu2f+2       4Cu2f+3       4Cu3f-3       4Cu3f-2       4Cu3f-1       4Cu3f0    
   92    4Cu3f+1       4Cu3f+2       4Cu3f+3       4Cu4f-3       4Cu4f-2       4Cu4f-1       4Cu4f0        4Cu4f+1       4Cu4f+2       4Cu4f+3   
   93    4Cu5f-3       4Cu5f-2       4Cu5f-1       4Cu5f0        4Cu5f+1       4Cu5f+2       4Cu5f+3       4Cu6f-3       4Cu6f-2       4Cu6f-1   
   94    4Cu6f0        4Cu6f+1       4Cu6f+2       4Cu6f+3       4Cu7f-3       4Cu7f-2       4Cu7f-1       4Cu7f0        4Cu7f+1       4Cu7f+2   
   95    4Cu7f+3       4Cu8f-3       4Cu8f-2       4Cu8f-1       4Cu8f0        4Cu8f+1       4Cu8f+2       4Cu8f+3       4Cu9f-3       4Cu9f-2   
   96    4Cu9f-1       4Cu9f0        4Cu9f+1       4Cu9f+2       4Cu9f+3       4Cu1g-4       4Cu1g-3       4Cu1g-2       4Cu1g-1       4Cu1g0    
   97    4Cu1g+1       4Cu1g+2       4Cu1g+3       4Cu1g+4       4Cu2g-4       4Cu2g-3       4Cu2g-2       4Cu2g-1       4Cu2g0        4Cu2g+1   
   98    4Cu2g+2       4Cu2g+3       4Cu2g+4       4Cu3g-4       4Cu3g-3       4Cu3g-2       4Cu3g-1       4Cu3g0        4Cu3g+1       4Cu3g+2   
   99    4Cu3g+3       4Cu3g+4       4Cu4g-4       4Cu4g-3       4Cu4g-2       4Cu4g-1       4Cu4g0        4Cu4g+1       4Cu4g+2       4Cu4g+3   
  100    4Cu4g+4       4Cu5g-4       4Cu5g-3       4Cu5g-2       4Cu5g-1       4Cu5g0        4Cu5g+1       4Cu5g+2       4Cu5g+3       4Cu5g+4   
  101    4Cu1h-5       4Cu1h-4       4Cu1h-3       4Cu1h-2       4Cu1h-1       4Cu1h0        4Cu1h+1       4Cu1h+2       4Cu1h+3       4Cu1h+4   
  102    4Cu1h+5       4Cu2h-5       4Cu2h-4       4Cu2h-3       4Cu2h-2       4Cu2h-1       4Cu2h0        4Cu2h+1       4Cu2h+2       4Cu2h+3   
  103    4Cu2h+4       4Cu2h+5       4Cu3h-5       4Cu3h-4       4Cu3h-3       4Cu3h-2       4Cu3h-1       4Cu3h0        4Cu3h+1       4Cu3h+2   
  104    4Cu3h+3       4Cu3h+4       4Cu3h+5       4Cu1i-6       4Cu1i-5       4Cu1i-4       4Cu1i-3       4Cu1i-2       4Cu1i-1       4Cu1i0    
  105    4Cu1i+1       4Cu1i+2       4Cu1i+3       4Cu1i+4       4Cu1i+5       4Cu1i+6       5Cu1s         5Cu2s         5Cu3s         5Cu4s     
  106    5Cu5s         5Cu6s         5Cu7s         5Cu8s         5Cu9s         5Cu10s        5Cu11s        5Cu12s        5Cu13s        5Cu14s    
  107    5Cu15s        5Cu16s        5Cu1pz        5Cu1py        5Cu1px        5Cu2pz        5Cu2py        5Cu2px        5Cu3pz        5Cu3py    
  108    5Cu3px        5Cu4pz        5Cu4py        5Cu4px        5Cu5pz        5Cu5py        5Cu5px        5Cu6pz        5Cu6py        5Cu6px    
  109    5Cu7pz        5Cu7py        5Cu7px        5Cu8pz        5Cu8py        5Cu8px        5Cu9pz        5Cu9py        5Cu9px        5Cu10pz   
  110    5Cu10py       5Cu10px       5Cu11pz       5Cu11py       5Cu11px       5Cu12pz       5Cu12py       5Cu12px       5Cu13pz       5Cu13py   
  111    5Cu13px       5Cu1d-2       5Cu1d-1       5Cu1d0        5Cu1d+1       5Cu1d+2       5Cu2d-2       5Cu2d-1       5Cu2d0        5Cu2d+1   
  112    5Cu2d+2       5Cu3d-2       5Cu3d-1       5Cu3d0        5Cu3d+1       5Cu3d+2       5Cu4d-2       5Cu4d-1       5Cu4d0        5Cu4d+1   
  113    5Cu4d+2       5Cu5d-2       5Cu5d-1       5Cu5d0        5Cu5d+1       5Cu5d+2       5Cu6d-2       5Cu6d-1       5Cu6d0        5Cu6d+1   
  114    5Cu6d+2       5Cu7d-2       5Cu7d-1       5Cu7d0        5Cu7d+1       5Cu7d+2       5Cu8d-2       5Cu8d-1       5Cu8d0        5Cu8d+1   
  115    5Cu8d+2       5Cu9d-2       5Cu9d-1       5Cu9d0        5Cu9d+1       5Cu9d+2       5Cu10d-2      5Cu10d-1      5Cu10d0       5Cu10d+1  
  116    5Cu10d+2      5Cu11d-2      5Cu11d-1      5Cu11d0       5Cu11d+1      5Cu11d+2      5Cu1f-3       5Cu1f-2       5Cu1f-1       5Cu1f0    
  117    5Cu1f+1       5Cu1f+2       5Cu1f+3       5Cu2f-3       5Cu2f-2       5Cu2f-1       5Cu2f0        5Cu2f+1       5Cu2f+2       5Cu2f+3   
  118    5Cu3f-3       5Cu3f-2       5Cu3f-1       5Cu3f0        5Cu3f+1       5Cu3f+2       5Cu3f+3       5Cu4f-3       5Cu4f-2       5Cu4f-1   
  119    5Cu4f0        5Cu4f+1       5Cu4f+2       5Cu4f+3       5Cu5f-3       5Cu5f-2       5Cu5f-1       5Cu5f0        5Cu5f+1       5Cu5f+2   
  120    5Cu5f+3       5Cu6f-3       5Cu6f-2       5Cu6f-1       5Cu6f0        5Cu6f+1       5Cu6f+2       5Cu6f+3       5Cu7f-3       5Cu7f-2   
  121    5Cu7f-1       5Cu7f0        5Cu7f+1       5Cu7f+2       5Cu7f+3       5Cu8f-3       5Cu8f-2       5Cu8f-1       5Cu8f0        5Cu8f+1   
  122    5Cu8f+2       5Cu8f+3       5Cu9f-3       5Cu9f-2       5Cu9f-1       5Cu9f0        5Cu9f+1       5Cu9f+2       5Cu9f+3       5Cu1g-4   
  123    5Cu1g-3       5Cu1g-2       5Cu1g-1       5Cu1g0        5Cu1g+1       5Cu1g+2       5Cu1g+3       5Cu1g+4       5Cu2g-4       5Cu2g-3   
  124    5Cu2g-2       5Cu2g-1       5Cu2g0        5Cu2g+1       5Cu2g+2       5Cu2g+3       5Cu2g+4       5Cu3g-4       5Cu3g-3       5Cu3g-2   
  125    5Cu3g-1       5Cu3g0        5Cu3g+1       5Cu3g+2       5Cu3g+3       5Cu3g+4       5Cu4g-4       5Cu4g-3       5Cu4g-2       5Cu4g-1   
  126    5Cu4g0        5Cu4g+1       5Cu4g+2       5Cu4g+3       5Cu4g+4       5Cu5g-4       5Cu5g-3       5Cu5g-2       5Cu5g-1       5Cu5g0    
  127    5Cu5g+1       5Cu5g+2       5Cu5g+3       5Cu5g+4       5Cu1h-5       5Cu1h-4       5Cu1h-3       5Cu1h-2       5Cu1h-1       5Cu1h0    
  128    5Cu1h+1       5Cu1h+2       5Cu1h+3       5Cu1h+4       5Cu1h+5       5Cu2h-5       5Cu2h-4       5Cu2h-3       5Cu2h-2       5Cu2h-1   
  129    5Cu2h0        5Cu2h+1       5Cu2h+2       5Cu2h+3       5Cu2h+4       5Cu2h+5       5Cu3h-5       5Cu3h-4       5Cu3h-3       5Cu3h-2   
  130    5Cu3h-1       5Cu3h0        5Cu3h+1       5Cu3h+2       5Cu3h+3       5Cu3h+4       5Cu3h+5       5Cu1i-6       5Cu1i-5       5Cu1i-4   
  131    5Cu1i-3       5Cu1i-2       5Cu1i-1       5Cu1i0        5Cu1i+1       5Cu1i+2       5Cu1i+3       5Cu1i+4       5Cu1i+5       5Cu1i+6   
  132    6Cu1s         6Cu2s         6Cu3s         6Cu4s         6Cu5s         6Cu6s         6Cu7s         6Cu8s         6Cu9s         6Cu10s    
  133    6Cu11s        6Cu12s        6Cu13s        6Cu14s        6Cu15s        6Cu16s        6Cu1pz        6Cu1py        6Cu1px        6Cu2pz    
  134    6Cu2py        6Cu2px        6Cu3pz        6Cu3py        6Cu3px        6Cu4pz        6Cu4py        6Cu4px        6Cu5pz        6Cu5py    
  135    6Cu5px        6Cu6pz        6Cu6py        6Cu6px        6Cu7pz        6Cu7py        6Cu7px        6Cu8pz        6Cu8py        6Cu8px    
  136    6Cu9pz        6Cu9py        6Cu9px        6Cu10pz       6Cu10py       6Cu10px       6Cu11pz       6Cu11py       6Cu11px       6Cu12pz   
  137    6Cu12py       6Cu12px       6Cu13pz       6Cu13py       6Cu13px       6Cu1d-2       6Cu1d-1       6Cu1d0        6Cu1d+1       6Cu1d+2   
  138    6Cu2d-2       6Cu2d-1       6Cu2d0        6Cu2d+1       6Cu2d+2       6Cu3d-2       6Cu3d-1       6Cu3d0        6Cu3d+1       6Cu3d+2   
  139    6Cu4d-2       6Cu4d-1       6Cu4d0        6Cu4d+1       6Cu4d+2       6Cu5d-2       6Cu5d-1       6Cu5d0        6Cu5d+1       6Cu5d+2   
  140    6Cu6d-2       6Cu6d-1       6Cu6d0        6Cu6d+1       6Cu6d+2       6Cu7d-2       6Cu7d-1       6Cu7d0        6Cu7d+1       6Cu7d+2   
  141    6Cu8d-2       6Cu8d-1       6Cu8d0        6Cu8d+1       6Cu8d+2       6Cu9d-2       6Cu9d-1       6Cu9d0        6Cu9d+1       6Cu9d+2   
  142    6Cu10d-2      6Cu10d-1      6Cu10d0       6Cu10d+1      6Cu10d+2      6Cu11d-2      6Cu11d-1      6Cu11d0       6Cu11d+1      6Cu11d+2  
  143    6Cu1f-3       6Cu1f-2       6Cu1f-1       6Cu1f0        6Cu1f+1       6Cu1f+2       6Cu1f+3       6Cu2f-3       6Cu2f-2       6Cu2f-1   
  144    6Cu2f0        6Cu2f+1       6Cu2f+2       6Cu2f+3       6Cu3f-3       6Cu3f-2       6Cu3f-1       6Cu3f0        6Cu3f+1       6Cu3f+2   
  145    6Cu3f+3       6Cu4f-3       6Cu4f-2       6Cu4f-1       6Cu4f0        6Cu4f+1       6Cu4f+2       6Cu4f+3       6Cu5f-3       6Cu5f-2   
  146    6Cu5f-1       6Cu5f0        6Cu5f+1       6Cu5f+2       6Cu5f+3       6Cu6f-3       6Cu6f-2       6Cu6f-1       6Cu6f0        6Cu6f+1   
  147    6Cu6f+2       6Cu6f+3       6Cu7f-3       6Cu7f-2       6Cu7f-1       6Cu7f0        6Cu7f+1       6Cu7f+2       6Cu7f+3       6Cu8f-3   
  148    6Cu8f-2       6Cu8f-1       6Cu8f0        6Cu8f+1       6Cu8f+2       6Cu8f+3       6Cu9f-3       6Cu9f-2       6Cu9f-1       6Cu9f0    
  149    6Cu9f+1       6Cu9f+2       6Cu9f+3       6Cu1g-4       6Cu1g-3       6Cu1g-2       6Cu1g-1       6Cu1g0        6Cu1g+1       6Cu1g+2   
  150    6Cu1g+3       6Cu1g+4       6Cu2g-4       6Cu2g-3       6Cu2g-2       6Cu2g-1       6Cu2g0        6Cu2g+1       6Cu2g+2       6Cu2g+3   
  151    6Cu2g+4       6Cu3g-4       6Cu3g-3       6Cu3g-2       6Cu3g-1       6Cu3g0        6Cu3g+1       6Cu3g+2       6Cu3g+3       6Cu3g+4   
  152    6Cu4g-4       6Cu4g-3       6Cu4g-2       6Cu4g-1       6Cu4g0        6Cu4g+1       6Cu4g+2       6Cu4g+3       6Cu4g+4       6Cu5g-4   
  153    6Cu5g-3       6Cu5g-2       6Cu5g-1       6Cu5g0        6Cu5g+1       6Cu5g+2       6Cu5g+3       6Cu5g+4       6Cu1h-5       6Cu1h-4   
  154    6Cu1h-3       6Cu1h-2       6Cu1h-1       6Cu1h0        6Cu1h+1       6Cu1h+2       6Cu1h+3       6Cu1h+4       6Cu1h+5       6Cu2h-5   
  155    6Cu2h-4       6Cu2h-3       6Cu2h-2       6Cu2h-1       6Cu2h0        6Cu2h+1       6Cu2h+2       6Cu2h+3       6Cu2h+4       6Cu2h+5   
  156    6Cu3h-5       6Cu3h-4       6Cu3h-3       6Cu3h-2       6Cu3h-1       6Cu3h0        6Cu3h+1       6Cu3h+2       6Cu3h+3       6Cu3h+4   
  157    6Cu3h+5       6Cu1i-6       6Cu1i-5       6Cu1i-4       6Cu1i-3       6Cu1i-2       6Cu1i-1       6Cu1i0        6Cu1i+1       6Cu1i+2   
  158    6Cu1i+3       6Cu1i+4       6Cu1i+5       6Cu1i+6       7Cu1s         7Cu2s         7Cu3s         7Cu4s         7Cu5s         7Cu6s     
  159    7Cu7s         7Cu8s         7Cu9s         7Cu10s        7Cu11s        7Cu12s        7Cu13s        7Cu14s        7Cu15s        7Cu16s    
  160    7Cu1pz        7Cu1py        7Cu1px        7Cu2pz        7Cu2py        7Cu2px        7Cu3pz        7Cu3py        7Cu3px        7Cu4pz    
  161    7Cu4py        7Cu4px        7Cu5pz        7Cu5py        7Cu5px        7Cu6pz        7Cu6py        7Cu6px        7Cu7pz        7Cu7py    
  162    7Cu7px        7Cu8pz        7Cu8py        7Cu8px        7Cu9pz        7Cu9py        7Cu9px        7Cu10pz       7Cu10py       7Cu10px   
  163    7Cu11pz       7Cu11py       7Cu11px       7Cu12pz       7Cu12py       7Cu12px       7Cu13pz       7Cu13py       7Cu13px       7Cu1d-2   
  164    7Cu1d-1       7Cu1d0        7Cu1d+1       7Cu1d+2       7Cu2d-2       7Cu2d-1       7Cu2d0        7Cu2d+1       7Cu2d+2       7Cu3d-2   
  165    7Cu3d-1       7Cu3d0        7Cu3d+1       7Cu3d+2       7Cu4d-2       7Cu4d-1       7Cu4d0        7Cu4d+1       7Cu4d+2       7Cu5d-2   
  166    7Cu5d-1       7Cu5d0        7Cu5d+1       7Cu5d+2       7Cu6d-2       7Cu6d-1       7Cu6d0        7Cu6d+1       7Cu6d+2       7Cu7d-2   
  167    7Cu7d-1       7Cu7d0        7Cu7d+1       7Cu7d+2       7Cu8d-2       7Cu8d-1       7Cu8d0        7Cu8d+1       7Cu8d+2       7Cu9d-2   
  168    7Cu9d-1       7Cu9d0        7Cu9d+1       7Cu9d+2       7Cu10d-2      7Cu10d-1      7Cu10d0       7Cu10d+1      7Cu10d+2      7Cu11d-2  
  169    7Cu11d-1      7Cu11d0       7Cu11d+1      7Cu11d+2      7Cu1f-3       7Cu1f-2       7Cu1f-1       7Cu1f0        7Cu1f+1       7Cu1f+2   
  170    7Cu1f+3       7Cu2f-3       7Cu2f-2       7Cu2f-1       7Cu2f0        7Cu2f+1       7Cu2f+2       7Cu2f+3       7Cu3f-3       7Cu3f-2   
  171    7Cu3f-1       7Cu3f0        7Cu3f+1       7Cu3f+2       7Cu3f+3       7Cu4f-3       7Cu4f-2       7Cu4f-1       7Cu4f0        7Cu4f+1   
  172    7Cu4f+2       7Cu4f+3       7Cu5f-3       7Cu5f-2       7Cu5f-1       7Cu5f0        7Cu5f+1       7Cu5f+2       7Cu5f+3       7Cu6f-3   
  173    7Cu6f-2       7Cu6f-1       7Cu6f0        7Cu6f+1       7Cu6f+2       7Cu6f+3       7Cu7f-3       7Cu7f-2       7Cu7f-1       7Cu7f0    
  174    7Cu7f+1       7Cu7f+2       7Cu7f+3       7Cu8f-3       7Cu8f-2       7Cu8f-1       7Cu8f0        7Cu8f+1       7Cu8f+2       7Cu8f+3   
  175    7Cu9f-3       7Cu9f-2       7Cu9f-1       7Cu9f0        7Cu9f+1       7Cu9f+2       7Cu9f+3       7Cu1g-4       7Cu1g-3       7Cu1g-2   
  176    7Cu1g-1       7Cu1g0        7Cu1g+1       7Cu1g+2       7Cu1g+3       7Cu1g+4       7Cu2g-4       7Cu2g-3       7Cu2g-2       7Cu2g-1   
  177    7Cu2g0        7Cu2g+1       7Cu2g+2       7Cu2g+3       7Cu2g+4       7Cu3g-4       7Cu3g-3       7Cu3g-2       7Cu3g-1       7Cu3g0    
  178    7Cu3g+1       7Cu3g+2       7Cu3g+3       7Cu3g+4       7Cu4g-4       7Cu4g-3       7Cu4g-2       7Cu4g-1       7Cu4g0        7Cu4g+1   
  179    7Cu4g+2       7Cu4g+3       7Cu4g+4       7Cu5g-4       7Cu5g-3       7Cu5g-2       7Cu5g-1       7Cu5g0        7Cu5g+1       7Cu5g+2   
  180    7Cu5g+3       7Cu5g+4       7Cu1h-5       7Cu1h-4       7Cu1h-3       7Cu1h-2       7Cu1h-1       7Cu1h0        7Cu1h+1       7Cu1h+2   
  181    7Cu1h+3       7Cu1h+4       7Cu1h+5       7Cu2h-5       7Cu2h-4       7Cu2h-3       7Cu2h-2       7Cu2h-1       7Cu2h0        7Cu2h+1   
  182    7Cu2h+2       7Cu2h+3       7Cu2h+4       7Cu2h+5       7Cu3h-5       7Cu3h-4       7Cu3h-3       7Cu3h-2       7Cu3h-1       7Cu3h0    
  183    7Cu3h+1       7Cu3h+2       7Cu3h+3       7Cu3h+4       7Cu3h+5       7Cu1i-6       7Cu1i-5       7Cu1i-4       7Cu1i-3       7Cu1i-2   
  184    7Cu1i-1       7Cu1i0        7Cu1i+1       7Cu1i+2       7Cu1i+3       7Cu1i+4       7Cu1i+5       7Cu1i+6       8Cu1s         8Cu2s     
  185    8Cu3s         8Cu4s         8Cu5s         8Cu6s         8Cu7s         8Cu8s         8Cu9s         8Cu10s        8Cu11s        8Cu12s    
  186    8Cu13s        8Cu14s        8Cu15s        8Cu16s        8Cu1pz        8Cu1py        8Cu1px        8Cu2pz        8Cu2py        8Cu2px    
  187    8Cu3pz        8Cu3py        8Cu3px        8Cu4pz        8Cu4py        8Cu4px        8Cu5pz        8Cu5py        8Cu5px        8Cu6pz    
  188    8Cu6py        8Cu6px        8Cu7pz        8Cu7py        8Cu7px        8Cu8pz        8Cu8py        8Cu8px        8Cu9pz        8Cu9py    
  189    8Cu9px        8Cu10pz       8Cu10py       8Cu10px       8Cu11pz       8Cu11py       8Cu11px       8Cu12pz       8Cu12py       8Cu12px   
  190    8Cu13pz       8Cu13py       8Cu13px       8Cu1d-2       8Cu1d-1       8Cu1d0        8Cu1d+1       8Cu1d+2       8Cu2d-2       8Cu2d-1   
  191    8Cu2d0        8Cu2d+1       8Cu2d+2       8Cu3d-2       8Cu3d-1       8Cu3d0        8Cu3d+1       8Cu3d+2       8Cu4d-2       8Cu4d-1   
  192    8Cu4d0        8Cu4d+1       8Cu4d+2       8Cu5d-2       8Cu5d-1       8Cu5d0        8Cu5d+1       8Cu5d+2       8Cu6d-2       8Cu6d-1   
  193    8Cu6d0        8Cu6d+1       8Cu6d+2       8Cu7d-2       8Cu7d-1       8Cu7d0        8Cu7d+1       8Cu7d+2       8Cu8d-2       8Cu8d-1   
  194    8Cu8d0        8Cu8d+1       8Cu8d+2       8Cu9d-2       8Cu9d-1       8Cu9d0        8Cu9d+1       8Cu9d+2       8Cu10d-2      8Cu10d-1  
  195    8Cu10d0       8Cu10d+1      8Cu10d+2      8Cu11d-2      8Cu11d-1      8Cu11d0       8Cu11d+1      8Cu11d+2      8Cu1f-3       8Cu1f-2   
  196    8Cu1f-1       8Cu1f0        8Cu1f+1       8Cu1f+2       8Cu1f+3       8Cu2f-3       8Cu2f-2       8Cu2f-1       8Cu2f0        8Cu2f+1   
  197    8Cu2f+2       8Cu2f+3       8Cu3f-3       8Cu3f-2       8Cu3f-1       8Cu3f0        8Cu3f+1       8Cu3f+2       8Cu3f+3       8Cu4f-3   
  198    8Cu4f-2       8Cu4f-1       8Cu4f0        8Cu4f+1       8Cu4f+2       8Cu4f+3       8Cu5f-3       8Cu5f-2       8Cu5f-1       8Cu5f0    
  199    8Cu5f+1       8Cu5f+2       8Cu5f+3       8Cu6f-3       8Cu6f-2       8Cu6f-1       8Cu6f0        8Cu6f+1       8Cu6f+2       8Cu6f+3   
  200    8Cu7f-3       8Cu7f-2       8Cu7f-1       8Cu7f0        8Cu7f+1       8Cu7f+2       8Cu7f+3       8Cu8f-3       8Cu8f-2       8Cu8f-1   
  201    8Cu8f0        8Cu8f+1       8Cu8f+2       8Cu8f+3       8Cu9f-3       8Cu9f-2       8Cu9f-1       8Cu9f0        8Cu9f+1       8Cu9f+2   
  202    8Cu9f+3       8Cu1g-4       8Cu1g-3       8Cu1g-2       8Cu1g-1       8Cu1g0        8Cu1g+1       8Cu1g+2       8Cu1g+3       8Cu1g+4   
  203    8Cu2g-4       8Cu2g-3       8Cu2g-2       8Cu2g-1       8Cu2g0        8Cu2g+1       8Cu2g+2       8Cu2g+3       8Cu2g+4       8Cu3g-4   
  204    8Cu3g-3       8Cu3g-2       8Cu3g-1       8Cu3g0        8Cu3g+1       8Cu3g+2       8Cu3g+3       8Cu3g+4       8Cu4g-4       8Cu4g-3   
  205    8Cu4g-2       8Cu4g-1       8Cu4g0        8Cu4g+1       8Cu4g+2       8Cu4g+3       8Cu4g+4       8Cu5g-4       8Cu5g-3       8Cu5g-2   
  206    8Cu5g-1       8Cu5g0        8Cu5g+1       8Cu5g+2       8Cu5g+3       8Cu5g+4       8Cu1h-5       8Cu1h-4       8Cu1h-3       8Cu1h-2   
  207    8Cu1h-1       8Cu1h0        8Cu1h+1       8Cu1h+2       8Cu1h+3       8Cu1h+4       8Cu1h+5       8Cu2h-5       8Cu2h-4       8Cu2h-3   
  208    8Cu2h-2       8Cu2h-1       8Cu2h0        8Cu2h+1       8Cu2h+2       8Cu2h+3       8Cu2h+4       8Cu2h+5       8Cu3h-5       8Cu3h-4   
  209    8Cu3h-3       8Cu3h-2       8Cu3h-1       8Cu3h0        8Cu3h+1       8Cu3h+2       8Cu3h+3       8Cu3h+4       8Cu3h+5       8Cu1i-6   
  210    8Cu1i-5       8Cu1i-4       8Cu1i-3       8Cu1i-2       8Cu1i-1       8Cu1i0        8Cu1i+1       8Cu1i+2       8Cu1i+3       8Cu1i+4   
  211    8Cu1i+5       8Cu1i+6   
 
 Maximum number of basis functions per shell:   63
 Total number of basis functions:   2112
 
 
 Effective core potentials:
 
   1  Cu mcdhf-ecp-10        
   2  Cu mcdhf-ecp-10        
   3  Cu mcdhf-ecp-10        
   4  Cu mcdhf-ecp-10        
   5  Cu mcdhf-ecp-10        
   6  Cu mcdhf-ecp-10        
   7  Cu mcdhf-ecp-10        
   8  Cu mcdhf-ecp-10        
 
 Initializing the SAD routines for the initial guess...
 Checking the files required for the initial guess...
 Density files have not been found for the initial guess.
 Generating SCFDENSITIES.Cu.def2-svp.0
 CPU time [min]:     0.120                   Wall time [min]:     0.154
 
 Character table for point group C1:
 
          E  
    A     1
 
 Number of basis functions per irrep:
    A     248
 
 
 Calculation of overlap integrals...
 CPU time [min]:     0.122                   Wall time [min]:     0.155
 
 Calculation of the square root of the overlap matrix...
 Minimum eigenvalue of the overlap matrix: 0.185863E-01
 CPU time [min]:     0.151                   Wall time [min]:     0.156
 
 Calculation of kinetic energy integrals...
 CPU time [min]:     0.153                   Wall time [min]:     0.156
 Calculation of dipole moment integrals...
 CPU time [min]:     0.156                   Wall time [min]:     0.156
 Calculation of nuclear attraction integrals...
 CPU time [min]:     0.159                   Wall time [min]:     0.156
 Calculation of core potential integrals...
 CPU time [min]:     0.391                   Wall time [min]:     0.275
 
 Calculation of prescreening integrals...
 CPU time [min]:     1.617                   Wall time [min]:     0.310
 
 Calculation of two-center Coulomb integrals...
   1% done.
  12% done.
  23% done.
  34% done.
  46% done.
  57% done.
  69% done.
  81% done.
  92% done.
 100% done.
 CPU time [min]:     1.647                   Wall time [min]:     0.311
 
 Cholesky decomposition of the two-center matrix...
 Reciprocal of the condition number:  0.812770E-06
 Warning! Ill-conditioned two-center integral matrix.
 This may result in convergence problems.
 CPU time [min]:     1.786                   Wall time [min]:     0.315
 
 
 Running small-basis SCF...

 ************************ 2022-12-22 19:35:33 *************************
 Executing scf...

 @scfsetup: integrals calculated directly
            mrcc/integ direct run
 @scfsetup: calculating on full matrices
            not using symmetry adapted basis
 @scfsetup: diis switched on
 @scfsetup: number of steps to extrapolate from  10
 @scfsetup: tolerance in energy deviation    0.100000E-05
            tolerance in density deviation    0.100000E-06
 @scfsetup: maximum number of iterations:  50
 @scfsetup: restricted closed shell hf calc
 @scfsetup: starting scf from superposition of atomic densities
 @scfsetup: occupation set:
            from initial orbitals
 @scfsetup: Parameter-set for SCF acceleration: difficult
 @scfsetup: diis runs from iteration:   2
 @scfsetup: diis runs to iteration:  50
 @scfsetup: diis runs in every iteration
 @scfsetup: diiswatch is disabled                   
 @scfsetup: diis dtol criteria to switch on:      0.0000E+00
           (or the iteration number below is reached)
 @scfsetup: damping is turned off.
 @scfsetup: dynamic level shifting
            tolarance in HOMO-LUMO gap:  0.200
            tolarance in density deviation:     0.0000E+00
            iteration step criteria to turn level shifting off: 8
 Allocation of 220.0 Gbytes of memory...
 ======================================================================
 ITERATION STEP   1
 CPU time [min]:     0.040                   Wall time [min]:     0.005
 

 SCF control                  : initial
 Damping factor/level shift   : 0.000/0.200
 DIIS [start/end/frequency]   :   2 / 50 /  1

 Constructing Fock-matrix...
 
 Pipek-Mezey localization...
 Step  Convergence
   1  84.467552848393
   2  24.984911684974
   3   5.251260473090
   4   0.582093612687
   5   0.034684896733
   6   0.000048132742
   7   0.000000401304
 CPU time [min]:     0.076                   Wall time [min]:     0.006
 
 Constructing local fitting domains...
 Maximum number of atoms in fitting domains:    8
 Average number of atoms in fitting domains:    8.0
 
 First step of Coulomb + first step of exchange...
 Exchange contribution is evaluated for MOs 1 to 76.
   1% done.
  12% done.
  25% done.
  36% done.
  47% done.
  59% done.
  72% done.
  87% done.
 100% done.
 CPU time [min]:     0.796                   Wall time [min]:     0.026
 
 Fitting and assembly step of exchange...
 CPU time [min]:     0.896                   Wall time [min]:     0.030
 
 Second step of Coulomb...
   1% done.
  12% done.
  25% done.
  36% done.
  47% done.
  59% done.
  72% done.
  87% done.
 100% done.
 CPU time [min]:     1.037                   Wall time [min]:     0.034
 
 Gradient norm:      5.9922E+00
 RMS of [F,P]:                                         0.05379818013461
 RMS of difference density:                            0.27791351163174
 Gap [au]:  0.00003714
 ALPHA OCC:  76
 BETA  OCC:  76
 
 ***HARTREE-FOCK ENERGY IN STEP   1 IS      -1537.1969430234448737 [AU]
 ======================================================================
 ITERATION STEP   2
 CPU time [min]:     1.055                   Wall time [min]:     0.034
 

 SCF control                  : diis
 Damping factor/level shift   : 0.000/0.200
 DIIS [start/end/frequency]   :   2 / 50 /  1

 Constructing Fock-matrix...
 Inverse square root: The matrix is not positive definite!
 
 Pipek-Mezey localization...
 Step  Convergence
   1  55.439829402092
   2  17.738572246324
   3   5.056410938024
   4   0.466856039994
   5   0.100839765590
   6   0.059991417921
   7   0.076217904042
   8   0.059204940053
   9   0.041238055443
  10   0.030206507989
  11   0.021278166300
  12   0.016137154406
  13   0.014110611880
  14   0.015052078632
  15   0.016774957203
  16   0.015884853746
  17   0.011945422550
  18   0.007193848946
  19   0.004229255643
  20   0.002513369858
  21   0.001477949677
  22   0.000860534035
  23   0.000544861376
  24   0.000330323433
  25   0.000204498472
  26   0.000124700662
  27   0.000079097369
  28   0.000049548181
  29   0.000030002596
  30   0.000020283018
  31   0.000012838882
  32   0.000007821066
  33   0.000005430802
  34   0.000003315393
  35   0.000002313198
  36   0.000001495657
  37   0.000000928153
 CPU time [min]:     1.160                   Wall time [min]:     0.037
 
 Constructing local fitting domains...
 Maximum number of atoms in fitting domains:    8
 Average number of atoms in fitting domains:    8.0
 
 First step of Coulomb + first step of exchange...
 Exchange contribution is evaluated for MOs 1 to 76.
   1% done.
  12% done.
  25% done.
  36% done.
  47% done.
  59% done.
  72% done.
  87% done.
 100% done.
 CPU time [min]:     1.813                   Wall time [min]:     0.055
 
 Fitting and assembly step of exchange...
 CPU time [min]:     1.909                   Wall time [min]:     0.058
 
 Second step of Coulomb...
   1% done.
  12% done.
  25% done.
  36% done.
  47% done.
  59% done.
  72% done.
  87% done.
 100% done.
 CPU time [min]:     2.047                   Wall time [min]:     0.062
 
 Gradient norm:      6.0240E+00
 DIIS is running in this iteration step.
 RMS of [F,P]:                                         0.12172397776294
 RMS of difference density:                            0.27767352766608
 Gap [au]:  0.05469033
 ALPHA OCC:  76
 BETA  OCC:  76
 
 ***HARTREE-FOCK ENERGY IN STEP   2 IS      -1486.9620742173729013 [AU]
 
 Step comparison  Energy Drift [au]  DIIS error drift  Gradient drift
        1           -5.0235E+01        -6.7926E-02      -3.1834E-02
        2            1.4870E+03         1.0000E-07      -3.1834E-02
 Warning! The energy goes uphill (with respect to previous step).
 Warning! The gradient goes uphill (with respect to previous step).
 Warning! The gradient goes uphill (with respect to step   1 ).
 ======================================================================
 ITERATION STEP   3
 CPU time [min]:     2.064                   Wall time [min]:     0.062
 

 SCF control                  : diis
 Damping factor/level shift   : 0.000/0.200
 DIIS [start/end/frequency]   :   2 / 50 /  1

 Constructing Fock-matrix...
 Inverse square root: The matrix is not positive definite!
 
 Pipek-Mezey localization...
 Step  Convergence
   1  30.552546772388
   2   5.035766905603
   3   0.383385536981
   4   0.003179822401
   5   0.000000003092
 CPU time [min]:     2.096                   Wall time [min]:     0.063
 
 Constructing local fitting domains...
 Local fitting domains are unchanged.
 
 First step of Coulomb + first step of exchange...
 Exchange contribution is evaluated for MOs 1 to 76.
   1% done.
  12% done.
  25% done.
  36% done.
  47% done.
  59% done.
  72% done.
  87% done.
 100% done.
 CPU time [min]:     2.749                   Wall time [min]:     0.081
 
 Fitting and assembly step of exchange...
 CPU time [min]:     2.845                   Wall time [min]:     0.084
 
 Second step of Coulomb...
   1% done.
  12% done.
  25% done.
  36% done.
  47% done.
  59% done.
  72% done.
  87% done.
 100% done.
 CPU time [min]:     2.982                   Wall time [min]:     0.088
 
 Gradient norm:      2.3375E+00
 DIIS is running in this iteration step.
 RMS of [F,P]:                                         0.07139170774473
 RMS of difference density:                            0.03178685977667
 Gap [au]:  0.11456281
 ALPHA OCC:  76
 BETA  OCC:  76
 
 ***HARTREE-FOCK ENERGY IN STEP   3 IS      -1531.2318970863425420 [AU]
 
 Step comparison  Energy Drift [au]  DIIS error drift  Gradient drift
        2            4.4270E+01         5.0332E-02       3.6865E+00
 ======================================================================
 ITERATION STEP   4
 CPU time [min]:     2.997                   Wall time [min]:     0.088
 

 SCF control                  : diis
 Damping factor/level shift   : 0.000/0.200
 DIIS [start/end/frequency]   :   2 / 50 /  1

 Constructing Fock-matrix...
 
 Pipek-Mezey localization...
 Step  Convergence
   1  16.975164430131
   2   6.324730166575
   3   0.193246748747
   4   0.000802846358
   5   0.000000028286
 CPU time [min]:     3.028                   Wall time [min]:     0.089
 
 Constructing local fitting domains...
 Local fitting domains are unchanged.
 
 First step of Coulomb + first step of exchange...
 Exchange contribution is evaluated for MOs 1 to 76.
   1% done.
  12% done.
  25% done.
  36% done.
  47% done.
  59% done.
  72% done.
  87% done.
 100% done.
 CPU time [min]:     3.683                   Wall time [min]:     0.107
 
 Fitting and assembly step of exchange...
 CPU time [min]:     3.779                   Wall time [min]:     0.110
 
 Second step of Coulomb...
   1% done.
  12% done.
  25% done.
  36% done.
  47% done.
  59% done.
  72% done.
  87% done.
 100% done.
 CPU time [min]:     3.916                   Wall time [min]:     0.114
 
 Gradient norm:      1.1614E+00
 DIIS is running in this iteration step.
 RMS of [F,P]:                                         0.02051224025836
 RMS of difference density:                            0.01469804221611
 Gap [au]:  0.17180912
 ALPHA OCC:  76
 BETA  OCC:  76
 
 ***HARTREE-FOCK ENERGY IN STEP   4 IS      -1552.0214603920858281 [AU]
 
 Step comparison  Energy Drift [au]  DIIS error drift  Gradient drift
        3            2.0790E+01         5.0879E-02       1.1761E+00
 ======================================================================
 ITERATION STEP   5
 CPU time [min]:     3.931                   Wall time [min]:     0.114
 

 SCF control                  : diis
 Damping factor/level shift   : 0.000/0.200
 DIIS [start/end/frequency]   :   2 / 50 /  1

 Constructing Fock-matrix...
 
 Pipek-Mezey localization...
 Step  Convergence
   1  16.953369006761
   2   5.556769049500
   3   0.048878281170
   4   0.000013557946
   5   0.000000004799
 CPU time [min]:     3.963                   Wall time [min]:     0.115
 
 Constructing local fitting domains...
 Local fitting domains are unchanged.
 
 First step of Coulomb + first step of exchange...
 Exchange contribution is evaluated for MOs 1 to 76.
   1% done.
  12% done.
  25% done.
  36% done.
  47% done.
  59% done.
  72% done.
  87% done.
 100% done.
 CPU time [min]:     4.616                   Wall time [min]:     0.134
 
 Fitting and assembly step of exchange...
 CPU time [min]:     4.713                   Wall time [min]:     0.136
 
 Second step of Coulomb...
   1% done.
  12% done.
  25% done.
  36% done.
  47% done.
  59% done.
  72% done.
  87% done.
 100% done.
 CPU time [min]:     4.850                   Wall time [min]:     0.140
 
 Gradient norm:      2.8210E-01
 DIIS is running in this iteration step.
 RMS of [F,P]:                                         0.00542596418987
 RMS of difference density:                            0.00522318916782
 Gap [au]:  0.18130932
 ALPHA OCC:  76
 BETA  OCC:  76
 
 ***HARTREE-FOCK ENERGY IN STEP   5 IS      -1554.0137694933982857 [AU]
 
 Step comparison  Energy Drift [au]  DIIS error drift  Gradient drift
        4            1.9923E+00         1.5086E-02       8.7929E-01
 ======================================================================
 ITERATION STEP   6
 CPU time [min]:     4.865                   Wall time [min]:     0.141
 

 SCF control                  : diis
 Damping factor/level shift   : 0.000/0.200
 DIIS [start/end/frequency]   :   2 / 50 /  1

 Constructing Fock-matrix...
 
 Pipek-Mezey localization...
 Step  Convergence
   1  18.587896716950
   2   7.118129513387
   3   0.058358961544
   4   0.000011928962
   5   0.000000001731
 CPU time [min]:     4.896                   Wall time [min]:     0.141
 
 Constructing local fitting domains...
 Local fitting domains are unchanged.
 
 First step of Coulomb + first step of exchange...
 Exchange contribution is evaluated for MOs 1 to 76.
   1% done.
  12% done.
  25% done.
  36% done.
  47% done.
  59% done.
  72% done.
  87% done.
 100% done.
 CPU time [min]:     5.549                   Wall time [min]:     0.160
 
 Fitting and assembly step of exchange...
 CPU time [min]:     5.646                   Wall time [min]:     0.162
 
 Second step of Coulomb...
   1% done.
  12% done.
  25% done.
  36% done.
  47% done.
  59% done.
  72% done.
  87% done.
 100% done.
 CPU time [min]:     5.783                   Wall time [min]:     0.166
 
 Gradient norm:      1.1936E-01
 DIIS is running in this iteration step.
 RMS of [F,P]:                                         0.00273409754236
 RMS of difference density:                            0.00275576002416
 Gap [au]:  0.20491717
 ALPHA OCC:  76
 BETA  OCC:  76
 
 ***HARTREE-FOCK ENERGY IN STEP   6 IS      -1554.1593909278408319 [AU]
 
 Step comparison  Energy Drift [au]  DIIS error drift  Gradient drift
        5            1.4562E-01         2.6919E-03       1.6273E-01
 ======================================================================
 ITERATION STEP   7
 CPU time [min]:     5.798                   Wall time [min]:     0.167
 

 SCF control                  : diis
 Damping factor/level shift   : 0.000/0.000
 DIIS [start/end/frequency]   :   2 / 50 /  1

 Constructing Fock-matrix...
 
 Pipek-Mezey localization...
 Step  Convergence
   1  23.109817793121
   2  10.079945664099
   3   2.719742916341
   4   1.654622078483
   5   0.673871128262
   6   0.488033666997
   7   0.057503273943
   8   0.002524470290
   9   0.000287926787
  10   0.000037880167
  11   0.000005687379
  12   0.000000994254
  13   0.000000206515
  14   0.000000049567
 CPU time [min]:     5.850                   Wall time [min]:     0.168
 
 Constructing local fitting domains...
 Local fitting domains are unchanged.
 
 First step of Coulomb + first step of exchange...
 Exchange contribution is evaluated for MOs 1 to 76.
   1% done.
  12% done.
  25% done.
  36% done.
  47% done.
  59% done.
  72% done.
  87% done.
 100% done.
 CPU time [min]:     6.502                   Wall time [min]:     0.186
 
 Fitting and assembly step of exchange...
 CPU time [min]:     6.599                   Wall time [min]:     0.189
 
 Second step of Coulomb...
   1% done.
  12% done.
  25% done.
  36% done.
  47% done.
  59% done.
  72% done.
  87% done.
 100% done.
 CPU time [min]:     6.736                   Wall time [min]:     0.193
 
 Gradient norm:      5.4493E-02
 DIIS is running in this iteration step.
 RMS of [F,P]:                                         0.00067381590096
 RMS of difference density:                            0.00228727386809
 Gap [au]:  0.21506653
 ALPHA OCC:  76
 BETA  OCC:  76
 
 ***HARTREE-FOCK ENERGY IN STEP   7 IS      -1554.2007160590264903 [AU]
 
 Step comparison  Energy Drift [au]  DIIS error drift  Gradient drift
        6            4.1325E-02         2.0603E-03       6.4871E-02
 ======================================================================
 ITERATION STEP   8
 CPU time [min]:     6.751                   Wall time [min]:     0.193
 

 SCF control                  : diis
 Damping factor/level shift   : 0.000/0.000
 DIIS [start/end/frequency]   :   2 / 50 /  1

 Constructing Fock-matrix...
 
 Pipek-Mezey localization...
 Step  Convergence
   1  31.814130030204
   2  12.830368284056
   3  11.515513432345
   4   2.705560013806
   5   0.162660226417
   6   0.001511199341
   7   0.000061430227
   8   0.000004826287
   9   0.000000473567
  10   0.000000063290
  11   0.000000009314
 CPU time [min]:     6.796                   Wall time [min]:     0.194
 
 Constructing local fitting domains...
 Local fitting domains are unchanged.
 
 First step of Coulomb + first step of exchange...
 Exchange contribution is evaluated for MOs 1 to 76.
   1% done.
  12% done.
  25% done.
  36% done.
  47% done.
  59% done.
  72% done.
  87% done.
 100% done.
 CPU time [min]:     7.449                   Wall time [min]:     0.213
 
 Fitting and assembly step of exchange...
 CPU time [min]:     7.545                   Wall time [min]:     0.215
 
 Second step of Coulomb...
   1% done.
  12% done.
  25% done.
  36% done.
  47% done.
  59% done.
  72% done.
  87% done.
 100% done.
 CPU time [min]:     7.682                   Wall time [min]:     0.219
 
 Gradient norm:      1.6764E-02
 DIIS is running in this iteration step.
 RMS of [F,P]:                                         0.00019513303932
 RMS of difference density:                            0.00053813979550
 Gap [au]:  0.21224317
 ALPHA OCC:  76
 BETA  OCC:  76
 
 ***HARTREE-FOCK ENERGY IN STEP   8 IS      -1554.2115536527599033 [AU]
 
 Step comparison  Energy Drift [au]  DIIS error drift  Gradient drift
        7            1.0838E-02         4.7868E-04       3.7729E-02
 ======================================================================
 ITERATION STEP   9
 CPU time [min]:     7.698                   Wall time [min]:     0.220
 

 SCF control                  : diis
 Damping factor/level shift   : 0.000/0.000
 DIIS [start/end/frequency]   :   2 / 50 /  1

 Constructing Fock-matrix...
 
 Pipek-Mezey localization...
 Step  Convergence
   1  29.742903735914
   2  11.811789709300
   3  17.430840071491
   4   3.717061312419
   5   1.144925298173
   6   0.144971119944
   7   0.026793736530
   8   0.003556422244
   9   0.001327339321
  10   0.000629921315
  11   0.000311443146
  12   0.000155536864
  13   0.000077526713
  14   0.000038611861
  15   0.000019333481
  16   0.000009645030
  17   0.000004777591
  18   0.000002382397
  19   0.000001190030
  20   0.000000595322
  21   0.000000297941
  22   0.000000149332
  23   0.000000074386
  24   0.000000037089
  25   0.000000018651
  26   0.000000009297
  27   0.000000004667
  28   0.000000002325
  29   0.000000001168
  30   0.000000000587
 CPU time [min]:     7.786                   Wall time [min]:     0.222
 
 Constructing local fitting domains...
 Local fitting domains are unchanged.
 
 First step of Coulomb + first step of exchange...
 Exchange contribution is evaluated for MOs 1 to 76.
   1% done.
  12% done.
  25% done.
  36% done.
  47% done.
  59% done.
  72% done.
  87% done.
 100% done.
 CPU time [min]:     8.439                   Wall time [min]:     0.240
 
 Fitting and assembly step of exchange...
 CPU time [min]:     8.536                   Wall time [min]:     0.243
 
 Second step of Coulomb...
   1% done.
  12% done.
  25% done.
  36% done.
  47% done.
  59% done.
  72% done.
  87% done.
 100% done.
 CPU time [min]:     8.673                   Wall time [min]:     0.247
 
 Gradient norm:      1.0894E-02
 DIIS is running in this iteration step.
 RMS of [F,P]:                                         0.00010896603999
 RMS of difference density:                            0.00040098758810
 Gap [au]:  0.21232141
 ALPHA OCC:  76
 BETA  OCC:  76
 
 ***HARTREE-FOCK ENERGY IN STEP   9 IS      -1554.2126185802308100 [AU]
 
 Step comparison  Energy Drift [au]  DIIS error drift  Gradient drift
        8            1.0649E-03         8.6167E-05       5.8704E-03
 ======================================================================
 ITERATION STEP  10
 CPU time [min]:     8.688                   Wall time [min]:     0.247
 

 SCF control                  : diis
 Damping factor/level shift   : 0.000/0.000
 DIIS [start/end/frequency]   :   2 / 50 /  1

 Constructing Fock-matrix...
 
 Pipek-Mezey localization...
 Step  Convergence
   1  26.311060869480
   2  10.027374767607
   3  18.584144876571
   4   5.504049874781
   5   0.522866298611
   6   0.061863191615
   7   0.017306643619
   8   0.004280927460
   9   0.001145230245
  10   0.000358848432
  11   0.000124467010
  12   0.000045307092
  13   0.000016801405
  14   0.000006305920
  15   0.000002372236
  16   0.000000895878
  17   0.000000338937
  18   0.000000128295
  19   0.000000048630
  20   0.000000018431
  21   0.000000006978
  22   0.000000002640
  23   0.000000001001
  24   0.000000000379
  25   0.000000000144
  26   0.000000000054
  27   0.000000000020
  28   0.000000000008
  29   0.000000000003
  30   0.000000000001
  31   0.000000000001
 CPU time [min]:     8.779                   Wall time [min]:     0.250
 
 Constructing local fitting domains...
 Local fitting domains are unchanged.
 
 First step of Coulomb + first step of exchange...
 Exchange contribution is evaluated for MOs 1 to 76.
   1% done.
  12% done.
  25% done.
  36% done.
  47% done.
  59% done.
  72% done.
  87% done.
 100% done.
 CPU time [min]:     9.432                   Wall time [min]:     0.268
 
 Fitting and assembly step of exchange...
 CPU time [min]:     9.543                   Wall time [min]:     0.271
 
 Second step of Coulomb...
   1% done.
  12% done.
  25% done.
  36% done.
  47% done.
  59% done.
  72% done.
  87% done.
 100% done.
 CPU time [min]:     9.680                   Wall time [min]:     0.275
 
 Gradient norm:      6.3952E-03
 DIIS is running in this iteration step.
 RMS of [F,P]:                                         0.00004117570366
 RMS of difference density:                            0.00026237232529
 Gap [au]:  0.21202009
 ALPHA OCC:  76
 BETA  OCC:  76
 
 ***HARTREE-FOCK ENERGY IN STEP  10 IS      -1554.2130855266259459 [AU]
 
 Step comparison  Energy Drift [au]  DIIS error drift  Gradient drift
        9            4.6695E-04         6.7790E-05       4.4988E-03
 ======================================================================
 ITERATION STEP  11
 CPU time [min]:     9.695                   Wall time [min]:     0.275
 

 SCF control                  : diis
 Damping factor/level shift   : 0.000/0.000
 DIIS [start/end/frequency]   :   2 / 50 /  1

 Constructing Fock-matrix...
 
 Pipek-Mezey localization...
 Step  Convergence
   1  26.147394368449
   2  12.206074775937
   3  17.524082376038
   4   6.794285871543
   5   1.968740915232
   6   0.097365646916
   7   0.012506181914
   8   0.001824473766
   9   0.000312775617
  10   0.000095464839
  11   0.000030437720
  12   0.000010451990
  13   0.000003784552
  14   0.000001311777
  15   0.000000434289
  16   0.000000151020
  17   0.000000055019
  18   0.000000018451
  19   0.000000006426
  20   0.000000002348
  21   0.000000000785
  22   0.000000000283
  23   0.000000000099
  24   0.000000000033
  25   0.000000000011
  26   0.000000000004
  27   0.000000000001
  28   0.000000000001
 CPU time [min]:     9.779                   Wall time [min]:     0.278
 
 Constructing local fitting domains...
 Local fitting domains are unchanged.
 
 First step of Coulomb + first step of exchange...
 Exchange contribution is evaluated for MOs 1 to 76.
   1% done.
  12% done.
  25% done.
  36% done.
  47% done.
  59% done.
  72% done.
  87% done.
 100% done.
 CPU time [min]:    10.433                   Wall time [min]:     0.296
 
 Fitting and assembly step of exchange...
 CPU time [min]:    10.529                   Wall time [min]:     0.299
 
 Second step of Coulomb...
   1% done.
  12% done.
  25% done.
  36% done.
  47% done.
  59% done.
  72% done.
  87% done.
 100% done.
 CPU time [min]:    10.666                   Wall time [min]:     0.303
 
 Gradient norm:      2.9125E-03
 DIIS is running in this iteration step.
 RMS of [F,P]:                                         0.00002487594911
 RMS of difference density:                            0.00010852400095
 Gap [au]:  0.21198049
 ALPHA OCC:  76
 BETA  OCC:  76
 
 ***HARTREE-FOCK ENERGY IN STEP  11 IS      -1554.2132221694373584 [AU]
 
 Step comparison  Energy Drift [au]  DIIS error drift  Gradient drift
       10            1.3664E-04         1.6300E-05       3.4827E-03
 ======================================================================
 ITERATION STEP  12
 CPU time [min]:    10.682                   Wall time [min]:     0.303
 

 SCF control                  : diis
 Damping factor/level shift   : 0.000/0.000
 DIIS [start/end/frequency]   :   2 / 50 /  1

 Constructing Fock-matrix...
 
 Pipek-Mezey localization...
 Step  Convergence
   1  23.201680440868
   2  14.241308182553
   3  17.799549052958
   4   4.969881477262
   5   1.091153410122
   6   0.030690044318
   7   0.002445935872
   8   0.000524018577
   9   0.000118850902
  10   0.000028150161
  11   0.000006912302
  12   0.000001798115
  13   0.000000481718
  14   0.000000135706
  15   0.000000039308
  16   0.000000011429
  17   0.000000003478
  18   0.000000001065
  19   0.000000000326
  20   0.000000000104
  21   0.000000000033
  22   0.000000000011
  23   0.000000000004
  24   0.000000000001
  25   0.000000000000
 CPU time [min]:    10.759                   Wall time [min]:     0.305
 
 Constructing local fitting domains...
 Local fitting domains are unchanged.
 
 First step of Coulomb + first step of exchange...
 Exchange contribution is evaluated for MOs 1 to 76.
   1% done.
  12% done.
  25% done.
  36% done.
  47% done.
  59% done.
  72% done.
  87% done.
 100% done.
 CPU time [min]:    11.411                   Wall time [min]:     0.323
 
 Fitting and assembly step of exchange...
 CPU time [min]:    11.508                   Wall time [min]:     0.326
 
 Second step of Coulomb...
   1% done.
  12% done.
  25% done.
  36% done.
  47% done.
  59% done.
  72% done.
  87% done.
 100% done.
 CPU time [min]:    11.645                   Wall time [min]:     0.330
 
 Gradient norm:      1.6693E-03
 DIIS is running in this iteration step.
 RMS of [F,P]:                                         0.00001557612314
 RMS of difference density:                            0.00011404476670
 Gap [au]:  0.21191817
 ALPHA OCC:  76
 BETA  OCC:  76
 
 ***HARTREE-FOCK ENERGY IN STEP  12 IS      -1554.2132519971282818 [AU]
 
 Step comparison  Energy Drift [au]  DIIS error drift  Gradient drift
       11            2.9828E-05         9.2998E-06       1.2432E-03
 ======================================================================
 ITERATION STEP  13
 CPU time [min]:    11.660                   Wall time [min]:     0.330
 

 SCF control                  : diis
 Damping factor/level shift   : 0.000/0.000
 DIIS [start/end/frequency]   :   2 / 50 /  1

 Constructing Fock-matrix...
 
 Pipek-Mezey localization...
 Step  Convergence
   1  24.350608728720
   2  12.960456062479
   3  16.855391184558
   4   7.375859693845
   5   0.740641668010
   6   0.055410631787
   7   0.008346547520
   8   0.001337985062
   9   0.000343055728
  10   0.000101316022
  11   0.000031911634
  12   0.000010401922
  13   0.000003413385
  14   0.000001096774
  15   0.000000360420
  16   0.000000115903
  17   0.000000036514
  18   0.000000011856
  19   0.000000003895
  20   0.000000001276
  21   0.000000000420
  22   0.000000000139
  23   0.000000000047
  24   0.000000000015
  25   0.000000000005
  26   0.000000000002
  27   0.000000000001
 CPU time [min]:    11.742                   Wall time [min]:     0.333
 
 Constructing local fitting domains...
 Local fitting domains are unchanged.
 
 First step of Coulomb + first step of exchange...
 Exchange contribution is evaluated for MOs 1 to 76.
   1% done.
  12% done.
  25% done.
  36% done.
  47% done.
  59% done.
  72% done.
  87% done.
 100% done.
 CPU time [min]:    12.396                   Wall time [min]:     0.351
 
 Fitting and assembly step of exchange...
 CPU time [min]:    12.492                   Wall time [min]:     0.354
 
 Second step of Coulomb...
   1% done.
  12% done.
  25% done.
  36% done.
  47% done.
  59% done.
  72% done.
  87% done.
 100% done.
 CPU time [min]:    12.629                   Wall time [min]:     0.357
 
 Gradient norm:      3.2364E-04
 DIIS is running in this iteration step.
 RMS of [F,P]:                                         0.00000404491216
 RMS of difference density:                            0.00002458195718
 Gap [au]:  0.21190244
 ALPHA OCC:  76
 BETA  OCC:  76
 
 ***HARTREE-FOCK ENERGY IN STEP  13 IS      -1554.2132666176530620 [AU]
 
 Step comparison  Energy Drift [au]  DIIS error drift  Gradient drift
       12            1.4621E-05         1.1531E-05       1.3457E-03
 ======================================================================
 ITERATION STEP  14
 CPU time [min]:    12.645                   Wall time [min]:     0.358
 

 SCF control                  : diis
 Damping factor/level shift   : 0.000/0.000
 DIIS [start/end/frequency]   :   2 / 50 /  1

 Constructing Fock-matrix...
 
 Pipek-Mezey localization...
 Step  Convergence
   1  24.338842629198
   2  13.986457515955
   3  18.214469626414
   4   6.446290000305
   5   0.697994682436
   6   0.026232229089
   7   0.002340012987
   8   0.000561680446
   9   0.000164681247
  10   0.000050918709
  11   0.000016316914
  12   0.000005034005
  13   0.000001635037
  14   0.000000519438
  15   0.000000162093
  16   0.000000052243
  17   0.000000017262
  18   0.000000005550
  19   0.000000001794
  20   0.000000000571
  21   0.000000000191
  22   0.000000000062
  23   0.000000000021
  24   0.000000000007
  25   0.000000000002
  26   0.000000000001
 CPU time [min]:    12.730                   Wall time [min]:     0.360
 
 Constructing local fitting domains...
 Local fitting domains are unchanged.
 
 First step of Coulomb + first step of exchange...
 Exchange contribution is evaluated for MOs 1 to 76.
   1% done.
  12% done.
  25% done.
  36% done.
  47% done.
  59% done.
  72% done.
  87% done.
 100% done.
 CPU time [min]:    13.382                   Wall time [min]:     0.378
 
 Fitting and assembly step of exchange...
 CPU time [min]:    13.479                   Wall time [min]:     0.381
 
 Second step of Coulomb...
   1% done.
  12% done.
  25% done.
  36% done.
  47% done.
  59% done.
  72% done.
  87% done.
 100% done.
 CPU time [min]:    13.616                   Wall time [min]:     0.385
 
 Gradient norm:      6.9667E-05
 DIIS is running in this iteration step.
 RMS of [F,P]:                                         0.00000155153189
 RMS of difference density:                            0.00000363007611
 Gap [au]:  0.21190471
 ALPHA OCC:  76
 BETA  OCC:  76
 
 ***HARTREE-FOCK ENERGY IN STEP  14 IS      -1554.2132675698430830 [AU]
 
 Step comparison  Energy Drift [au]  DIIS error drift  Gradient drift
       13            9.5219E-07         2.4934E-06       2.5397E-04
 ======================================================================
 ITERATION STEP  15
 CPU time [min]:    13.631                   Wall time [min]:     0.385
 

 SCF control                  : diis
 Damping factor/level shift   : 0.000/0.000
 DIIS [start/end/frequency]   :   2 / 50 /  1

 Constructing Fock-matrix...
 
 Pipek-Mezey localization...
 Step  Convergence
   1  25.467737386977
   2  15.228596763293
   3  16.843793516667
   4   6.030497828407
   5   0.571144979834
   6   0.027585019741
   7   0.002112342953
   8   0.000342931492
   9   0.000080071571
  10   0.000022567629
  11   0.000006667326
  12   0.000002057700
  13   0.000000644261
  14   0.000000202350
  15   0.000000064273
  16   0.000000020545
  17   0.000000006578
  18   0.000000002108
  19   0.000000000657
  20   0.000000000212
  21   0.000000000077
  22   0.000000000023
  23   0.000000000008
  24   0.000000000002
  25   0.000000000001
 CPU time [min]:    13.708                   Wall time [min]:     0.388
 
 Constructing local fitting domains...
 Local fitting domains are unchanged.
 
 First step of Coulomb + first step of exchange...
 Exchange contribution is evaluated for MOs 1 to 76.
   1% done.
  12% done.
  25% done.
  36% done.
  47% done.
  59% done.
  72% done.
  87% done.
 100% done.
 CPU time [min]:    14.362                   Wall time [min]:     0.406
 
 Fitting and assembly step of exchange...
 CPU time [min]:    14.459                   Wall time [min]:     0.408
 
 Second step of Coulomb...
   1% done.
  12% done.
  25% done.
  36% done.
  47% done.
  59% done.
  72% done.
  87% done.
 100% done.
 CPU time [min]:    14.596                   Wall time [min]:     0.412
 
 Gradient norm:      3.8412E-05
 DIIS is running in this iteration step.
 RMS of [F,P]:                                         0.00000115822719
 RMS of difference density:                            0.00000204212274
 Gap [au]:  0.21190060
 ALPHA OCC:  76
 BETA  OCC:  76
 
 ***HARTREE-FOCK ENERGY IN STEP  15 IS      -1554.2132676096571231 [AU]
 
 Step comparison  Energy Drift [au]  DIIS error drift  Gradient drift
       14            3.9814E-08         3.9330E-07       3.1255E-05
 ======================================================================
 ITERATION STEP  16
 CPU time [min]:    14.610                   Wall time [min]:     0.413
 

 SCF control                  : diis
 Damping factor/level shift   : 0.000/0.000
 DIIS [start/end/frequency]   :   2 / 50 /  1

 Constructing Fock-matrix...
 
 Pipek-Mezey localization...
 Step  Convergence
   1  29.259325627831
   2  12.278408890241
   3  19.996433244419
   4   6.663395088334
   5   1.914336287923
   6   0.365508616605
   7   0.077882829874
   8   0.003842407397
   9   0.000619159670
  10   0.000159388178
  11   0.000047734974
  12   0.000014858664
  13   0.000004667411
  14   0.000001466523
  15   0.000000462394
  16   0.000000145958
  17   0.000000045930
  18   0.000000014490
  19   0.000000004579
  20   0.000000001443
  21   0.000000000455
  22   0.000000000143
  23   0.000000000045
  24   0.000000000014
  25   0.000000000004
  26   0.000000000001
  27   0.000000000001
 CPU time [min]:    14.691                   Wall time [min]:     0.415
 
 Constructing local fitting domains...
 Local fitting domains are unchanged.
 
 First step of Coulomb + first step of exchange...
 Exchange contribution is evaluated for MOs 1 to 76.
   1% done.
  12% done.
  25% done.
  36% done.
  47% done.
  59% done.
  72% done.
  87% done.
 100% done.
 CPU time [min]:    15.346                   Wall time [min]:     0.433
 
 Fitting and assembly step of exchange...
 CPU time [min]:    15.447                   Wall time [min]:     0.436
 
 Second step of Coulomb...
   1% done.
  12% done.
  25% done.
  36% done.
  47% done.
  59% done.
  72% done.
  87% done.
 100% done.
 CPU time [min]:    15.584                   Wall time [min]:     0.440
 
 Gradient norm:      1.1569E-05
 DIIS is running in this iteration step.
 RMS of [F,P]:                                         0.00000020437552
 RMS of difference density:                            0.00000043916790
 Gap [au]:  0.21189882
 ALPHA OCC:  76
 BETA  OCC:  76
 
 ***HARTREE-FOCK ENERGY IN STEP  16 IS      -1554.2132676209103010 [AU]
 
 Step comparison  Energy Drift [au]  DIIS error drift  Gradient drift
       15            1.1253E-08         9.5385E-07       2.6843E-05
 ======================================================================
 ITERATION STEP  17
 CPU time [min]:    15.599                   Wall time [min]:     0.440
 

 SCF control                  : diis
 Damping factor/level shift   : 0.000/0.000
 DIIS [start/end/frequency]   :   2 / 50 /  1

 Constructing Fock-matrix...
 
 Pipek-Mezey localization...
 Step  Convergence
   1  23.833436082531
   2  11.581302593659
   3  17.793499390754
   4   5.769682995810
   5   1.081759076407
   6   0.096910084295
   7   0.006679745426
   8   0.002380777505
   9   0.000860615068
  10   0.000268358937
  11   0.000085190983
  12   0.000025125939
  13   0.000009302564
  14   0.000003131327
  15   0.000000958231
  16   0.000000277060
  17   0.000000102291
  18   0.000000034153
  19   0.000000010430
  20   0.000000003010
  21   0.000000000987
  22   0.000000000399
  23   0.000000000126
[...]
 Iteration  5        0.042132708953       -5.169600533894
 Iteration  6        0.018960339989       -5.163841333908
 Iteration  7        0.011700054974       -5.165110964423
 Iteration  8        0.006008166979       -5.166515004240
 Iteration  9        0.003517623490       -5.166481872140
 Iteration 10        0.001963489718       -5.166363669137
 Iteration 11        0.001208219026       -5.166513353463
 Iteration 12        0.000704490507       -5.166474445747
 Iteration 13        0.000413353684       -5.166366259289
 Iteration 14        0.000238480058       -5.166376561201
 Iteration 15        0.000138870524       -5.166412683704
 Iteration 16        0.000079518288       -5.166413156830
 Iteration 17        0.000045800505       -5.166404791004
 
 CCSD iteration has converged in 17 steps.
    89265.06 MB memory was utilized by CCSD
 
 T1 diagnostic:      3.431E-02            D1 diagnostic:      1.305E-01
 
 T1 contribution [au]:                         0.000000000000
 CCSD correlation energy [au]:                -0.080275336995
 
 CPU time [min]: 21600.297                   Wall time [min]:   750.944
 
 Calculation of (T) correction...
 
 Laplace threshold, nquadmin:  1.00E-03   4
 Number of quadrature points:    5
 
    47637.87 MB memory is utilized for (T)

 0%       25%       50%       75%       100%
 |---------|---------|---------|---------| 
 
 (T) correction [au]:                   -0.011408811394
 CCSD(T) correlation energy [au]:       -0.091684148388
 
 CPU time [min]: 25920.806                   Wall time [min]:   877.332
 
 MO:    75
 Number of atoms in domain:       8
 Number of atomic orbitals:     976
 Number of atoms for local DF:    8
 Number of fitting functions:  2888 (100.00%)
 Warning: drop high-lying PAOs                     8
 Number of occupied orbitals:    76
 Number of virtual  orbitals:   892
 Number of Cholesky vectors:      9
 MP2 energy in ED [au]:          -0.093353453959
 Number of occupied LNOs:        70  (92.11%)
 Number of virtual  LNOs:       379  (42.49%)
dropped smallnorm     2     3   6.28415935E-06
 tol*100>norm                    15  2.638159585487460E-005
 tol*100>norm                    16  1.931017454142040E-005
 tol*100>norm                    17  2.254391288371363E-005
dropped smallnorm   123   125   6.28647827E-06
 tol*100>norm                   137  2.638724011703636E-005
 tol*100>norm                   138  1.931483965095215E-005
 tol*100>norm                   139  2.252777585739361E-005
dropped smallnorm   244   247   7.16368024E-06
 tol*100>norm                   259  2.532866298383967E-005
 tol*100>norm                   260  2.594978596331233E-005
 tol*100>norm                   261  2.961086507177391E-005
dropped smallnorm   365   369   7.16468563E-06
 tol*100>norm                   381  2.595969048779593E-005
 tol*100>norm                   382  2.533279087375367E-005
 tol*100>norm                   383  2.960819432451078E-005
dropped smallnorm   486   491   6.28973553E-06
 tol*100>norm                   503  1.932194838222812E-005
 tol*100>norm                   504  2.640437849887374E-005
 tol*100>norm                   505  2.253930008452081E-005
dropped smallnorm   607   613   7.16521149E-06
 tol*100>norm                   625  2.594932301290523E-005
 tol*100>norm                   626  2.533237112790818E-005
 tol*100>norm                   627  2.961674249490171E-005
dropped smallnorm   728   735   6.28992270E-06
 tol*100>norm                   747  1.931966376893056E-005
 tol*100>norm                   748  2.640438487907550E-005
 tol*100>norm                   749  2.254309474961651E-005
dropped smallnorm   849   857   7.16246449E-06
 tol*100>norm                   869  2.533366293887286E-005
 tol*100>norm                   870  2.593535336666959E-005
 tol*100>norm                   871  2.962334516721900E-005
 small norm                    14  2.638159585485952E-005
 small norm                    15  1.931017454142063E-005
 small norm                    16  2.254391288371442E-005
 small norm                   135  2.638724011704043E-005
 small norm                   136  1.931483965095124E-005
 small norm                   137  2.252777585739350E-005
 small norm                   256  2.532866298383735E-005
 small norm                   257  2.594978596331241E-005
 small norm                   258  2.961086507177442E-005
 small norm                   377  2.595969048779629E-005
 small norm                   378  2.533279087375327E-005
 small norm                   379  2.960819432450649E-005
 small norm                   498  1.932194838222779E-005
 small norm                   499  2.640437849887850E-005
 small norm                   500  2.253930008452110E-005
 small norm                   619  2.594932301290500E-005
 small norm                   620  2.533237112791178E-005
 small norm                   621  2.961674249490242E-005
 small norm                   740  1.931966376893059E-005
 small norm                   741  2.640438487907225E-005
 small norm                   742  2.254309474961560E-005
 small norm                   861  2.533366293887304E-005
 small norm                   862  2.593535336666948E-005
 small norm                   863  2.962334516722034E-005
 Number of Cholesky vectors:      8
 MP2 energy in LIS [au]:         -0.092020566937
 Correction for frozen LNO [au]: -0.001332887022     (1.428%)
 Number of NAFs:               1519  (52.60%)
 CPU time [min]: 26031.595                   Wall time [min]:   881.673
 

 Direct DF-CCSD(T) calculation
 
 Convergence criterion:  1.0E-05
 
 Number of occupied/virtual/auxiliary orbitals:    70   379  1519
  15995.91 MB is the minimal memory requirement for (T)
  10366.62 MB is the minimal memory requirement for CCSD
 
 MP2 correlation energy [au]:       -5.993851920094
 
 LMP2 domain correlation energy contribution [au]:       -0.092016223814
 
 CPU time [min]: 26037.357                   Wall time [min]:   882.755
 
 
 Starting CCSD iterations...
 
                     Residual norm       Correlation Energy
 Iteration  1        1.376609149749       -4.585550405720
 Iteration  2        0.996402531793       -5.096733627899
 Iteration  3        0.144367678116       -5.169775886248
 Iteration  4        0.075054388757       -5.182009333320
 Iteration  5        0.042133230842       -5.169582372575
 Iteration  6        0.018960328083       -5.163823232793
 Iteration  7        0.011700451228       -5.165092771620
 Iteration  8        0.006008269427       -5.166496775511
 Iteration  9        0.003517792892       -5.166463675454
 Iteration 10        0.001963605993       -5.166345470351
 Iteration 11        0.001208344971       -5.166495170620
 Iteration 12        0.000704551249       -5.166456280395
 Iteration 13        0.000413407998       -5.166348074546
 Iteration 14        0.000238516162       -5.166358379116
 Iteration 15        0.000138898552       -5.166394512448
 Iteration 16        0.000079535752       -5.166394982898
 Iteration 17        0.000045814842       -5.166386613651
 
 CCSD iteration has converged in 17 steps.
    89265.06 MB memory was utilized by CCSD
 
 T1 diagnostic:      3.431E-02            D1 diagnostic:      1.305E-01
 
 T1 contribution [au]:                         0.000000000000
 CCSD correlation energy [au]:                -0.080278184082
 
 CPU time [min]: 29404.191                   Wall time [min]:  1006.992
 
 Calculation of (T) correction...
 
 Laplace threshold, nquadmin:  1.00E-03   4
 Number of quadrature points:    5
 
    47637.87 MB memory is utilized for (T)

 0%       25%       50%       75%       100%
 |---------|---------|---------|---------| 
 
 (T) correction [au]:                   -0.011408931425
 CCSD(T) correlation energy [au]:       -0.091687115507
 
 CPU time [min]: 33722.327                   Wall time [min]:  1133.300
 
 MO:    76
 Number of atoms in domain:       8
 Number of atomic orbitals:     976
 Number of atoms for local DF:    8
 Number of fitting functions:  2888 (100.00%)
 Warning: drop high-lying PAOs                     8
 Number of occupied orbitals:    76
 Number of virtual  orbitals:   892
 Number of Cholesky vectors:      9
 MP2 energy in ED [au]:          -0.093344846575
 Number of occupied LNOs:        70  (92.11%)
 Number of virtual  LNOs:       379  (42.49%)
dropped smallnorm     2     3   6.28415935E-06
 tol*100>norm                    15  2.638159585487276E-005
 tol*100>norm                    16  1.931017454142060E-005
 tol*100>norm                    17  2.254391288371371E-005
dropped smallnorm   123   125   6.28647827E-06
 tol*100>norm                   137  2.638724011703744E-005
 tol*100>norm                   138  1.931483965095193E-005
 tol*100>norm                   139  2.252777585739369E-005
dropped smallnorm   244   247   7.16368024E-06
 tol*100>norm                   259  2.532866298384046E-005
 tol*100>norm                   260  2.594978596331241E-005
 tol*100>norm                   261  2.961086507177347E-005
dropped smallnorm   365   369   7.16468563E-06
 tol*100>norm                   381  2.595969048779590E-005
 tol*100>norm                   382  2.533279087375432E-005
 tol*100>norm                   383  2.960819432451121E-005
dropped smallnorm   486   491   6.28973553E-06
 tol*100>norm                   503  1.932194838222835E-005
 tol*100>norm                   504  2.640437849887303E-005
 tol*100>norm                   505  2.253930008452051E-005
dropped smallnorm   607   613   7.16521149E-06
 tol*100>norm                   625  2.594932301290502E-005
 tol*100>norm                   626  2.533237112790973E-005
 tol*100>norm                   627  2.961674249490158E-005
dropped smallnorm   728   735   6.28992270E-06
 tol*100>norm                   747  1.931966376893072E-005
 tol*100>norm                   748  2.640438487907504E-005
 tol*100>norm                   749  2.254309474961667E-005
dropped smallnorm   849   857   7.16246449E-06
 tol*100>norm                   869  2.533366293887248E-005
 tol*100>norm                   870  2.593535336666955E-005
 tol*100>norm                   871  2.962334516721723E-005
 small norm                    14  2.638159585486138E-005
 small norm                    15  1.931017454142092E-005
 small norm                    16  2.254391288371462E-005
 small norm                   135  2.638724011704260E-005
 small norm                   136  1.931483965095141E-005
 small norm                   137  2.252777585739369E-005
 small norm                   256  2.532866298383740E-005
 small norm                   257  2.594978596331230E-005
 small norm                   258  2.961086507177402E-005
 small norm                   377  2.595969048779602E-005
 small norm                   378  2.533279087375399E-005
 small norm                   379  2.960819432450681E-005
 small norm                   498  1.932194838222764E-005
 small norm                   499  2.640437849887905E-005
 small norm                   500  2.253930008452095E-005
 small norm                   619  2.594932301290499E-005
 small norm                   620  2.533237112791189E-005
 small norm                   621  2.961674249490216E-005
 small norm                   740  1.931966376893076E-005
 small norm                   741  2.640438487907256E-005
 small norm                   742  2.254309474961620E-005
 small norm                   861  2.533366293887247E-005
 small norm                   862  2.593535336666950E-005
 small norm                   863  2.962334516721984E-005
 Number of Cholesky vectors:      8
 MP2 energy in LIS [au]:         -0.092012446225
 Correction for frozen LNO [au]: -0.001332400350     (1.427%)
 Number of NAFs:               1519  (52.60%)
 CPU time [min]: 33833.237                   Wall time [min]:  1137.645
 

 Direct DF-CCSD(T) calculation
 
 Convergence criterion:  1.0E-05
 
 Number of occupied/virtual/auxiliary orbitals:    70   379  1519
  15995.91 MB is the minimal memory requirement for (T)
  10366.62 MB is the minimal memory requirement for CCSD
 
 MP2 correlation energy [au]:       -5.993507054006
 
 LMP2 domain correlation energy contribution [au]:       -0.092008101618
 
 CPU time [min]: 33839.006                   Wall time [min]:  1138.728
 
 
 Starting CCSD iterations...
 
                     Residual norm       Correlation Energy
 Iteration  1        1.376616054824       -4.585253683536
 Iteration  2        0.996457511765       -5.096421714269
 Iteration  3        0.144366993771       -5.169469955601
 Iteration  4        0.075053517051       -5.181703298611
 Iteration  5        0.042130142587       -5.169274850233
 Iteration  6        0.018958234627       -5.163515979834
 Iteration  7        0.011698900514       -5.164787559958
 Iteration  8        0.006007656674       -5.166191499378
 Iteration  9        0.003517720974       -5.166158191259
 Iteration 10        0.001963534292       -5.166040163464
 Iteration 11        0.001208442294       -5.166189909797
 Iteration 12        0.000704529554       -5.166150948440
 Iteration 13        0.000413511205       -5.166042693592
 Iteration 14        0.000238543581       -5.166053032674
 Iteration 15        0.000138965508       -5.166089195013
 Iteration 16        0.000079562420       -5.166089653773
 Iteration 17        0.000045854840       -5.166081270608
 
 CCSD iteration has converged in 17 steps.
    89265.06 MB memory was utilized by CCSD
 
 T1 diagnostic:      3.431E-02            D1 diagnostic:      1.305E-01
 
 T1 contribution [au]:                         0.000000000000
 CCSD correlation energy [au]:                -0.080272644735
 
 CPU time [min]: 37206.617                   Wall time [min]:  1262.924
 
 Calculation of (T) correction...
 
 Laplace threshold, nquadmin:  1.00E-03   4
 Number of quadrature points:    5
 
    47637.87 MB memory is utilized for (T)

 0%       25%       50%       75%       100%
 |---------|---------|---------|---------| 
 
 (T) correction [au]:                   -0.011410268981
 CCSD(T) correlation energy [au]:       -0.091682913716
 
 CPU time [min]: 41525.335                   Wall time [min]:  1389.325
 
 **********************************************************************
 Dimensions of the extended domains:    Minimum / Average / Maximum
 
 Number of atoms in domain:                   8       8.0         8
 Number of atomic orbitals:                 976     976.0       976
 Number of fitting functions:              2888    2888.0      2888
 Number of occupied localized MOs:           33      53.9        76
 Number of PAOs:                            892     892.0       892
 Number of occupied LNOs:                    11      29.2        70
 Number of virtual  LNOs:                    76     141.9       379
 Number of NAFs:                            280     564.2      1519
 
 **********************************************************************
 Distant (and weak) pair contributions, corrections
 
 Sum of pair energies [au]:                    -0.000330026598    (0.004%)
 Sum of energy corrections [au]:               -0.042009789153    (0.478%)
 Pair energies + LNO corrections [au]:         -0.042339815752
 Sum of LMP2 contributions [au]:               -8.792502519539
 
 **********************************************************************
  Time of manipulations in the EDs:      max CPU/Wall [s]  all CPU/Wall [min]
 
 PD construction & multipole pair E     968.06    28.16    16.13     0.47
 Construct MO basis of the ED            13.56     0.40    12.93     0.37
 (mu,nu|P) evaluation & trf 2 (ai|P)   1333.17    40.33  1297.91    37.98
 Evaluate MP2 energy of the ED          177.21     4.94   159.54     4.45
 Transformations to the LNO basis       119.08     3.32    68.21     1.90
 Build W_PQ (Jai or Jpi part)            13.04     0.36     6.01     0.17
 Evaluate MP2 energy of the LIS          29.23     0.82     6.24     0.17
 (mu,nu|P) evaluation & trf 2 J(abQ)   4912.20   205.17  2335.64   100.99
 Total of the above for all EDs        6597.48   255.35  3886.49   146.03
 
 **********************************************************************
 Maximum memory requirement [MB]:       
 
 PD construction & multipole pair E         74.2
 AO integral evaluation in the EDs        6191.0
 (mu,nu|P) evaluation & trf 2 (aI|P)     11111.0
 Evaluate MP2 energy in the EDs           3623.7
 Transformation to the LNO basis          2385.0
 (mu,nu|P) to Jab transformation          7813.5
 Evaluate MP2 energy in the LIS           2471.8
 Minimum requirement for LIS CCSD        10366.6
 Actually allocated  for LIS CCSD        89265.1
 Minimum requirement for LIS (T)         15996.1
 Actually allocated  for LIS (T)         47637.9
 
 ======================================================================
 ======================================================================
 
 
 
 ======================================================================
 ======================================================================
 
 Final local CC results:
 
 Minimum number of correlated electrons:        22       ( 14.5%)
 Maximum number of correlated electrons:       140       ( 92.1%)
 Average number of correlated electrons:        58.3     ( 38.4%)
 Minimum number of correlated orbitals:         87       (  8.9%)
 Maximum number of correlated orbitals:        449       ( 46.0%)
 Average number of correlated orbitals:        171.0     ( 17.5%)
 
 CPU time for integral calculations [min]:                 33.744
 Wall time for integral calculations [min]:                 2.943
 
 CPU time for SCF calculation [min]:                      103.132
 Wall time for SCF calculation [min]:                       2.965
 
 CPU time for orbital localization [min]:                   0.418
 Wall time for orbital localization [min]:                  0.093
 
 CPU time for integral transformations [min]:            3958.477
 Wall time for integral transformations [min]:            148.591
 
 Reference energy [au]:                                 -1569.523813458221
 
 LMP2 correlation energy [au]:                             -8.792502519539
 Total LMP2 energy [au]:                                -1578.316315977760
 
 Total MP2 correction for dropped NAFs [au]:               -0.000272818096
 Total MP2 correction [au]:                                -0.042612633848
 
 CPU time for CCSD calculations [min]:                  16784.760
 Total CPU time for CCSD [min]:                         20880.531
 Wall time for CCSD calculations [min]:                   631.353
 Total wall time for CCSD [min]:                          785.945
 
 CCSD correlation energy [au]:                             -7.675306315816
 Total CCSD energy [au]:                                -1577.199119774037
 CCSD correlation energy + 0.5 MP2 corrections [au]:       -7.696612632740
 Total LNO-CCSD energy with MP2 corrections [au]:       -1577.220426090961
 
 CPU time for (T) corrections [min]:                    20782.130
 Total CPU time for CCSD(T) [min]:                      41662.661
 Wall time for (T) corrections [min]:                     609.383
 Total wall time for CCSD(T) [min]:                      1395.328
 
 Total (T) correlation energy contribution [au]:           -0.346799380223
 Total (T) correlation energy+0.5 MP2 correction [au]:     -0.368105697147
 CCSD(T) correlation energy [au]:                          -8.022105696039
 Total CCSD(T) energy [au]:                             -1577.545919154259
 CCSD(T) correlation energy + MP2 corrections [au]:        -8.064718329887
 Total LNO-CCSD(T) energy with MP2 corrections [au]:    -1577.588531788107
 
 ======================================================================
 ======================================================================
 
 ************************ 2022-12-23 18:51:28 *************************
                      Normal termination of mrcc.
 **********************************************************************
