 vasp.6.4.0 14Feb23 (build Jul 14 2023 13:46:40) complex                        
  
 executed on             LinuxIFC date 2023.07.30  06:37:41
 running  512 mpi-ranks, with    1 threads/rank, on   32 nodes
 distrk:  each k-point on  512 cores,    1 groups
 distr:  one band on NCORE=  16 cores,   32 groups


--------------------------------------------------------------------------------------------------------


 INCAR:
   SYSTEM = MgO-rocksalt
   ISMEAR = 0
   SIGMA = 0.05
   EDIFF = 1E-6
   ALGO = ALL
   ISTART = 0
   IBRION = -1
   NSW = 0
   ISYM = 2
   METAGGA = R2SCAN
   LUSE_VDW = .TRUE.
   BPARAM = 11.95
   CPARAM = 0.0093
   ENCUT = 520
   PREC = Accurate
   LASPH = .TRUE.
   LREAL = Auto
   ISPIN = 1
   NELM = 200
   NELMIN = 8
   NCORE = 16
   KPAR = 1
   LWAVE = .FALSE.
   LCHARG = .FALSE.

 POTCAR:    PAW_PBE Ag 02Apr2005                  
 -----------------------------------------------------------------------------
|                                                                             |
|               ----> ADVICE to this user running VASP <----                  |
|                                                                             |
|     You have switched on vdW-DFT.                                           |
|     This routine was written and supplied by Jiri Klimes. We recommend      |
|     that you carefully read and cite the following publications:            |
|       J. Klimes, D.R. Bowler, A. Michelides                                 |
|          J. Phys.: Cond Matt. 22 022201 (2010)                              |
|       J. Klimes, D.R. Bowler, A. Michelides                                 |
|          Phys. Rev. B. 83, 195131 (2011)                                    |
|     and references therein.                                                 |
|                                                                             |
 -----------------------------------------------------------------------------

 POTCAR:    PAW_PBE Ag 02Apr2005                  
   SHA256 =  6550cfa3543261e132c169e1b98a529204624d72be14e2da2e0242bcb74a174d Ag/POTCAR             
   COPYR  = (c) Copyright 02Apr2005 Georg Kresse                                                    
   COPYR  = This file is part of the software VASP. Any use, copying, and all other rights are regul
   COPYR  = If you do not have a valid VASP license, you may not use, copy or distribute this file. 
   VRHFIN =Ag : s1 d10                                                                              
   LEXCH  = PE                                                                                      
   EATOM  =  1037.2675 eV,   76.2370 Ry                                                             
                                                                                                    
   TITEL  = PAW_PBE Ag 02Apr2005                                                                    
   LULTRA =        F    use ultrasoft PP ?                                                          
   IUNSCR =        1    unscreen: 0-lin 1-nonlin 2-no                                               
   RPACOR =    2.000    partial core radius                                                         
   POMASS =  107.868; ZVAL   =   11.000    mass and valenz                                          
   RCORE  =    2.500    outmost cutoff radius                                                       
   RWIGS  =    2.840; RWIGS  =    1.503    wigner-seitz radius (au A)                               
   ENMAX  =  249.844; ENMIN  =  187.383 eV                                                          
   ICORE  =        3    local potential                                                             
   LCOR   =        T    correct aug charges                                                         
   LPAW   =        T    paw PP                                                                      
   EAUG   =  412.496                                                                                
   DEXC   =    0.000                                                                                
   RMAX   =    2.560    core radius for proj-oper                                                   
   RAUG   =    1.300    factor for augmentation sphere                                              
   RDEP   =    2.576    radius for radial grids                                                     
   RDEPT  =    2.072    core radius for aug-charge                                                  
                                                                                                    
   Atomic configuration                                                                             
   12 entries                                                                                       
     n  l   j            E        occ.                                                              
     1  0  0.50    -25324.9161   2.0000                                                             
     2  0  0.50     -3728.5341   2.0000                                                             
     2  1  1.50     -3344.0404   6.0000                                                             
     3  0  0.50      -683.5581   2.0000                                                             
     3  1  1.50      -557.3225   6.0000                                                             
     3  2  2.50      -358.3853  10.0000                                                             
     4  0  0.50       -95.0341   2.0000                                                             
     4  1  1.50       -58.5511   6.0000                                                             
     4  2  2.50        -7.4440  10.0000                                                             
     5  0  0.50        -4.4045   1.0000                                                             
     5  1  0.50        -1.3606   0.0000                                                             
     4  3  2.50        -1.3606   0.0000                                                             
   Description                                                                                      
     l       E           TYP  RCUT    TYP  RCUT                                                     
     2     -7.4439781     23  2.400                                                                 
     2     -8.8045607     23  2.400                                                                 
     0     -4.4044681     23  2.400                                                                 
     0      1.9520038     23  2.400                                                                 
     1     -1.3605826     23  2.500                                                                 
     1     27.2116520     23  2.500                                                                 
     3     -4.0817478     23  2.400                                                                 
  local pseudopotential read in
  partial core-charges read in
  partial kinetic energy density read in
  atomic valenz-charges read in
  non local Contribution for L=           2  read in
    real space projection operators read in
  non local Contribution for L=           2  read in
    real space projection operators read in
  non local Contribution for L=           0  read in
    real space projection operators read in
  non local Contribution for L=           0  read in
    real space projection operators read in
  non local Contribution for L=           1  read in
    real space projection operators read in
  non local Contribution for L=           1  read in
    real space projection operators read in
    PAW grid and wavefunctions read in
 
   number of l-projection  operators is LMAX  =           6
   number of lm-projection operators is LMMAX =          18
 
 -----------------------------------------------------------------------------
|                                                                             |
|               ----> ADVICE to this user running VASP <----                  |
|                                                                             |
|     You have a (more or less) 'small supercell' and for smaller cells       |
|     it is recommended to use the reciprocal-space projection scheme!        |
|     The real-space optimization is not efficient for small cells and it     |
|     is also less accurate ...                                               |
|     Therefore, set LREAL=.FALSE. in the INCAR file.                         |
|                                                                             |
 -----------------------------------------------------------------------------

 Optimization of the real space projectors (new method)

 maximal supplied QI-value         = 15.12
 optimisation between [QCUT,QGAM] = [ 11.64, 23.28] = [ 37.95,151.78] Ry 
 Optimized for a Real-space Cutoff    1.45 Angstroem

   l    n(q)    QCUT    max X(q) W(low)/X(q) W(high)/X(q)  e(spline) 
   2      9    11.641    53.897    0.22E-03    0.42E-04    0.28E-06
   2      9    11.641    52.416    0.23E-03    0.44E-04    0.29E-06
   0     10    11.641   122.045    0.51E-04    0.25E-04    0.16E-06
   0     10    11.641    73.629    0.49E-04    0.24E-04    0.16E-06
   1     10    11.641    15.255    0.99E-04    0.55E-04    0.11E-06
   1     10    11.641     9.562    0.81E-04    0.47E-04    0.95E-07
  PAW_PBE Ag 02Apr2005                  :
 energy of atom  1       EATOM=-1037.2675
 kinetic energy error for atom=    0.0047 (will be added to EATOM!!)
 
 
 POSCAR: Ag
  positions in direct lattice
  No initial velocities read in

 METAGGA = R2SCAN                                      LMAXTAU =  6    LMIXTAU =  F

 exchange correlation table for  LEXCH =        8
   RHO(1)=    0.500       N(1)  =     2000
   RHO(2)=  100.500       N(2)  =     4000
 


--------------------------------------------------------------------------------------------------------


 ion  position               nearest neighbor table
   1  0.662  0.500  0.618-   2 2.60
   2  0.538  0.500  0.618-   1 2.60
 
  LATTYP: Found a simple tetragonal cell.
 ALAT       =    21.1388521970
 C/A-ratio  =     1.0461251639
  
  Lattice vectors:
  
 A1 = (  21.1388521970,   0.0000000000,   0.0000000000)
 A2 = (   0.0000000000,  21.1388521970,   0.0000000000)
 A3 = (   0.0000000000,   0.0000000000,  22.1138852197)


Analysis of symmetry for initial positions (statically):
=====================================================================
 Subroutine PRICEL returns:
 Original cell was already a primitive cell.
 

 Routine SETGRP: Setting up the symmetry group for a 
 simple tetragonal supercell.


 Subroutine GETGRP returns: Found  8 space group operations
 (whereof  2 operations were pure point group operations)
 out of a pool of 16 trial point group operations.


The static configuration has the point symmetry C_1h.
 The point group associated with its full space group is D_2h.


Analysis of symmetry for dynamics (positions and initial velocities):
=====================================================================
 Subroutine PRICEL returns:
 Original cell was already a primitive cell.
 

 Routine SETGRP: Setting up the symmetry group for a 
 simple tetragonal supercell.


 Subroutine GETGRP returns: Found  8 space group operations
 (whereof  2 operations were pure point group operations)
 out of a pool of 16 trial point group operations.


The dynamic configuration has the point symmetry C_1h.
 The point group associated with its full space group is D_2h.


 Subroutine INISYM returns: Found  8 space group operations
 (whereof  2 operations are pure point group operations),
 and found     1 'primitive' translations


----------------------------------------------------------------------------------------

                                     Primitive cell                                     

  volume of cell :    9881.6133

  direct lattice vectors                    reciprocal lattice vectors
    21.138852197  0.000000000  0.000000000     0.047306258  0.000000000  0.000000000
     0.000000000 21.138852197  0.000000000     0.000000000  0.047306258  0.000000000
     0.000000000  0.000000000 22.113885220     0.000000000  0.000000000  0.045220457

  length of vectors
    21.138852197 21.138852197 22.113885220     0.047306258  0.047306258  0.045220457

  position of ions in fractional coordinates (direct lattice)
     0.661528368  0.500000000  0.618312831
     0.538471560  0.500000000  0.618312831

  ion indices of the primitive-cell ions
   primitive index   ion index
                 1           1
                 2           2

----------------------------------------------------------------------------------------

 
 
 KPOINTS: KPOINTS created by Atomic Simulation Env

Automatic generation of k-mesh.
 Grid dimensions read from file:
 generate k-points for:    1    1    1

 Generating k-lattice:

  Cartesian coordinates                     Fractional coordinates (reciprocal lattice)
     0.047306258  0.000000000  0.000000000     1.000000000  0.000000000  0.000000000
     0.000000000  0.047306258  0.000000000     0.000000000  1.000000000  0.000000000
     0.000000000  0.000000000  0.045220457     0.000000000  0.000000000  1.000000000

  Length of vectors
     0.047306258  0.047306258  0.045220457

  Shift w.r.t. Gamma in fractional coordinates (k-lattice)
     0.000000000  0.000000000  0.000000000

 
 Subroutine IBZKPT returns following result:
 ===========================================
 
 Found      1 irreducible k-points:
 
 Following reciprocal coordinates:
            Coordinates               Weight
  0.000000  0.000000  0.000000      1.000000
 
 Following cartesian coordinates:
            Coordinates               Weight
  0.000000  0.000000  0.000000      1.000000
 


--------------------------------------------------------------------------------------------------------




 Dimension of arrays:
   k-points           NKPTS =      1   k-points in BZ     NKDIM =      1   number of bands    NBANDS=     32
   number of dos      NEDOS =    301   number of ions     NIONS =      2
   non local maximal  LDIM  =      6   non local SUM 2l+1 LMDIM =     18
   total plane-waves  NPLWV = ******
   max r-space proj   IRMAX =   5559   max aug-charges    IRDMAX=  21597
   dimension x,y,z NGX =   160 NGY =  160 NGZ =  168
   dimension x,y,z NGXF=   320 NGYF=  320 NGZF=  336
   support grid    NGXF=   320 NGYF=  320 NGZF=  336
   ions per type =               2
   NGX,Y,Z   is equivalent  to a cutoff of  12.58, 12.58, 12.63 a.u.
   NGXF,Y,Z  is equivalent  to a cutoff of  25.17, 25.17, 25.26 a.u.

 SYSTEM =  MgO-rocksalt                            
 POSCAR =  Ag                                      

 Startparameter for this run:
   NWRITE =      2    write-flag & timer
   PREC   = accura    normal or accurate (medium, high low for compatibility)
   ISTART =      0    job   : 0-new  1-cont  2-samecut
   ICHARG =      2    charge: 1-file 2-atom 10-const
   ISPIN  =      1    spin polarized calculation?
   LNONCOLLINEAR =      F non collinear calculations
   LSORBIT =      F    spin-orbit coupling
   INIWAV =      1    electr: 0-lowe 1-rand  2-diag
   LASPH  =      T    aspherical Exc in radial PAW
 Electronic Relaxation 1
   ENCUT  =  520.0 eV  38.22 Ry    6.18 a.u.  39.30 39.30 41.12*2*pi/ulx,y,z
   ENINI  =  520.0     initial cutoff
   ENAUG  =  412.5 eV  augmentation charge cutoff
   NELM   =    200;   NELMIN=  8; NELMDL= -5     # of ELM steps 
   EDIFF  = 0.1E-05   stopping-criterion for ELM
   LREAL  =      T    real-space projection
   NLSPLINE    = F    spline interpolate recip. space projectors
   LCOMPAT=      F    compatible to vasp.4.4
   GGA_COMPAT  = T    GGA compatible to vasp.4.4-vasp.4.6
   LMAXPAW     = -100 max onsite density
   LMAXMIX     =    2 max onsite mixed and CHGCAR
   VOSKOWN=      0    Vosko Wilk Nusair interpolation
   ROPT   =   -0.00025
 Ionic relaxation
   EDIFFG = 0.1E-04   stopping-criterion for IOM
   NSW    =      0    number of steps for IOM
   NBLOCK =      1;   KBLOCK =      1    inner block; outer block 
   IBRION =     -1    ionic relax: 0-MD 1-quasi-New 2-CG
   NFREE  =      0    steps in history (QN), initial steepest desc. (CG)
   ISIF   =      2    stress and relaxation
   IWAVPR =     10    prediction:  0-non 1-charg 2-wave 3-comb
   ISYM   =      2    0-nonsym 1-usesym 2-fastsym
   LCORR  =      T    Harris-Foulkes like correction to forces

   POTIM  = 0.5000    time-step for ionic-motion
   TEIN   =    0.0    initial temperature
   TEBEG  =    0.0;   TEEND  =   0.0 temperature during run
   SMASS  =  -3.00    Nose mass-parameter (am)
   estimated Nose-frequenzy (Omega)   =  0.10E-29 period in steps = 0.13E+47 mass=  -0.102E-25a.u.
   SCALEE = 1.0000    scale energy and forces
   NPACO  =    256;   APACO  = 10.0  distance and # of slots for P.C.
   PSTRESS=    0.0 pullay stress

  Mass of Ions in am
   POMASS = 107.87
  Ionic Valenz
   ZVAL   =  11.00
  Atomic Wigner-Seitz radii
   RWIGS  =  -1.00
  virtual crystal weights 
   VCA    =   1.00
   NELECT =      22.0000    total number of electrons
   NUPDOWN=      -1.0000    fix difference up-down

 DOS related values:
   EMIN   =  10.00;   EMAX   =-10.00  energy-range for DOS
   EFERMI =   0.00;   METHOD = LEGACY      
   ISMEAR =     0;   SIGMA  =   0.05  broadening in eV -4-tet -1-fermi 0-gaus

 Electronic relaxation 2 (details)
   IALGO  =     58    algorithm
   LDIAG  =      T    sub-space diagonalisation (order eigenvalues)
   LSUBROT=      F    optimize rotation matrix (better conditioning)
   TURBO    =      0    0=normal 1=particle mesh
   IRESTART =      0    0=no restart 2=restart with 2 vectors
   NREBOOT  =      0    no. of reboots
   NMIN     =      0    reboot dimension
   EREF     =   0.00    reference energy to select bands
   IMIX   =      4    mixing-type and parameters
     AMIX     =   0.40;   BMIX     =  1.00
     AMIX_MAG =   1.60;   BMIX_MAG =  1.00
     AMIN     =   0.10
     WC   =   100.;   INIMIX=   1;  MIXPRE=   1;  MAXMIX= -45

 Intra band minimization:
   WEIMIN = 0.0000     energy-eigenvalue tresh-hold
   EBREAK =  0.78E-08  absolut break condition
   DEPER  =   0.30     relativ break condition  

   TIME   =   0.40     timestep for ELM

  volume/ion in A,a.u.               =    4940.81     33342.21
  Fermi-wavevector in a.u.,A,eV,Ry     =   0.213767  0.403960  0.621734  0.045696
  Thomas-Fermi vector in A             =   0.985879
 
 Write flags
   LWAVE        =      F    write WAVECAR
   LDOWNSAMPLE  =      F    k-point downsampling of WAVECAR
   LCHARG       =      F    write CHGCAR
   LVTOT        =      F    write LOCPOT, total local potential
   LVHAR        =      F    write LOCPOT, Hartree potential only
   LELF         =      F    write electronic localiz. function (ELF)
   LORBIT       =      0    0 simple, 1 ext, 2 COOP (PROOUT), +10 PAW based schemes


 Dipole corrections
   LMONO  =      F    monopole corrections only (constant potential shift)
   LDIPOL =      F    correct potential (dipole corrections)
   IDIPOL =      0    1-x, 2-y, 3-z, 4-all directions 
   EPSILON=  1.0000000 bulk dielectric constant

 Exchange correlation treatment:
   GGA     =    --    GGA type
   LEXCH   =     8    internal setting for exchange type
   LIBXC   =     F    Libxc                    
   VOSKOWN =     0    Vosko Wilk Nusair interpolation
   LHFCALC =     F    Hartree Fock is set to
   LHFONE  =     F    Hartree Fock one center treatment
   AEXX    =    0.0000 exact exchange contribution

 vdW DFT:
   LUSE_VDW   =     T    switch on vdW DFT
   IVDW_NL    =     2    kernel type
   LSPIN_VDW  =     F    use spin-polarized vdW DFT
   Zab_VDW    =-.8491    correlation parameter
   PARAM1     =0.1234
   PARAM2     =1.0000
   PARAM3     =0.0000
   -- rVV10 --
   BPARAM     =11.9500
   CPARAM     = 0.0093

 Linear response parameters
   LEPSILON=     F    determine dielectric tensor
   LRPA    =     F    only Hartree local field effects (RPA)
   LNABLA  =     F    use nabla operator in PAW spheres
   LVEL    =     F    velocity operator in full k-point grid
   CSHIFT  =0.1000    complex shift for real part using Kramers Kronig
   OMEGAMAX=  -1.0    maximum frequency
   DEG_THRESHOLD= 0.2000000E-02 threshold for treating states as degnerate
   RTIME   =   -0.100 relaxation time in fs
  (WPLASMAI=    0.000 imaginary part of plasma frequency in eV, 0.658/RTIME)
   DFIELD  = 0.0000000 0.0000000 0.0000000 field for delta impulse in time
 
  Optional k-point grid parameters
   LKPOINTS_OPT  =     F    use optional k-point grid
   KPOINTS_OPT_MODE=     1    mode for optional k-point grid
 
 Orbital magnetization related:
   ORBITALMAG=     F  switch on orbital magnetization
   LCHIMAG   =     F  perturbation theory with respect to B field
   DQ        =  0.001000  dq finite difference perturbation B field
   LLRAUG    =     F  two centre corrections for induced B field
   LBONE     =     F  B-component reconstruction in AE one-centre
   LVGVCALC  =     T  calculate vGv susceptibility
   LVGVAPPL  =     F  apply vGv susceptibility instead of pGv for G=0

 Random number generation:
   RANDOM_GENERATOR = DEFAULT
   PCG_SEED         = not used


--------------------------------------------------------------------------------------------------------


 Static calculation
 charge density and potential will be updated during run
 non-spin polarized calculation
 Conjugate gradient for all bands (Freysoldt, et al. PRB 79, 241103 (2009))
 preconditioned conjugated gradient                                        
 perform sub-space diagonalisation
    before iterative eigenvector-optimisation
 modified Broyden-mixing scheme, WC =      100.0
 initial mixing is a Kerker type mixing with AMIX =  0.4000 and BMIX =      1.0000
 Hartree-type preconditioning will be used
 using additional bands           21
 real space projection scheme for non local part
 use partial core corrections
 no Harris-corrections to forces 
 use gradient corrections 
 use of overlap-Matrix (Vanderbilt PP)
 Gauss-broadening in eV      SIGMA  =   0.05


--------------------------------------------------------------------------------------------------------


  energy-cutoff  :      520.00
  volume of cell :     9881.61
      direct lattice vectors                 reciprocal lattice vectors
    21.138852197  0.000000000  0.000000000     0.047306258  0.000000000  0.000000000
     0.000000000 21.138852197  0.000000000     0.000000000  0.047306258  0.000000000
     0.000000000  0.000000000 22.113885220     0.000000000  0.000000000  0.045220457

  length of vectors
    21.138852197 21.138852197 22.113885220     0.047306258  0.047306258  0.045220457


 
 k-points in units of 2pi/SCALE and weight: KPOINTS created by Atomic Simulation Env
   0.00000000  0.00000000  0.00000000       1.000
 
 k-points in reciprocal lattice and weights: KPOINTS created by Atomic Simulation Env
   0.00000000  0.00000000  0.00000000       1.000
 
 position of ions in fractional coordinates (direct lattice) 
   0.66152837  0.50000000  0.61831283
   0.53847156  0.50000000  0.61831283
 
 position of ions in cartesian coordinates  (Angst):
  13.98395041 10.56942610 13.67329898
  11.38267073 10.56942610 13.67329898
 


--------------------------------------------------------------------------------------------------------


 k-point   1 :   0.0000 0.0000 0.0000  plane waves:  265979

 maximum and minimum number of plane-waves per node :     16635    16606

 maximum number of plane-waves:    265979
 maximum index in each direction: 
   IXMAX=   39   IYMAX=   39   IZMAX=   41
   IXMIN=  -39   IYMIN=  -39   IZMIN=  -41


 real space projection operators:
  total allocation   :       1499.91 KBytes
  max/ min on nodes  :         99.84         87.89


 parallel 3D FFT for wavefunctions:
    minimum data exchange during FFTs selected (reduces bandwidth)
 parallel 3D FFT for charge:
    minimum data exchange during FFTs selected (reduces bandwidth)


 total amount of memory used by VASP MPI-rank0    68015. kBytes
=======================================================================

   base      :      30000. kBytes
   nonlr-proj:        295. kBytes
   fftplans  :      11482. kBytes
   grid      :      25425. kBytes
   one-center:         15. kBytes
   wavefun   :        798. kBytes
 
     INWAV:  cpu time      0.0001: real time      0.0001
 Broyden mixing: mesh for mixing (old mesh)
   NGX = 79   NGY = 79   NGZ = 83
  (NGX  =320   NGY  =320   NGZ  =336)
  gives a total of 518003 points

 initial charge density was supplied:
 charge density of overlapping atoms calculated
 number of electron      22.0000000 magnetization 
 keeping initial charge density in first step


--------------------------------------------------------------------------------------------------------


 Maximum index for non-local projection operator          313
 Maximum index for augmentation-charges            0 (set IRDMAX)


--------------------------------------------------------------------------------------------------------


 First call to EWALD:  gamma=   0.083
 Maximum number of real-space cells 3x 3x 3
 Maximum number of reciprocal cells 3x 3x 3

    FEWALD:  cpu time      0.0066: real time      0.0066


--------------------------------------- Ionic step        1  -------------------------------------------




--------------------------------------- Iteration      1(   1)  ---------------------------------------


    POTLOK:  cpu time     13.0411: real time     13.0451
    SETDIJ:  cpu time      3.1076: real time      3.1097
    TRIAL :  cpu time      0.3761: real time      0.3763
    CORREC:  cpu time      0.0025: real time      0.0025
    --------------------------------------------
      LOOP:  cpu time     16.5302: real time     16.5376

 eigenvalue-minimisations  :    64
 total energy-change (2. order) : 0.1296586E+03  (-0.2935292E+03)
 number of electron      22.0000000 magnetization 
 augmentation part       22.0000000 magnetization 

 Free energy of the ion-electron system (eV)
  ---------------------------------------------------
  alpha Z        PSCENC =         0.34430737
  Ewald energy   TEWEN  =       212.10453241
  -Hartree energ DENC   =     -2194.49159161
  -exchange      EXHF   =         0.00000000
  -V(xc)+E(xc)   XCENC  =        -1.60000405
  PAW double counting   =      1979.91206585    -1940.33291114
  entropy T*S    EENTRO =        -0.00495052
  eigenvalues    EBANDS =        -0.79842307
  atomic energy  EATOM  =      2074.52556292
  ---------------------------------------------------
  free energy    TOTEN  =       129.65858817 eV

  energy without entropy =      129.66353869  energy(sigma->0) =      129.66106343


--------------------------------------------------------------------------------------------------------




--------------------------------------- Iteration      1(   2)  ---------------------------------------


    TRIAL :  cpu time      0.3410: real time      0.3409
    CORREC:  cpu time      0.0033: real time      0.0033
    --------------------------------------------
      LOOP:  cpu time      0.3468: real time      0.3553

 eigenvalue-minimisations  :    64
 total energy-change (2. order) :-0.2540228E+02  (-0.2535962E+02)
 number of electron      22.0000000 magnetization 
 augmentation part       22.0000000 magnetization 

 Free energy of the ion-electron system (eV)
  ---------------------------------------------------
  alpha Z        PSCENC =         0.34430737
  Ewald energy   TEWEN  =       212.10453241
  -Hartree energ DENC   =     -2194.49159161
  -exchange      EXHF   =         0.00000000
  -V(xc)+E(xc)   XCENC  =        -1.60000405
  PAW double counting   =      1979.91206585    -1940.33291114
  entropy T*S    EENTRO =        -0.08420118
  eigenvalues    EBANDS =       -26.12144933
  atomic energy  EATOM  =      2074.52556292
  ---------------------------------------------------
  free energy    TOTEN  =       104.25631125 eV

  energy without entropy =      104.34051243  energy(sigma->0) =      104.29841184


--------------------------------------------------------------------------------------------------------




--------------------------------------- Iteration      1(   3)  ---------------------------------------


    TRIAL :  cpu time      0.5657: real time      0.5663
    CORREC:  cpu time      0.0009: real time      0.0009
    --------------------------------------------
      LOOP:  cpu time      0.5684: real time      0.5770

 eigenvalue-minimisations  :   128
 total energy-change (2. order) :-0.1441135E+03  (-0.1406535E+03)
 number of electron      22.0000000 magnetization 
 augmentation part       22.0000000 magnetization 

 Free energy of the ion-electron system (eV)
  ---------------------------------------------------
  alpha Z        PSCENC =         0.34430737
  Ewald energy   TEWEN  =       212.10453241
  -Hartree energ DENC   =     -2194.49159161
  -exchange      EXHF   =         0.00000000
  -V(xc)+E(xc)   XCENC  =        -1.60000405
  PAW double counting   =      1979.91206585    -1940.33291114
  entropy T*S    EENTRO =        -0.00000000
  eigenvalues    EBANDS =      -170.31918248
  atomic energy  EATOM  =      2074.52556292
  ---------------------------------------------------
  free energy    TOTEN  =       -39.85722072 eV

  energy without entropy =      -39.85722072  energy(sigma->0) =      -39.85722072


--------------------------------------------------------------------------------------------------------




--------------------------------------- Iteration      1(   4)  ---------------------------------------


    TRIAL :  cpu time      0.3322: real time      0.3322
    CORREC:  cpu time      0.0009: real time      0.0009
    --------------------------------------------
      LOOP:  cpu time      0.3354: real time      0.3431

 eigenvalue-minimisations  :    64
 total energy-change (2. order) :-0.4624791E+01  (-0.4624791E+01)
 number of electron      22.0000000 magnetization 
 augmentation part       22.0000000 magnetization 

 Free energy of the ion-electron system (eV)
  ---------------------------------------------------
  alpha Z        PSCENC =         0.34430737
  Ewald energy   TEWEN  =       212.10453241
  -Hartree energ DENC   =     -2194.49159161
  -exchange      EXHF   =         0.00000000
  -V(xc)+E(xc)   XCENC  =        -1.60000405
  PAW double counting   =      1979.91206585    -1940.33291114
  entropy T*S    EENTRO =        -0.00000000
  eigenvalues    EBANDS =      -174.94397390
  atomic energy  EATOM  =      2074.52556292
  ---------------------------------------------------
  free energy    TOTEN  =       -44.48201214 eV

  energy without entropy =      -44.48201214  energy(sigma->0) =      -44.48201214


--------------------------------------------------------------------------------------------------------




--------------------------------------- Iteration      1(   5)  ---------------------------------------


    TRIAL :  cpu time      0.3316: real time      0.3324
    CORREC:  cpu time      0.0010: real time      0.0010
    CHARGE:  cpu time     17.3044: real time     17.3141
    --------------------------------------------
      LOOP:  cpu time     17.6392: real time     17.6575

 eigenvalue-minimisations  :    64
 total energy-change (2. order) :-0.2305698E-01  (-0.2305698E-01)
 number of electron      22.0000000 magnetization 
 augmentation part       10.4269756 magnetization 

 Free energy of the ion-electron system (eV)
  ---------------------------------------------------
  alpha Z        PSCENC =         0.34430737
  Ewald energy   TEWEN  =       212.10453241
  -Hartree energ DENC   =     -2194.49159161
  -exchange      EXHF   =         0.00000000
  -V(xc)+E(xc)   XCENC  =        -1.60000405
  PAW double counting   =      1979.91206585    -1940.33291114
  entropy T*S    EENTRO =        -0.00000000
  eigenvalues    EBANDS =      -174.96703088
  atomic energy  EATOM  =      2074.52556292
  ---------------------------------------------------
  free energy    TOTEN  =       -44.50506912 eV

  energy without entropy =      -44.50506912  energy(sigma->0) =      -44.50506912


--------------------------------------------------------------------------------------------------------




--------------------------------------- Iteration      1(   6)  ---------------------------------------


    POTLOK:  cpu time     12.2171: real time     12.2217
    SETDIJ:  cpu time      3.2176: real time      3.2193
    TRIAL :  cpu time      0.4161: real time      0.4174
    CORREC:  cpu time     33.1008: real time     33.1184
    CHARGE:  cpu time     17.3197: real time     17.3300
    --------------------------------------------
      LOOP:  cpu time     66.2754: real time     66.3183

 eigenvalue-minimisations  :     0
 total energy-change (2. order) : 0.7877198E+01  (-0.7635711E+00)
 number of electron      22.0000000 magnetization 
 augmentation part       10.7293863 magnetization 

 Free energy of the ion-electron system (eV)
  ---------------------------------------------------
  alpha Z        PSCENC =         0.34430737
  Ewald energy   TEWEN  =       212.10453241
  -Hartree energ DENC   =     -2185.45868843
  -exchange      EXHF   =         0.00000000
  -V(xc)+E(xc)   XCENC  =         3.21214529
  PAW double counting   =      2181.28970513    -2142.78205097
  entropy T*S    EENTRO =        -0.00000000
  eigenvalues    EBANDS =      -179.86338457
  atomic energy  EATOM  =      2074.52556292
  ---------------------------------------------------
  free energy    TOTEN  =       -36.62787087 eV

  energy without entropy =      -36.62787087  energy(sigma->0) =      -36.62787087


--------------------------------------------------------------------------------------------------------




--------------------------------------- Iteration      1(   7)  ---------------------------------------


    POTLOK:  cpu time     12.2220: real time     12.2259
    SETDIJ:  cpu time      3.4522: real time      3.4544
    TRIAL :  cpu time      0.3707: real time      0.3707
    CORREC:  cpu time     33.1291: real time     33.1460
    CHARGE:  cpu time     17.3306: real time     17.3417
    --------------------------------------------
      LOOP:  cpu time     66.5090: real time     66.5517

 eigenvalue-minimisations  :     0
 total energy-change (2. order) :-0.7591294E+00  (-0.9798291E-01)
 number of electron      22.0000000 magnetization 
 augmentation part       10.7175020 magnetization 

 Free energy of the ion-electron system (eV)
  ---------------------------------------------------
  alpha Z        PSCENC =         0.34430737
  Ewald energy   TEWEN  =       212.10453241
  -Hartree energ DENC   =     -2218.72308292
  -exchange      EXHF   =         0.00000000
  -V(xc)+E(xc)   XCENC  =         4.15845893
  PAW double counting   =      2179.67366943    -2141.55992697
  entropy T*S    EENTRO =        -0.00000000
  eigenvalues    EBANDS =      -147.91052147
  atomic energy  EATOM  =      2074.52556292
  ---------------------------------------------------
  free energy    TOTEN  =       -37.38700031 eV

  energy without entropy =      -37.38700031  energy(sigma->0) =      -37.38700031


--------------------------------------------------------------------------------------------------------




--------------------------------------- Iteration      1(   8)  ---------------------------------------


    POTLOK:  cpu time     12.2190: real time     12.2220
    SETDIJ:  cpu time      3.4533: real time      3.4556
    TRIAL :  cpu time      0.3687: real time      0.3695
    CORREC:  cpu time     33.2380: real time     33.2529
    CHARGE:  cpu time     17.2764: real time     17.2866
    --------------------------------------------
      LOOP:  cpu time     66.5620: real time     66.6016

 eigenvalue-minimisations  :     0
 total energy-change (2. order) :-0.9799684E-01  (-0.2047942E-01)
 number of electron      22.0000000 magnetization 
 augmentation part       10.7331687 magnetization 

 Free energy of the ion-electron system (eV)
  ---------------------------------------------------
  alpha Z        PSCENC =         0.34430737
  Ewald energy   TEWEN  =       212.10453241
  -Hartree energ DENC   =     -2207.76563896
  -exchange      EXHF   =         0.00000000
  -V(xc)+E(xc)   XCENC  =         3.82894436
  PAW double counting   =      2153.01387725    -2114.92101984
  entropy T*S    EENTRO =        -0.00000000
  eigenvalues    EBANDS =      -158.61556266
  atomic energy  EATOM  =      2074.52556292
  ---------------------------------------------------
  free energy    TOTEN  =       -37.48499716 eV

  energy without entropy =      -37.48499716  energy(sigma->0) =      -37.48499716


--------------------------------------------------------------------------------------------------------




--------------------------------------- Iteration      1(   9)  ---------------------------------------


    POTLOK:  cpu time     12.1899: real time     12.1938
    SETDIJ:  cpu time      3.4550: real time      3.4575
    TRIAL :  cpu time      0.3701: real time      0.3700
    CORREC:  cpu time     33.0725: real time     33.0891
    CHARGE:  cpu time     17.3205: real time     17.3309
    --------------------------------------------
      LOOP:  cpu time     66.4123: real time     66.4551

 eigenvalue-minimisations  :     0
 total energy-change (2. order) :-0.2053310E-01  (-0.6197243E-02)
 number of electron      22.0000000 magnetization 
 augmentation part       10.7291990 magnetization 

 Free energy of the ion-electron system (eV)
  ---------------------------------------------------
  alpha Z        PSCENC =         0.34430737
  Ewald energy   TEWEN  =       212.10453241
  -Hartree energ DENC   =     -2208.52634883
  -exchange      EXHF   =         0.00000000
  -V(xc)+E(xc)   XCENC  =         3.82014648
  PAW double counting   =      2149.39941842    -2111.33583771
  entropy T*S    EENTRO =        -0.00000000
  eigenvalues    EBANDS =      -157.83731131
  atomic energy  EATOM  =      2074.52556292
  ---------------------------------------------------
  free energy    TOTEN  =       -37.50553025 eV

  energy without entropy =      -37.50553025  energy(sigma->0) =      -37.50553025


--------------------------------------------------------------------------------------------------------




--------------------------------------- Iteration      1(  10)  ---------------------------------------


    POTLOK:  cpu time     12.1706: real time     12.1741
    SETDIJ:  cpu time      3.4463: real time      3.4485
    TRIAL :  cpu time      0.3714: real time      0.3713
    CORREC:  cpu time     33.0686: real time     33.0843
    CHARGE:  cpu time     17.3043: real time     17.3148
    --------------------------------------------
      LOOP:  cpu time     66.3653: real time     66.4053

 eigenvalue-minimisations  :     0
 total energy-change (2. order) :-0.6148194E-02  (-0.1226376E-02)
 number of electron      22.0000000 magnetization 
 augmentation part       10.7332697 magnetization 

 Free energy of the ion-electron system (eV)
  ---------------------------------------------------
  alpha Z        PSCENC =         0.34430737
  Ewald energy   TEWEN  =       212.10453241
  -Hartree energ DENC   =     -2207.36591391
  -exchange      EXHF   =         0.00000000
  -V(xc)+E(xc)   XCENC  =         3.79054977
  PAW double counting   =      2154.57586476    -2116.44662944
  entropy T*S    EENTRO =        -0.00000000
  eigenvalues    EBANDS =      -159.03995232
  atomic energy  EATOM  =      2074.52556292
  ---------------------------------------------------
  free energy    TOTEN  =       -37.51167845 eV

  energy without entropy =      -37.51167845  energy(sigma->0) =      -37.51167845


--------------------------------------------------------------------------------------------------------




--------------------------------------- Iteration      1(  11)  ---------------------------------------


    POTLOK:  cpu time     12.1899: real time     12.1920
    SETDIJ:  cpu time      3.4488: real time      3.4512
    TRIAL :  cpu time      0.3710: real time      0.3709
    CORREC:  cpu time     33.1087: real time     33.1257
    CHARGE:  cpu time     17.3094: real time     17.3204
    --------------------------------------------
      LOOP:  cpu time     66.4319: real time     66.4727

 eigenvalue-minimisations  :     0
 total energy-change (2. order) :-0.1222473E-02  (-0.2225555E-03)
 number of electron      22.0000000 magnetization 
 augmentation part       10.7301407 magnetization 

 Free energy of the ion-electron system (eV)
  ---------------------------------------------------
  alpha Z        PSCENC =         0.34430737
  Ewald energy   TEWEN  =       212.10453241
  -Hartree energ DENC   =     -2207.96650135
  -exchange      EXHF   =         0.00000000
  -V(xc)+E(xc)   XCENC  =         3.81168364
  PAW double counting   =      2160.82097594    -2122.67437459
  entropy T*S    EENTRO =        -0.00000000
  eigenvalues    EBANDS =      -158.47908725
  atomic energy  EATOM  =      2074.52556292
  ---------------------------------------------------
  free energy    TOTEN  =       -37.51290092 eV

  energy without entropy =      -37.51290092  energy(sigma->0) =      -37.51290092


--------------------------------------------------------------------------------------------------------




--------------------------------------- Iteration      1(  12)  ---------------------------------------


    POTLOK:  cpu time     12.2175: real time     12.2207
    SETDIJ:  cpu time      3.4350: real time      3.4373
    TRIAL :  cpu time      0.3711: real time      0.3717
    CORREC:  cpu time     33.2086: real time     33.2254
    CHARGE:  cpu time     17.3450: real time     17.3549
    --------------------------------------------
      LOOP:  cpu time     66.5821: real time     66.6228

 eigenvalue-minimisations  :     0
 total energy-change (2. order) :-0.2240009E-03  (-0.7636205E-04)
 number of electron      22.0000000 magnetization 
 augmentation part       10.7319934 magnetization 

 Free energy of the ion-electron system (eV)
  ---------------------------------------------------
  alpha Z        PSCENC =         0.34430737
  Ewald energy   TEWEN  =       212.10453241
  -Hartree energ DENC   =     -2207.39481583
  -exchange      EXHF   =         0.00000000
  -V(xc)+E(xc)   XCENC  =         3.79542086
  PAW double counting   =      2163.16940414    -2125.01237920
  entropy T*S    EENTRO =        -0.00000000
  eigenvalues    EBANDS =      -159.04515757
  atomic energy  EATOM  =      2074.52556292
  ---------------------------------------------------
  free energy    TOTEN  =       -37.51312492 eV

  energy without entropy =      -37.51312492  energy(sigma->0) =      -37.51312492


--------------------------------------------------------------------------------------------------------




--------------------------------------- Iteration      1(  13)  ---------------------------------------


    POTLOK:  cpu time     12.1880: real time     12.1909
    SETDIJ:  cpu time      3.4519: real time      3.4543
    TRIAL :  cpu time      0.3746: real time      0.3745
    CORREC:  cpu time     33.0876: real time     33.1042
    CHARGE:  cpu time     17.3185: real time     17.3285
    --------------------------------------------
      LOOP:  cpu time     66.4251: real time     66.4658

 eigenvalue-minimisations  :     0
 total energy-change (2. order) :-0.7582233E-04  (-0.1346583E-04)
 number of electron      22.0000000 magnetization 
 augmentation part       10.7319320 magnetization 

 Free energy of the ion-electron system (eV)
  ---------------------------------------------------
  alpha Z        PSCENC =         0.34430737
  Ewald energy   TEWEN  =       212.10453241
  -Hartree energ DENC   =     -2207.60487737
  -exchange      EXHF   =         0.00000000
  -V(xc)+E(xc)   XCENC  =         3.80066494
  PAW double counting   =      2165.52029106    -2127.36383546
  entropy T*S    EENTRO =        -0.00000000
  eigenvalues    EBANDS =      -158.83984660
  atomic energy  EATOM  =      2074.52556292
  ---------------------------------------------------
  free energy    TOTEN  =       -37.51320074 eV

  energy without entropy =      -37.51320074  energy(sigma->0) =      -37.51320074


--------------------------------------------------------------------------------------------------------




--------------------------------------- Iteration      1(  14)  ---------------------------------------


    POTLOK:  cpu time     12.1732: real time     12.1763
    SETDIJ:  cpu time      3.4500: real time      3.4523
    TRIAL :  cpu time      0.3721: real time      0.3719
    CORREC:  cpu time     33.1082: real time     33.1246
    CHARGE:  cpu time     17.3388: real time     17.3495
    --------------------------------------------
      LOOP:  cpu time     66.4465: real time     66.4870

 eigenvalue-minimisations  :     0
 total energy-change (2. order) :-0.1394319E-04  (-0.3085774E-05)
 number of electron      22.0000000 magnetization 
 augmentation part       10.7320431 magnetization 

 Free energy of the ion-electron system (eV)
  ---------------------------------------------------
  alpha Z        PSCENC =         0.34430737
  Ewald energy   TEWEN  =       212.10453241
  -Hartree energ DENC   =     -2207.55424257
  -exchange      EXHF   =         0.00000000
  -V(xc)+E(xc)   XCENC  =         3.79881390
  PAW double counting   =      2166.42903824    -2128.27226236
  entropy T*S    EENTRO =        -0.00000000
  eigenvalues    EBANDS =      -158.88896459
  atomic energy  EATOM  =      2074.52556292
  ---------------------------------------------------
  free energy    TOTEN  =       -37.51321469 eV

  energy without entropy =      -37.51321469  energy(sigma->0) =      -37.51321469


--------------------------------------------------------------------------------------------------------




--------------------------------------- Iteration      1(  15)  ---------------------------------------


    POTLOK:  cpu time     12.1844: real time     12.1883
    SETDIJ:  cpu time      3.4614: real time      3.4638
    TRIAL :  cpu time      0.3808: real time      0.3816
    CORREC:  cpu time     33.1066: real time     33.1238
    CHARGE:  cpu time     17.3267: real time     17.3370
    --------------------------------------------
      LOOP:  cpu time     66.4654: real time     66.5088

 eigenvalue-minimisations  :     0
 total energy-change (2. order) :-0.3186597E-05  (-0.5224336E-06)
 number of electron      22.0000000 magnetization 
 augmentation part       10.7320132 magnetization 

 Free energy of the ion-electron system (eV)
  ---------------------------------------------------
  alpha Z        PSCENC =         0.34430737
  Ewald energy   TEWEN  =       212.10453241
  -Hartree energ DENC   =     -2207.56672899
  -exchange      EXHF   =         0.00000000
  -V(xc)+E(xc)   XCENC  =         3.79903235
  PAW double counting   =      2167.02717396    -2128.87104313
  entropy T*S    EENTRO =        -0.00000000
  eigenvalues    EBANDS =      -158.87605476
  atomic energy  EATOM  =      2074.52556292
  ---------------------------------------------------
  free energy    TOTEN  =       -37.51321787 eV

  energy without entropy =      -37.51321787  energy(sigma->0) =      -37.51321787


--------------------------------------------------------------------------------------------------------




--------------------------------------- Iteration      1(  16)  ---------------------------------------


    POTLOK:  cpu time     12.1246: real time     12.1290
    SETDIJ:  cpu time      3.4562: real time      3.4585
    TRIAL :  cpu time      0.3726: real time      0.3725
    CORREC:  cpu time     33.1858: real time     33.2013
    EDDIAG:  cpu time      0.1555: real time      0.1555
    CHARGE:  cpu time     17.3449: real time     17.3559
    --------------------------------------------
      LOOP:  cpu time     66.6436: real time     66.6855

 eigenvalue-minimisations  :     0
 total energy-change (2. order) :-0.5555521E-06  (-0.1955085E-06)
 number of electron      22.0000000 magnetization 
 augmentation part       10.7320374 magnetization 

 Free energy of the ion-electron system (eV)
  ---------------------------------------------------
  alpha Z        PSCENC =         0.34430737
  Ewald energy   TEWEN  =       212.10453241
  -Hartree energ DENC   =     -2207.56121243
  -exchange      EXHF   =         0.00000000
  -V(xc)+E(xc)   XCENC  =         3.79886307
  PAW double counting   =      2167.32489722    -2129.16892002
  entropy T*S    EENTRO =        -0.00000000
  eigenvalues    EBANDS =      -158.88124896
  atomic energy  EATOM  =      2074.52556292
  ---------------------------------------------------
  free energy    TOTEN  =       -37.51321843 eV

  energy without entropy =      -37.51321843  energy(sigma->0) =      -37.51321843


--------------------------------------------------------------------------------------------------------


  average scaling for gradient   1.5719


 average (electrostatic) potential at core
  the test charge radii are     1.1249
  (the norm of the test charge is              1.0000)
       1 -86.9760       2 -86.9760
 
 
 
 E-fermi :  -4.8418     XC(G=0):  -0.0646     alpha+bet : -0.0465

 Fermi energy:        -4.8417885318

 k-point     1 :       0.0000    0.0000    0.0000
  band No.  band energies     occupation 
      1      -8.3845      2.00000
      2      -7.9140      2.00000
      3      -7.9140      2.00000
      4      -7.4325      2.00000
      5      -7.4323      2.00000
      6      -7.2453      2.00000
      7      -7.2453      2.00000
      8      -6.9786      2.00000
      9      -6.9786      2.00000
     10      -6.8263      2.00000
     11      -5.0879      2.00000
     12      -2.8482      0.00000
     13      -0.7858      0.00000
     14      -0.7857      0.00000
     15      -0.2968      0.00000
     16       0.1265      0.00000
     17       0.4057      0.00000
     18       0.4177      0.00000
     19       0.4219      0.00000
     20       0.4234      0.00000
     21       0.4477      0.00000
     22       0.5123      0.00000
     23       0.6334      0.00000
     24       0.6479      0.00000
     25       0.7236      0.00000
     26       0.7262      0.00000
     27       0.7284      0.00000
     28       0.7398      0.00000
     29       0.7493      0.00000
     30       0.7572      0.00000
     31       0.7708      0.00000
     32       0.8022      0.00000


--------------------------------------------------------------------------------------------------------


 soft charge-density along one line, spin component           1
         0         1         2         3         4         5         6         7         8         9
 total charge-density along one line
 
 pseudopotential strength for first ion, spin component:           1
-10.645   0.000   0.000   0.000  -0.000 -10.628   0.000   0.000
  0.000 -10.626  -0.000   0.000  -0.000   0.000 -10.611  -0.000
  0.000  -0.000 -10.633   0.000   0.013   0.000  -0.000 -10.618
  0.000   0.000   0.000 -10.645   0.000   0.000   0.000   0.000
 -0.000  -0.000   0.013   0.000 -10.649  -0.000  -0.000   0.012
-10.628   0.000   0.000   0.000  -0.000 -10.588   0.000   0.000
  0.000 -10.611  -0.000   0.000  -0.000   0.000 -10.572  -0.000
  0.000  -0.000 -10.618   0.000   0.012   0.000  -0.000 -10.578
  0.000   0.000   0.000 -10.628   0.000   0.000   0.000   0.000
 -0.000  -0.000   0.012   0.000 -10.632  -0.000  -0.000   0.011
 -0.000  -0.000  -0.010  -0.000   0.017  -0.000  -0.000  -0.010
 -0.000  -0.000  -0.016  -0.000   0.029  -0.000  -0.000  -0.016
  0.040  -0.000  -0.000   0.000  -0.000   0.038  -0.000  -0.000
  0.000   0.000  -0.000   0.040   0.000   0.000   0.000  -0.000
  0.000   0.000  -0.022  -0.000   0.038   0.000   0.000  -0.021
  0.047  -0.000  -0.000   0.000  -0.000   0.044  -0.000  -0.000
  0.000   0.000  -0.000   0.047   0.000   0.000   0.000  -0.000
  0.000   0.000  -0.027  -0.000   0.046   0.000   0.000  -0.025
 total augmentation occupancy for first ion, spin component:           1
  2.442   0.000   0.000   0.000   0.000  -0.348   0.000  -0.000   0.000   0.000   0.000   0.000   0.003   0.000   0.000   0.030
  0.000   2.334   0.000   0.000   0.000   0.000  -0.178   0.000   0.000   0.000   0.000   0.000   0.000   0.000   0.000   0.000
  0.000   0.000   2.441   0.000  -0.186   0.000   0.000  -0.329   0.000   0.261   0.620  -0.153  -0.000   0.000  -0.065   0.000
  0.000   0.000   0.000   2.442   0.000   0.000   0.000   0.000  -0.348   0.000   0.000   0.000   0.000   0.003  -0.000   0.000
  0.000   0.000  -0.186   0.000   2.656   0.000   0.000   0.261   0.000  -0.630  -1.074   0.266  -0.000   0.000   0.113   0.000
 -0.348   0.000   0.000   0.000   0.000   0.244   0.000   0.000   0.000   0.000   0.000   0.000  -0.035   0.000  -0.000   0.001
  0.000  -0.178   0.000   0.000   0.000   0.000   0.022   0.000   0.000  -0.000   0.000  -0.000   0.000   0.000   0.000   0.000
 -0.000   0.000  -0.329   0.000   0.261   0.000   0.000   0.211   0.000  -0.327  -0.519   0.124   0.000   0.000   0.095   0.000
  0.000   0.000   0.000  -0.348   0.000   0.000   0.000   0.000   0.244   0.000   0.000  -0.000  -0.000  -0.035   0.000  -0.000
  0.000   0.000   0.261   0.000  -0.630   0.000   0.000  -0.327   0.000   0.589   0.899  -0.214  -0.000   0.000  -0.164  -0.000
  0.000   0.000   0.620   0.000  -1.074   0.000   0.000  -0.519   0.000   0.899   2.665  -0.567  -0.000   0.000  -0.319   0.000
  0.000   0.000  -0.153   0.000   0.266   0.000  -0.000   0.124  -0.000  -0.214  -0.567   0.123   0.000   0.000   0.072  -0.000
  0.003   0.000  -0.000   0.000  -0.000  -0.035   0.000   0.000  -0.000  -0.000  -0.000   0.000   0.006  -0.000   0.000  -0.001
  0.000   0.000   0.000   0.003   0.000   0.000   0.000   0.000  -0.035   0.000   0.000   0.000  -0.000   0.006   0.000  -0.000
  0.000   0.000  -0.065  -0.000   0.113  -0.000   0.000   0.095   0.000  -0.164  -0.319   0.072   0.000   0.000   0.052   0.000
  0.030   0.000  -0.000   0.000   0.000   0.001   0.000   0.000  -0.000  -0.000   0.000  -0.000  -0.001  -0.000   0.000   0.001
  0.000   0.000   0.000   0.030   0.000   0.000   0.000   0.000   0.001   0.000   0.000   0.000   0.000  -0.001   0.000   0.000
  0.000   0.000  -0.009  -0.000   0.015   0.000   0.000  -0.010   0.000   0.016   0.030  -0.007   0.000   0.000  -0.006   0.000


------------------------ aborting loop because EDIFF is reached ----------------------------------------


    FORLOC:  cpu time      0.0044: real time      0.0044
    FORNL :  cpu time      0.0427: real time      0.0427
    STRESS:  cpu time     16.9158: real time     16.9255
    FORCOR:  cpu time     12.1107: real time     12.1152
    OFIELD:  cpu time      0.0004: real time      0.0004

  FORCE on cell =-STRESS in cart. coord.  units (eV):
  Direction    XX          YY          ZZ          XY          YZ          ZX
  --------------------------------------------------------------------------------------
  Alpha Z     0.34431     0.34431     0.34431
  Ewald     528.37282  -147.66089  -168.60749    -0.00000    -0.00000     0.00000
  Hartree  1075.14466   576.59892   555.82083    -0.00000     0.00000     0.00000
  E(xc)    -126.66024  -126.98123  -126.98089     0.00001    -0.00001    -0.00001
  Local   -1912.02352  -746.92509  -705.20072     0.00000    -0.00000    -0.00000
  n-local   -28.16031   -24.62210   -24.62676    -0.00024     0.00035     0.00024
  augment   190.21294   191.72596   191.72755     0.00000    -0.00000     0.00000
  Kinetic   271.53484   277.49773   277.49765     0.00024    -0.00035    -0.00024
  Fock        0.00000     0.00000     0.00000     0.00000     0.00000     0.00000
  -------------------------------------------------------------------------------------
  Total      -1.23451    -0.02239    -0.02551     0.00000     0.00000     0.00000
  in kB      -0.20016    -0.00363    -0.00414     0.00000     0.00000     0.00000
  external pressure =       -0.07 kB  Pullay stress =        0.00 kB


 VOLUME and BASIS-vectors are now :
 -----------------------------------------------------------------------------
  energy-cutoff  :      520.00
  volume of cell :     9881.61
      direct lattice vectors                 reciprocal lattice vectors
    21.138852197  0.000000000  0.000000000     0.047306258  0.000000000  0.000000000
     0.000000000 21.138852197  0.000000000     0.000000000  0.047306258  0.000000000
     0.000000000  0.000000000 22.113885220     0.000000000  0.000000000  0.045220457

  length of vectors
    21.138852197 21.138852197 22.113885220     0.047306258  0.047306258  0.045220457


 FORCES acting on ions:
    Electron-Ion                     Ewald-Force                    Non-Local-Force
 -----------------------------------------------------------------------------------------------
   -.264E+03 -.980E-06 -.497E-04   0.255E+03 -.891E-17 0.652E-19   0.823E+01 0.369E-21 0.158E-18
   0.264E+03 -.980E-06 -.482E-04   -.255E+03 0.145E-16 -.126E-16   -.823E+01 0.368E-21 0.129E-18
 -----------------------------------------------------------------------------------------------
   0.880E-06 -.200E-05 -.324E-03   0.000E+00 0.555E-17 -.125E-16   0.178E-14 0.736E-21 0.287E-18
 
 
 POSITION                                       TOTAL-FORCE (eV/Angst)
 -----------------------------------------------------------------------------------
     13.98395     10.56943     13.67330        -0.467701     -0.000000      0.000000
     11.38267     10.56943     13.67330         0.467701      0.000000     -0.000000
 -----------------------------------------------------------------------------------
    total drift:                                0.000001     -0.000002     -0.000324


--------------------------------------------------------------------------------------------------------



  FREE ENERGIE OF THE ION-ELECTRON SYSTEM (eV)
  ---------------------------------------------------
  free  energy   TOTEN  =       -37.51321843 eV

  energy  without entropy=      -37.51321843  energy(sigma->0) =      -37.51321843
 


--------------------------------------------------------------------------------------------------------


    POTLOK:  cpu time     15.5325: real time     15.5385


--------------------------------------------------------------------------------------------------------


     LOOP+:  cpu time    814.4820: real time    815.0191
    4ORBIT:  cpu time      0.0000: real time      0.0000

 total amount of memory used by VASP MPI-rank0    68015. kBytes
=======================================================================

   base      :      30000. kBytes
   nonlr-proj:        295. kBytes
   fftplans  :      11482. kBytes
   grid      :      25425. kBytes
   one-center:         15. kBytes
   wavefun   :        798. kBytes
 
  
  
 General timing and accounting informations for this job:
 ========================================================
  
                  Total CPU time used (sec):      828.655
                            User time (sec):      821.763
                          System time (sec):        6.892
                         Elapsed time (sec):      829.851
  
                   Maximum memory used (kb):     1593400.
                   Average memory used (kb):          N/A
  
                          Minor page faults:        69392
                          Major page faults:            0
                 Voluntary context switches:         7596
