 vasp.6.3.0 20Jan22 (build Apr  1 2022 16:44:48) complex                         
 executed on        HPECrayEX_GCC date 2023.01.06  21:34:29
 running  768 mpi-ranks, with    1 threads/rank
 distrk:  each k-point on  384 cores,    2 groups
 distr:  one band on NCORE=   4 cores,   96 groups


--------------------------------------------------------------------------------------------------------


 INCAR:
   SYSTEM = MgO-rocksalt
   ISMEAR = 0
   SIGMA = 0.05
   EDIFF = 1E-6
   ALGO = ALL
   ISTART = 0
   IBRION = -1
   NSW = 0
   ISYM = 2
   GGA = RE
   LUSE_VDW = .TRUE.
   AGGAC = 0.0
   ENCUT = 520
   PREC = Accurate
   LASPH = .TRUE.
   LREAL = Auto
   ISPIN = 1
   NELM = 200
   NELMIN = 8
   NCORE = 4
   KPAR = 2
   LWAVE = .FALSE.
   LCHARG = .FALSE.

 POTCAR:    PAW_PBE Ag 02Apr2005                  
 -----------------------------------------------------------------------------
|                                                                             |
|               ----> ADVICE to this user running VASP <----                  |
|                                                                             |
|     You have switched on vdW-DFT.                                           |
|     This routine was written and supplied by Jiri Klimes. We recommend      |
|     that you carefully read and cite the following publications:            |
|       J. Klimes, D.R. Bowler, A. Michelides                                 |
|          J. Phys.: Cond Matt. 22 022201 (2010)                              |
|       J. Klimes, D.R. Bowler, A. Michelides                                 |
|          Phys. Rev. B. 83, 195131 (2011)                                    |
|     and references therein.                                                 |
|                                                                             |
 -----------------------------------------------------------------------------

 POTCAR:    PAW_PBE Ag 02Apr2005                  
   SHA256 =  6550cfa3543261e132c169e1b98a529204624d72be14e2da2e0242bcb74a174d Ag/POTCAR             
   COPYR  = (c) Copyright 02Apr2005 Georg Kresse                                                    
   COPYR  = This file is part of the software VASP. Any use, copying, and all other rights are regul
   COPYR  = If you do not have a valid VASP license, you may not use, copy or distribute this file. 
   VRHFIN =Ag : s1 d10                                                                              
   LEXCH  = PE                                                                                      
   EATOM  =  1037.2675 eV,   76.2370 Ry                                                             
                                                                                                    
   TITEL  = PAW_PBE Ag 02Apr2005                                                                    
   LULTRA =        F    use ultrasoft PP ?                                                          
   IUNSCR =        1    unscreen: 0-lin 1-nonlin 2-no                                               
   RPACOR =    2.000    partial core radius                                                         
   POMASS =  107.868; ZVAL   =   11.000    mass and valenz                                          
   RCORE  =    2.500    outmost cutoff radius                                                       
   RWIGS  =    2.840; RWIGS  =    1.503    wigner-seitz radius (au A)                               
   ENMAX  =  249.844; ENMIN  =  187.383 eV                                                          
   ICORE  =        3    local potential                                                             
   LCOR   =        T    correct aug charges                                                         
   LPAW   =        T    paw PP                                                                      
   EAUG   =  412.496                                                                                
   DEXC   =    0.000                                                                                
   RMAX   =    2.560    core radius for proj-oper                                                   
   RAUG   =    1.300    factor for augmentation sphere                                              
   RDEP   =    2.576    radius for radial grids                                                     
   RDEPT  =    2.072    core radius for aug-charge                                                  
                                                                                                    
   Atomic configuration                                                                             
   12 entries                                                                                       
     n  l   j            E        occ.                                                              
     1  0  0.50    -25324.9161   2.0000                                                             
     2  0  0.50     -3728.5341   2.0000                                                             
     2  1  1.50     -3344.0404   6.0000                                                             
     3  0  0.50      -683.5581   2.0000                                                             
     3  1  1.50      -557.3225   6.0000                                                             
     3  2  2.50      -358.3853  10.0000                                                             
     4  0  0.50       -95.0341   2.0000                                                             
     4  1  1.50       -58.5511   6.0000                                                             
     4  2  2.50        -7.4440  10.0000                                                             
     5  0  0.50        -4.4045   1.0000                                                             
     5  1  0.50        -1.3606   0.0000                                                             
     4  3  2.50        -1.3606   0.0000                                                             
   Description                                                                                      
     l       E           TYP  RCUT    TYP  RCUT                                                     
     2     -7.4439781     23  2.400                                                                 
     2     -8.8045607     23  2.400                                                                 
     0     -4.4044681     23  2.400                                                                 
     0      1.9520038     23  2.400                                                                 
     1     -1.3605826     23  2.500                                                                 
     1     27.2116520     23  2.500                                                                 
     3     -4.0817478     23  2.400                                                                 
  local pseudopotential read in
  partial core-charges read in
  partial kinetic energy density read in
  atomic valenz-charges read in
  non local Contribution for L=           2  read in
    real space projection operators read in
  non local Contribution for L=           2  read in
    real space projection operators read in
  non local Contribution for L=           0  read in
    real space projection operators read in
  non local Contribution for L=           0  read in
    real space projection operators read in
  non local Contribution for L=           1  read in
    real space projection operators read in
  non local Contribution for L=           1  read in
    real space projection operators read in
    PAW grid and wavefunctions read in

   number of l-projection  operators is LMAX  =           6
   number of lm-projection operators is LMMAX =          18

 -----------------------------------------------------------------------------
|                                                                             |
|               ----> ADVICE to this user running VASP <----                  |
|                                                                             |
|     You have a (more or less) 'small supercell' and for smaller cells       |
|     it is recommended to use the reciprocal-space projection scheme!        |
|     The real-space optimization is not efficient for small cells and it     |
|     is also less accurate ...                                               |
|     Therefore, set LREAL=.FALSE. in the INCAR file.                         |
|                                                                             |
 -----------------------------------------------------------------------------

 Optimization of the real space projectors (new method)

 maximal supplied QI-value         = 15.12
 optimisation between [QCUT,QGAM] = [ 11.64, 23.28] = [ 37.95,151.78] Ry 
 Optimized for a Real-space Cutoff    1.45 Angstroem

   l    n(q)    QCUT    max X(q) W(low)/X(q) W(high)/X(q)  e(spline) 
   2      9    11.641    53.897    0.22E-03    0.42E-04    0.28E-06
   2      9    11.641    52.416    0.23E-03    0.44E-04    0.29E-06
   0     10    11.641   122.045    0.51E-04    0.25E-04    0.16E-06
   0     10    11.641    73.629    0.49E-04    0.24E-04    0.16E-06
   1     10    11.641    15.255    0.99E-04    0.55E-04    0.11E-06
   1     10    11.641     9.562    0.81E-04    0.47E-04    0.95E-07
 -----------------------------------------------------------------------------
|                                                                             |
|               ----> ADVICE to this user running VASP <----                  |
|                                                                             |
|     You enforced a specific xc type in the INCAR file but a different       |
|     type was found in the POTCAR file.                                      |
|     I HOPE YOU KNOW WHAT YOU ARE DOING!                                     |
|                                                                             |
 -----------------------------------------------------------------------------

  PAW_PBE Ag 02Apr2005                  :
 energy of atom  1       EATOM=-1037.2675
 kinetic energy error for atom=    0.0047 (will be added to EATOM!!)


 POSCAR: Ag
  positions in direct lattice
  velocities in cartesian coordinates
 exchange correlation table for  LEXCH =       40
   RHO(1)=    0.500       N(1)  =     2000
   RHO(2)=  100.500       N(2)  =     4000



--------------------------------------------------------------------------------------------------------


 ion  position               nearest neighbor table
   1  0.653  0.423  0.456-   7 2.66   6 2.73   5 2.80
   2  0.432  0.574  0.519-   3 2.69   4 2.70   8 2.72   6 2.78
   3  0.344  0.533  0.612-   4 2.69   2 2.69
   4  0.454  0.460  0.586-   3 2.69   2 2.70   5 2.72   6 2.78
   5  0.564  0.386  0.557-   6 2.67   4 2.72   1 2.80
   6  0.544  0.499  0.488-   5 2.67   8 2.67   1 2.73   7 2.73   4 2.78   2 2.78
   7  0.632  0.536  0.390-   1 2.66   6 2.73   8 2.80
   8  0.521  0.614  0.424-   6 2.67   2 2.72   7 2.80

  LATTYP: Found a simple cubic cell.
 ALAT       =    20.0000000000
  
  Lattice vectors:
  
 A1 = (  20.0000000000,   0.0000000000,   0.0000000000)
 A2 = (   0.0000000000,  20.0000000000,   0.0000000000)
 A3 = (   0.0000000000,   0.0000000000,  20.0000000000)


Analysis of symmetry for initial positions (statically):
=====================================================================
 Subroutine PRICEL returns:
 Original cell was already a primitive cell.
 

 Routine SETGRP: Setting up the symmetry group for a 
 simple cubic supercell.


 Subroutine GETGRP returns: Found  1 space group operations
 (whereof  1 operations were pure point group operations)
 out of a pool of 48 trial point group operations.


The static configuration has the point symmetry C_1 .


Analysis of symmetry for dynamics (positions and initial velocities):
=====================================================================
 Subroutine PRICEL returns:
 Original cell was already a primitive cell.
 

 Routine SETGRP: Setting up the symmetry group for a 
 simple cubic supercell.


 Subroutine GETGRP returns: Found  1 space group operations
 (whereof  1 operations were pure point group operations)
 out of a pool of 48 trial point group operations.


The dynamic configuration has the point symmetry C_1 .


 Subroutine INISYM returns: Found  1 space group operations
 (whereof  1 operations are pure point group operations),
 and found     1 'primitive' translations


----------------------------------------------------------------------------------------

                                     Primitive cell                                     

  volume of cell :    8000.0000

  direct lattice vectors                    reciprocal lattice vectors
    20.000000000  0.000000000  0.000000000     0.050000000  0.000000000  0.000000000
     0.000000000 20.000000000  0.000000000     0.000000000  0.050000000  0.000000000
     0.000000000  0.000000000 20.000000000     0.000000000  0.000000000  0.050000000

  length of vectors
    20.000000000 20.000000000 20.000000000     0.050000000  0.050000000  0.050000000

  position of ions in fractional coordinates (direct lattice)
     0.653291393  0.422751516  0.455986449
     0.431676485  0.574439612  0.518785525
     0.344069007  0.533366876  0.612338170
     0.453528739  0.459663708  0.585969168
     0.563675321  0.385796973  0.556924968
     0.544417773  0.498859129  0.488206786
     0.631722990  0.535980011  0.389779596
     0.520516735  0.613638741  0.423922982

  ion indices of the primitive-cell ions
   primitive index   ion index
                 1           1
                 2           2
                 3           3
                 4           4
                 5           5
                 6           6
                 7           7
                 8           8

----------------------------------------------------------------------------------------



 KPOINTS: KPOINTS created by Atomic Simulation Env

Automatic generation of k-mesh.
 Grid dimensions read from file:
 generate k-points for:    1    1    1

 Generating k-lattice:

  Cartesian coordinates                     Fractional coordinates (reciprocal lattice)
     0.050000000  0.000000000  0.000000000     1.000000000  0.000000000  0.000000000
     0.000000000  0.050000000  0.000000000     0.000000000  1.000000000  0.000000000
     0.000000000  0.000000000  0.050000000     0.000000000  0.000000000  1.000000000

  Length of vectors
     0.050000000  0.050000000  0.050000000

  Shift w.r.t. Gamma in fractional coordinates (k-lattice)
     0.000000000  0.000000000  0.000000000

 
 Subroutine IBZKPT returns following result:
 ===========================================
 
 Found      1 irreducible k-points:
 
 Following reciprocal coordinates:
            Coordinates               Weight
  0.000000  0.000000  0.000000      1.000000
 
 Following cartesian coordinates:
            Coordinates               Weight
  0.000000  0.000000  0.000000      1.000000
 


--------------------------------------------------------------------------------------------------------




 Dimension of arrays:
   k-points           NKPTS =      1   k-points in BZ     NKDIM =      1   number of bands    NBANDS=     96
   number of dos      NEDOS =    301   number of ions     NIONS =      8
   non local maximal  LDIM  =      6   non local SUM 2l+1 LMDIM =     18
   total plane-waves  NPLWV = ******
   max r-space proj   IRMAX =   5390   max aug-charges    IRDMAX=  20940
   dimension x,y,z NGX =   150 NGY =  150 NGZ =  150
   dimension x,y,z NGXF=   300 NGYF=  300 NGZF=  300
   support grid    NGXF=   300 NGYF=  300 NGZF=  300
   ions per type =               8
   NGX,Y,Z   is equivalent  to a cutoff of  12.47, 12.47, 12.47 a.u.
   NGXF,Y,Z  is equivalent  to a cutoff of  24.94, 24.94, 24.94 a.u.

 SYSTEM =  MgO-rocksalt                            
 POSCAR =  Ag                                      

 Startparameter for this run:
   NWRITE =      2    write-flag & timer
   PREC   = accura    normal or accurate (medium, high low for compatibility)
   ISTART =      0    job   : 0-new  1-cont  2-samecut
   ICHARG =      2    charge: 1-file 2-atom 10-const
   ISPIN  =      1    spin polarized calculation?
   LNONCOLLINEAR =      F non collinear calculations
   LSORBIT =      F    spin-orbit coupling
   INIWAV =      1    electr: 0-lowe 1-rand  2-diag
   LASPH  =      T    aspherical Exc in radial PAW
 Electronic Relaxation 1
   ENCUT  =  520.0 eV  38.22 Ry    6.18 a.u.  37.19 37.19 37.19*2*pi/ulx,y,z
   ENINI  =  520.0     initial cutoff
   ENAUG  =  412.5 eV  augmentation charge cutoff
   NELM   =    200;   NELMIN=  8; NELMDL= -5     # of ELM steps 
   EDIFF  = 0.1E-05   stopping-criterion for ELM
   LREAL  =      T    real-space projection
   NLSPLINE    = F    spline interpolate recip. space projectors
   LCOMPAT=      F    compatible to vasp.4.4
   GGA_COMPAT  = T    GGA compatible to vasp.4.4-vasp.4.6
   LMAXPAW     = -100 max onsite density
   LMAXMIX     =    2 max onsite mixed and CHGCAR
   VOSKOWN=      0    Vosko Wilk Nusair interpolation
   ROPT   =   -0.00025
 Ionic relaxation
   EDIFFG = 0.1E-04   stopping-criterion for IOM
   NSW    =      0    number of steps for IOM
   NBLOCK =      1;   KBLOCK =      1    inner block; outer block 
   IBRION =     -1    ionic relax: 0-MD 1-quasi-New 2-CG
   NFREE  =      0    steps in history (QN), initial steepest desc. (CG)
   ISIF   =      2    stress and relaxation
   IWAVPR =     10    prediction:  0-non 1-charg 2-wave 3-comb
   ISYM   =      2    0-nonsym 1-usesym 2-fastsym
   LCORR  =      T    Harris-Foulkes like correction to forces

   POTIM  = 0.5000    time-step for ionic-motion
   TEIN   =    0.0    initial temperature
   TEBEG  =    0.0;   TEEND  =   0.0 temperature during run
   SMASS  =  -3.00    Nose mass-parameter (am)
   estimated Nose-frequenzy (Omega)   =  0.10E-29 period in steps = 0.13E+47 mass=  -0.914E-26a.u.
   SCALEE = 1.0000    scale energy and forces
   NPACO  =    256;   APACO  = 10.0  distance and # of slots for P.C.
   PSTRESS=    0.0 pullay stress

  Mass of Ions in am
   POMASS = 107.87
  Ionic Valenz
   ZVAL   =  11.00
  Atomic Wigner-Seitz radii
   RWIGS  =  -1.00
  virtual crystal weights 
   VCA    =   1.00
   NELECT =      88.0000    total number of electrons
   NUPDOWN=      -1.0000    fix difference up-down

 DOS related values:
   EMIN   =  10.00;   EMAX   =-10.00  energy-range for DOS
   EFERMI =   0.00
   ISMEAR =     0;   SIGMA  =   0.05  broadening in eV -4-tet -1-fermi 0-gaus

 Electronic relaxation 2 (details)
   IALGO  =     58    algorithm
   LDIAG  =      T    sub-space diagonalisation (order eigenvalues)
   LSUBROT=      F    optimize rotation matrix (better conditioning)
   TURBO    =      0    0=normal 1=particle mesh
   IRESTART =      0    0=no restart 2=restart with 2 vectors
   NREBOOT  =      0    no. of reboots
   NMIN     =      0    reboot dimension
   EREF     =   0.00    reference energy to select bands
   IMIX   =      4    mixing-type and parameters
     AMIX     =   0.40;   BMIX     =  1.00
     AMIX_MAG =   1.60;   BMIX_MAG =  1.00
     AMIN     =   0.10
     WC   =   100.;   INIMIX=   1;  MIXPRE=   1;  MAXMIX= -45

 Intra band minimization:
   WEIMIN = 0.0000     energy-eigenvalue tresh-hold
   EBREAK =  0.26E-08  absolut break condition
   DEPER  =   0.30     relativ break condition  

   TIME   =   0.40     timestep for ELM

  volume/ion in A,a.u.               =    1000.00      6748.33
  Fermi-wavevector in a.u.,A,eV,Ry     =   0.364087  0.688026  1.803584  0.132560
  Thomas-Fermi vector in A             =   1.286639

 Write flags
   LWAVE        =      F    write WAVECAR
   LDOWNSAMPLE  =      F    k-point downsampling of WAVECAR
   LCHARG       =      F    write CHGCAR
   LVTOT        =      F    write LOCPOT, total local potential
   LVHAR        =      F    write LOCPOT, Hartree potential only
   LELF         =      F    write electronic localiz. function (ELF)
   LORBIT       =      0    0 simple, 1 ext, 2 COOP (PROOUT), +10 PAW based schemes


 Dipole corrections
   LMONO  =      F    monopole corrections only (constant potential shift)
   LDIPOL =      F    correct potential (dipole corrections)
   IDIPOL =      0    1-x, 2-y, 3-z, 4-all directions 
   EPSILON=  1.0000000 bulk dielectric constant

 Exchange correlation treatment:
   GGA     =    RE    GGA type
   LEXCH   =    40    internal setting for exchange type
   LIBXC   =     F    Libxc                    
   VOSKOWN =     0    Vosko Wilk Nusair interpolation
   LHFCALC =     F    Hartree Fock is set to
   LHFONE  =     F    Hartree Fock one center treatment
   AEXX    =    0.0000 exact exchange contribution

 vdW DFT:
   LUSE_VDW   =     T    switch on vdW DFT
   Zab_VDW    =-.8491    correlation parameter
   PARAM1     =0.1234
   PARAM2     =1.0000
   PARAM3     =0.0000
   -- rVV10 --
   BPARAM     = 6.3000
   CPARAM     = 0.0093

 Linear response parameters
   LEPSILON=     F    determine dielectric tensor
   LRPA    =     F    only Hartree local field effects (RPA)
   LNABLA  =     F    use nabla operator in PAW spheres
   LVEL    =     F    velocity operator in full k-point grid
   CSHIFT  =0.1000    complex shift for real part using Kramers Kronig
   OMEGAMAX=  -1.0    maximum frequency
   DEG_THRESHOLD= 0.2000000E-02 threshold for treating states as degnerate
   RTIME   =   -0.100 relaxation time in fs
  (WPLASMAI=    0.000 imaginary part of plasma frequency in eV, 0.658/RTIME)
   DFIELD  = 0.0000000 0.0000000 0.0000000 field for delta impulse in time

  Optional k-point grid parameters
   LKPOINTS_OPT  =     F    use optional k-point grid
   KPOINTS_OPT_MODE=     1    mode for optional k-point grid

 Orbital magnetization related:
   ORBITALMAG=     F  switch on orbital magnetization
   LCHIMAG   =     F  perturbation theory with respect to B field
   DQ        =  0.001000  dq finite difference perturbation B field
   LLRAUG    =     F  two centre corrections for induced B field



--------------------------------------------------------------------------------------------------------


 Static calculation
 charge density and potential will be updated during run
 non-spin polarized calculation
 Conjugate gradient for all bands (Freysoldt, et al. PRB 79, 241103 (2009))
 preconditioned conjugated gradient                                        
 perform sub-space diagonalisation
    before iterative eigenvector-optimisation
 modified Broyden-mixing scheme, WC =      100.0
 initial mixing is a Kerker type mixing with AMIX =  0.4000 and BMIX =      1.0000
 Hartree-type preconditioning will be used
 using additional bands           52
 real space projection scheme for non local part
 use partial core corrections
 no Harris-corrections to forces 
 use gradient corrections 
 use of overlap-Matrix (Vanderbilt PP)
 Gauss-broadening in eV      SIGMA  =   0.05


--------------------------------------------------------------------------------------------------------


  energy-cutoff  :      520.00
  volume of cell :     8000.00
      direct lattice vectors                 reciprocal lattice vectors
    20.000000000  0.000000000  0.000000000     0.050000000  0.000000000  0.000000000
     0.000000000 20.000000000  0.000000000     0.000000000  0.050000000  0.000000000
     0.000000000  0.000000000 20.000000000     0.000000000  0.000000000  0.050000000

  length of vectors
    20.000000000 20.000000000 20.000000000     0.050000000  0.050000000  0.050000000



 k-points in units of 2pi/SCALE and weight: KPOINTS created by Atomic Simulation Env
   0.00000000  0.00000000  0.00000000       1.000

 k-points in reciprocal lattice and weights: KPOINTS created by Atomic Simulation Env
   0.00000000  0.00000000  0.00000000       1.000

 position of ions in fractional coordinates (direct lattice) 
   0.65329139  0.42275152  0.45598645
   0.43167649  0.57443961  0.51878552
   0.34406901  0.53336688  0.61233817
   0.45352874  0.45966371  0.58596917
   0.56367532  0.38579697  0.55692497
   0.54441777  0.49885913  0.48820679
   0.63172299  0.53598001  0.38977960
   0.52051673  0.61363874  0.42392298

 position of ions in cartesian coordinates  (Angst):
  13.06582786  8.45503032  9.11972898
   8.63352971 11.48879224 10.37571050
   6.88138014 10.66733752 12.24676340
   9.07057478  9.19327416 11.71938336
  11.27350643  7.71593945 11.13849936
  10.88835546  9.97718258  9.76413571
  12.63445979 10.71960022  7.79559192
  10.41033470 12.27277482  8.47845963



--------------------------------------------------------------------------------------------------------


 k-point   1 :   0.0000 0.0000 0.0000  plane waves:  215503

 maximum and minimum number of plane-waves per node :     53900    53857

 maximum number of plane-waves:    215503
 maximum index in each direction: 
   IXMAX=   37   IYMAX=   37   IZMAX=   37
   IXMIN=  -37   IYMIN=  -37   IZMIN=  -37


 real space projection operators:
  total allocation   :       5832.00 KBytes
  max/ min on nodes  :       1460.67       1456.17


 parallel 3D FFT for wavefunctions:
    minimum data exchange during FFTs selected (reduces bandwidth)
 parallel 3D FFT for charge:
    minimum data exchange during FFTs selected (reduces bandwidth)


 total amount of memory used by VASP MPI-rank0   102128. kBytes
=======================================================================

   base      :      30000. kBytes
   nonlr-proj:       2521. kBytes
   fftplans  :      28354. kBytes
   grid      :      38630. kBytes
   one-center:         31. kBytes
   wavefun   :       2592. kBytes

     INWAV:  cpu time      0.0000: real time      0.0000
 Broyden mixing: mesh for mixing (old mesh)
   NGX = 75   NGY = 75   NGZ = 75
  (NGX  =300   NGY  =300   NGZ  =300)
  gives a total of 421875 points

 initial charge density was supplied:
 charge density of overlapping atoms calculated
 number of electron      88.0000000 magnetization 
 keeping initial charge density in first step


--------------------------------------------------------------------------------------------------------


 Maximum index for non-local projection operator         1304
 Maximum index for augmentation-charges            0 (set IRDMAX)


--------------------------------------------------------------------------------------------------------


 First call to EWALD:  gamma=   0.089
 Maximum number of real-space cells 3x 3x 3
 Maximum number of reciprocal cells 3x 3x 3

    FEWALD:  cpu time      0.0012: real time      0.0012


--------------------------------------- Iteration      1(   1)  ---------------------------------------


vdW kernel read from vdw_kernel.bindat
  0.0000  0.2424  0.5071  0.7962  1.1119  1.4567  1.8333  2.2446  2.6937  3.1842
  3.7199  4.3049  4.9438  5.6415  6.4036  7.2358  8.1446  9.1372 10.2212 11.4050
 12.6979 14.1099 15.6519 17.3360 19.1751 21.1837 23.3773 25.7729 28.3892 31.2465
 34.3669 37.7748 41.4965 45.5611 50.0000

    POTLOK:  cpu time      1.7854: real time      1.7864
    SETDIJ:  cpu time      0.1784: real time      0.1784
    TRIAL :  cpu time      0.5334: real time      0.5338
    CORREC:  cpu time      0.0008: real time      0.0008
    --------------------------------------------
      LOOP:  cpu time      2.4991: real time      2.5005

 eigenvalue-minimisations  :   192
 total energy-change (2. order) : 0.7159219E+03  (-0.1944406E+04)
 number of electron      88.0000000 magnetization 
 augmentation part       88.0000000 magnetization 

 Free energy of the ion-electron system (eV)
  ---------------------------------------------------
  alpha Z        PSCENC =         6.80462455
  Ewald energy   TEWEN  =      5933.77201978
  -Hartree energ DENC   =    -13860.89670588
  -exchange      EXHF   =         0.00000000
  -V(xc)+E(xc)   XCENC  =      -106.60078306
  PAW double counting   =      8054.17357671    -7663.89563609
  entropy T*S    EENTRO =        -0.02458951
  eigenvalues    EBANDS =        19.62281365
  atomic energy  EATOM  =      8332.96658149
  ---------------------------------------------------
  free energy    TOTEN  =       715.92190165 eV

  energy without entropy =      715.94649116  energy(sigma->0) =      715.93419641


--------------------------------------------------------------------------------------------------------




--------------------------------------- Iteration      1(   2)  ---------------------------------------


    TRIAL :  cpu time      1.9225: real time      1.9227
    CORREC:  cpu time      0.0014: real time      0.0014
    --------------------------------------------
      LOOP:  cpu time      1.9265: real time      1.9315

 eigenvalue-minimisations  :   384
 total energy-change (2. order) :-0.6558429E+03  (-0.6556719E+03)
 number of electron      88.0000000 magnetization 
 augmentation part       88.0000000 magnetization 

 Free energy of the ion-electron system (eV)
  ---------------------------------------------------
  alpha Z        PSCENC =         6.80462455
  Ewald energy   TEWEN  =      5933.77201978
  -Hartree energ DENC   =    -13860.89670588
  -exchange      EXHF   =         0.00000000
  -V(xc)+E(xc)   XCENC  =      -106.60078306
  PAW double counting   =      8054.17357671    -7663.89563609
  entropy T*S    EENTRO =        -0.00000000
  eigenvalues    EBANDS =      -636.24465695
  atomic energy  EATOM  =      8332.96658149
  ---------------------------------------------------
  free energy    TOTEN  =        60.07902056 eV

  energy without entropy =       60.07902056  energy(sigma->0) =       60.07902056


--------------------------------------------------------------------------------------------------------




--------------------------------------- Iteration      1(   3)  ---------------------------------------


    TRIAL :  cpu time      0.5392: real time      0.5393
    CORREC:  cpu time      0.0007: real time      0.0007
    --------------------------------------------
      LOOP:  cpu time      0.5464: real time      0.5469

 eigenvalue-minimisations  :   192
 total energy-change (2. order) :-0.4488210E+02  (-0.4488210E+02)
 number of electron      88.0000000 magnetization 
 augmentation part       88.0000000 magnetization 

 Free energy of the ion-electron system (eV)
  ---------------------------------------------------
  alpha Z        PSCENC =         6.80462455
  Ewald energy   TEWEN  =      5933.77201978
  -Hartree energ DENC   =    -13860.89670588
  -exchange      EXHF   =         0.00000000
  -V(xc)+E(xc)   XCENC  =      -106.60078306
  PAW double counting   =      8054.17357671    -7663.89563609
  entropy T*S    EENTRO =        -0.00000000
  eigenvalues    EBANDS =      -681.12675694
  atomic energy  EATOM  =      8332.96658149
  ---------------------------------------------------
  free energy    TOTEN  =        15.19692056 eV

  energy without entropy =       15.19692056  energy(sigma->0) =       15.19692056


--------------------------------------------------------------------------------------------------------




--------------------------------------- Iteration      1(   4)  ---------------------------------------


    TRIAL :  cpu time      1.0207: real time      1.0208
    CORREC:  cpu time      0.0008: real time      0.0008
    --------------------------------------------
      LOOP:  cpu time      1.0289: real time      1.0292

 eigenvalue-minimisations  :   288
 total energy-change (2. order) :-0.3053346E+00  (-0.3053346E+00)
 number of electron      88.0000000 magnetization 
 augmentation part       88.0000000 magnetization 

 Free energy of the ion-electron system (eV)
  ---------------------------------------------------
  alpha Z        PSCENC =         6.80462455
  Ewald energy   TEWEN  =      5933.77201978
  -Hartree energ DENC   =    -13860.89670588
  -exchange      EXHF   =         0.00000000
  -V(xc)+E(xc)   XCENC  =      -106.60078306
  PAW double counting   =      8054.17357671    -7663.89563609
  entropy T*S    EENTRO =        -0.00000000
  eigenvalues    EBANDS =      -681.43209151
  atomic energy  EATOM  =      8332.96658149
  ---------------------------------------------------
  free energy    TOTEN  =        14.89158599 eV

  energy without entropy =       14.89158599  energy(sigma->0) =       14.89158599


--------------------------------------------------------------------------------------------------------




--------------------------------------- Iteration      1(   5)  ---------------------------------------


    TRIAL :  cpu time      1.0220: real time      1.0220
    CORREC:  cpu time      0.0011: real time      0.0011
    CHARGE:  cpu time      0.0919: real time      0.0920
    --------------------------------------------
      LOOP:  cpu time      1.1178: real time      1.1233

 eigenvalue-minimisations  :   288
 total energy-change (2. order) :-0.3406010E-03  (-0.3406009E-03)
 number of electron      87.9999989 magnetization 
 augmentation part       42.0616581 magnetization 

 Free energy of the ion-electron system (eV)
  ---------------------------------------------------
  alpha Z        PSCENC =         6.80462455
  Ewald energy   TEWEN  =      5933.77201978
  -Hartree energ DENC   =    -13860.89670588
  -exchange      EXHF   =         0.00000000
  -V(xc)+E(xc)   XCENC  =      -106.60078306
  PAW double counting   =      8054.17357671    -7663.89563609
  entropy T*S    EENTRO =        -0.00000000
  eigenvalues    EBANDS =      -681.43243212
  atomic energy  EATOM  =      8332.96658149
  ---------------------------------------------------
  free energy    TOTEN  =        14.89124539 eV

  energy without entropy =       14.89124539  energy(sigma->0) =       14.89124539


--------------------------------------------------------------------------------------------------------




--------------------------------------- Iteration      1(   6)  ---------------------------------------


    POTLOK:  cpu time      1.1843: real time      1.1849
    SETDIJ:  cpu time      0.1858: real time      0.1858
    TRIAL :  cpu time      1.3424: real time      1.3427
    CORREC:  cpu time      1.5463: real time      1.5464
    CHARGE:  cpu time      0.0878: real time      0.0878
    --------------------------------------------
      LOOP:  cpu time      4.3532: real time      4.3547

 eigenvalue-minimisations  :     0
 total energy-change (2. order) : 0.1891230E+01  (-0.1009177E+01)
 number of electron      87.9999989 magnetization 
 augmentation part       42.4611219 magnetization 

 Free energy of the ion-electron system (eV)
  ---------------------------------------------------
  alpha Z        PSCENC =         6.80462455
  Ewald energy   TEWEN  =      5933.77201978
  -Hartree energ DENC   =    -13901.19947024
  -exchange      EXHF   =         0.00000000
  -V(xc)+E(xc)   XCENC  =      -107.94860864
  PAW double counting   =      8627.45196972    -8249.13540112
  entropy T*S    EENTRO =        -0.00000000
  eigenvalues    EBANDS =      -625.92923969
  atomic energy  EATOM  =      8332.96658149
  ---------------------------------------------------
  free energy    TOTEN  =        16.78247584 eV

  energy without entropy =       16.78247584  energy(sigma->0) =       16.78247584


--------------------------------------------------------------------------------------------------------




--------------------------------------- Iteration      1(   7)  ---------------------------------------


    POTLOK:  cpu time      1.1900: real time      1.1901
    SETDIJ:  cpu time      0.1931: real time      0.1931
    TRIAL :  cpu time      0.2026: real time      0.2026
    CORREC:  cpu time      1.5508: real time      1.5509
    CHARGE:  cpu time      0.0882: real time      0.0882
    --------------------------------------------
      LOOP:  cpu time      3.2325: real time      3.2328

 eigenvalue-minimisations  :     0
 total energy-change (2. order) :-0.1009313E+01  (-0.9113748E-01)
 number of electron      87.9999989 magnetization 
 augmentation part       42.3984650 magnetization 

 Free energy of the ion-electron system (eV)
  ---------------------------------------------------
  alpha Z        PSCENC =         6.80462455
  Ewald energy   TEWEN  =      5933.77201978
  -Hartree energ DENC   =    -13885.10338359
  -exchange      EXHF   =         0.00000000
  -V(xc)+E(xc)   XCENC  =      -107.14052827
  PAW double counting   =      8612.84818048    -8234.91893336
  entropy T*S    EENTRO =        -0.00000000
  eigenvalues    EBANDS =      -643.45539839
  atomic energy  EATOM  =      8332.96658149
  ---------------------------------------------------
  free energy    TOTEN  =        15.77316268 eV

  energy without entropy =       15.77316268  energy(sigma->0) =       15.77316268


--------------------------------------------------------------------------------------------------------




--------------------------------------- Iteration      1(   8)  ---------------------------------------


    POTLOK:  cpu time      1.1887: real time      1.1888
    SETDIJ:  cpu time      0.1952: real time      0.1952
    TRIAL :  cpu time      0.2026: real time      0.2026
    CORREC:  cpu time      1.5438: real time      1.5439
    CHARGE:  cpu time      0.0894: real time      0.0895
    --------------------------------------------
      LOOP:  cpu time      3.2264: real time      3.2270

 eigenvalue-minimisations  :     0
 total energy-change (2. order) :-0.9065900E-01  (-0.3210764E-01)
 number of electron      87.9999989 magnetization 
 augmentation part       42.4413741 magnetization 

 Free energy of the ion-electron system (eV)
  ---------------------------------------------------
  alpha Z        PSCENC =         6.80462455
  Ewald energy   TEWEN  =      5933.77201978
  -Hartree energ DENC   =    -13861.74334399
  -exchange      EXHF   =         0.00000000
  -V(xc)+E(xc)   XCENC  =      -107.56058894
  PAW double counting   =      8585.12421787    -8206.93882492
  entropy T*S    EENTRO =        -0.00000000
  eigenvalues    EBANDS =      -666.74218216
  atomic energy  EATOM  =      8332.96658149
  ---------------------------------------------------
  free energy    TOTEN  =        15.68250369 eV

  energy without entropy =       15.68250369  energy(sigma->0) =       15.68250369


--------------------------------------------------------------------------------------------------------




--------------------------------------- Iteration      1(   9)  ---------------------------------------


    POTLOK:  cpu time      1.1881: real time      1.1887
    SETDIJ:  cpu time      0.1933: real time      0.1933
    TRIAL :  cpu time      0.2027: real time      0.2027
    CORREC:  cpu time      1.5450: real time      1.5451
    CHARGE:  cpu time      0.0890: real time      0.0890
    --------------------------------------------
      LOOP:  cpu time      3.2198: real time      3.2268

 eigenvalue-minimisations  :     0
 total energy-change (2. order) :-0.3207039E-01  (-0.8577558E-02)
 number of electron      87.9999989 magnetization 
 augmentation part       42.4533716 magnetization 

 Free energy of the ion-electron system (eV)
  ---------------------------------------------------
  alpha Z        PSCENC =         6.80462455
  Ewald energy   TEWEN  =      5933.77201978
  -Hartree energ DENC   =    -13866.69267850
  -exchange      EXHF   =         0.00000000
  -V(xc)+E(xc)   XCENC  =      -107.40553168
  PAW double counting   =      8582.05984225    -8203.85812917
  entropy T*S    EENTRO =        -0.00000000
  eigenvalues    EBANDS =      -661.99629543
  atomic energy  EATOM  =      8332.96658149
  ---------------------------------------------------
  free energy    TOTEN  =        15.65043329 eV

  energy without entropy =       15.65043329  energy(sigma->0) =       15.65043329


--------------------------------------------------------------------------------------------------------




--------------------------------------- Iteration      1(  10)  ---------------------------------------


    POTLOK:  cpu time      1.1840: real time      1.1841
    SETDIJ:  cpu time      0.1929: real time      0.1930
    TRIAL :  cpu time      0.2016: real time      0.2016
    CORREC:  cpu time      1.5355: real time      1.5356
    CHARGE:  cpu time      0.0880: real time      0.0880
    --------------------------------------------
      LOOP:  cpu time      3.2096: real time      3.2099

 eigenvalue-minimisations  :     0
 total energy-change (2. order) :-0.8580249E-02  (-0.1829310E-02)
 number of electron      87.9999989 magnetization 
 augmentation part       42.4390512 magnetization 

 Free energy of the ion-electron system (eV)
  ---------------------------------------------------
  alpha Z        PSCENC =         6.80462455
  Ewald energy   TEWEN  =      5933.77201978
  -Hartree energ DENC   =    -13867.74948315
  -exchange      EXHF   =         0.00000000
  -V(xc)+E(xc)   XCENC  =      -107.36825086
  PAW double counting   =      8578.96013064    -8200.61627514
  entropy T*S    EENTRO =        -0.00000000
  eigenvalues    EBANDS =      -661.12749426
  atomic energy  EATOM  =      8332.96658149
  ---------------------------------------------------
  free energy    TOTEN  =        15.64185304 eV

  energy without entropy =       15.64185304  energy(sigma->0) =       15.64185304


--------------------------------------------------------------------------------------------------------




--------------------------------------- Iteration      1(  11)  ---------------------------------------


    POTLOK:  cpu time      1.1814: real time      1.1815
    SETDIJ:  cpu time      0.1968: real time      0.1968
    TRIAL :  cpu time      0.2035: real time      0.2035
    CORREC:  cpu time      1.5338: real time      1.5339
    CHARGE:  cpu time      0.0906: real time      0.0906
    --------------------------------------------
      LOOP:  cpu time      3.2127: real time      3.2132

 eigenvalue-minimisations  :     0
 total energy-change (2. order) :-0.1839591E-02  (-0.7178796E-03)
 number of electron      87.9999989 magnetization 
 augmentation part       42.4484999 magnetization 

 Free energy of the ion-electron system (eV)
  ---------------------------------------------------
  alpha Z        PSCENC =         6.80462455
  Ewald energy   TEWEN  =      5933.77201978
  -Hartree energ DENC   =    -13864.43817767
  -exchange      EXHF   =         0.00000000
  -V(xc)+E(xc)   XCENC  =      -107.43795527
  PAW double counting   =      8573.35066960    -8194.90277777
  entropy T*S    EENTRO =        -0.00000000
  eigenvalues    EBANDS =      -664.47497126
  atomic energy  EATOM  =      8332.96658149
  ---------------------------------------------------
  free energy    TOTEN  =        15.64001345 eV

  energy without entropy =       15.64001345  energy(sigma->0) =       15.64001345


--------------------------------------------------------------------------------------------------------




--------------------------------------- Iteration      1(  12)  ---------------------------------------


    POTLOK:  cpu time      1.1797: real time      1.1803
    SETDIJ:  cpu time      0.1935: real time      0.1935
    TRIAL :  cpu time      0.2024: real time      0.2025
    CORREC:  cpu time      1.5347: real time      1.5349
    CHARGE:  cpu time      0.0887: real time      0.0887
    --------------------------------------------
      LOOP:  cpu time      3.2020: real time      3.2071

 eigenvalue-minimisations  :     0
 total energy-change (2. order) :-0.7124529E-03  (-0.1472579E-03)
 number of electron      87.9999989 magnetization 
 augmentation part       42.4477848 magnetization 

 Free energy of the ion-electron system (eV)
  ---------------------------------------------------
  alpha Z        PSCENC =         6.80462455
  Ewald energy   TEWEN  =      5933.77201978
  -Hartree energ DENC   =    -13866.33907060
  -exchange      EXHF   =         0.00000000
  -V(xc)+E(xc)   XCENC  =      -107.39728571
  PAW double counting   =      8571.96808507    -8193.51107302
  entropy T*S    EENTRO =        -0.00000000
  eigenvalues    EBANDS =      -662.62458056
  atomic energy  EATOM  =      8332.96658149
  ---------------------------------------------------
  free energy    TOTEN  =        15.63930100 eV

  energy without entropy =       15.63930100  energy(sigma->0) =       15.63930100


--------------------------------------------------------------------------------------------------------




--------------------------------------- Iteration      1(  13)  ---------------------------------------


    POTLOK:  cpu time      1.1792: real time      1.1793
    SETDIJ:  cpu time      0.1973: real time      0.1973
    TRIAL :  cpu time      0.2009: real time      0.2009
    CORREC:  cpu time      1.5403: real time      1.5404
    CHARGE:  cpu time      0.0900: real time      0.0900
    --------------------------------------------
      LOOP:  cpu time      3.2094: real time      3.2151

 eigenvalue-minimisations  :     0
 total energy-change (2. order) :-0.1486136E-03  (-0.2074000E-04)
 number of electron      87.9999989 magnetization 
 augmentation part       42.4478075 magnetization 

 Free energy of the ion-electron system (eV)
  ---------------------------------------------------
  alpha Z        PSCENC =         6.80462455
  Ewald energy   TEWEN  =      5933.77201978
  -Hartree energ DENC   =    -13866.20747276
  -exchange      EXHF   =         0.00000000
  -V(xc)+E(xc)   XCENC  =      -107.40125810
  PAW double counting   =      8570.71331987    -8192.24577568
  entropy T*S    EENTRO =        -0.00000000
  eigenvalues    EBANDS =      -662.76288678
  atomic energy  EATOM  =      8332.96658149
  ---------------------------------------------------
  free energy    TOTEN  =        15.63915239 eV

  energy without entropy =       15.63915239  energy(sigma->0) =       15.63915239


--------------------------------------------------------------------------------------------------------




--------------------------------------- Iteration      1(  14)  ---------------------------------------


    POTLOK:  cpu time      1.2108: real time      1.2108
    SETDIJ:  cpu time      0.1766: real time      0.1766
    TRIAL :  cpu time      0.2025: real time      0.2025
    CORREC:  cpu time      1.5376: real time      1.5377
    CHARGE:  cpu time      0.0882: real time      0.0882
    --------------------------------------------
      LOOP:  cpu time      3.2198: real time      3.2230

 eigenvalue-minimisations  :     0
 total energy-change (2. order) :-0.2086107E-04  (-0.4458889E-05)
 number of electron      87.9999989 magnetization 
 augmentation part       42.4481041 magnetization 

 Free energy of the ion-electron system (eV)
  ---------------------------------------------------
  alpha Z        PSCENC =         6.80462455
  Ewald energy   TEWEN  =      5933.77201978
  -Hartree energ DENC   =    -13866.20325112
  -exchange      EXHF   =         0.00000000
  -V(xc)+E(xc)   XCENC  =      -107.40109454
  PAW double counting   =      8570.37193938    -8191.90202184
  entropy T*S    EENTRO =        -0.00000000
  eigenvalues    EBANDS =      -662.76966618
  atomic energy  EATOM  =      8332.96658149
  ---------------------------------------------------
  free energy    TOTEN  =        15.63913153 eV

  energy without entropy =       15.63913153  energy(sigma->0) =       15.63913153


--------------------------------------------------------------------------------------------------------




--------------------------------------- Iteration      1(  15)  ---------------------------------------


    POTLOK:  cpu time      1.2089: real time      1.2099
    SETDIJ:  cpu time      0.1670: real time      0.1670
    TRIAL :  cpu time      0.2023: real time      0.2023
    CORREC:  cpu time      1.5385: real time      1.5386
    CHARGE:  cpu time      0.0889: real time      0.0889
    --------------------------------------------
      LOOP:  cpu time      3.2122: real time      3.2136

 eigenvalue-minimisations  :     0
 total energy-change (2. order) :-0.4379342E-05  (-0.1029236E-05)
 number of electron      87.9999989 magnetization 
 augmentation part       42.4480386 magnetization 

 Free energy of the ion-electron system (eV)
  ---------------------------------------------------
  alpha Z        PSCENC =         6.80462455
  Ewald energy   TEWEN  =      5933.77201978
  -Hartree energ DENC   =    -13866.28623690
  -exchange      EXHF   =         0.00000000
  -V(xc)+E(xc)   XCENC  =      -107.39957824
  PAW double counting   =      8570.21085182    -8191.74055377
  entropy T*S    EENTRO =        -0.00000000
  eigenvalues    EBANDS =      -662.68858159
  atomic energy  EATOM  =      8332.96658149
  ---------------------------------------------------
  free energy    TOTEN  =        15.63912715 eV

  energy without entropy =       15.63912715  energy(sigma->0) =       15.63912715


--------------------------------------------------------------------------------------------------------




--------------------------------------- Iteration      1(  16)  ---------------------------------------


    POTLOK:  cpu time      1.1773: real time      1.1773
    SETDIJ:  cpu time      0.2049: real time      0.2049
    TRIAL :  cpu time      0.2026: real time      0.2026
    CORREC:  cpu time      1.5339: real time      1.5340
    CHARGE:  cpu time      0.0893: real time      0.0893
    --------------------------------------------
      LOOP:  cpu time      3.2144: real time      3.2151

 eigenvalue-minimisations  :     0
 total energy-change (2. order) :-0.1057178E-05  (-0.1886249E-06)
 number of electron      87.9999989 magnetization 
 augmentation part       42.4480072 magnetization 

 Free energy of the ion-electron system (eV)
  ---------------------------------------------------
  alpha Z        PSCENC =         6.80462455
  Ewald energy   TEWEN  =      5933.77201978
  -Hartree energ DENC   =    -13866.27389408
  -exchange      EXHF   =         0.00000000
  -V(xc)+E(xc)   XCENC  =      -107.39975970
  PAW double counting   =      8570.00685574    -8191.53583507
  entropy T*S    EENTRO =        -0.00000000
  eigenvalues    EBANDS =      -662.70146662
  atomic energy  EATOM  =      8332.96658149
  ---------------------------------------------------
  free energy    TOTEN  =        15.63912609 eV

  energy without entropy =       15.63912609  energy(sigma->0) =       15.63912609


--------------------------------------------------------------------------------------------------------




--------------------------------------- Iteration      1(  17)  ---------------------------------------


    POTLOK:  cpu time      1.1817: real time      1.1818
    SETDIJ:  cpu time      0.1963: real time      0.1963
    TRIAL :  cpu time      0.2014: real time      0.2015
    CORREC:  cpu time      1.5375: real time      1.5376
    EDDIAG:  cpu time      0.0919: real time      0.0921
    CHARGE:  cpu time      0.0878: real time      0.0878
    --------------------------------------------
      LOOP:  cpu time      3.2999: real time      3.3040

 eigenvalue-minimisations  :     0
 total energy-change (2. order) :-0.1913222E-06  (-0.1158594E-06)
 number of electron      87.9999989 magnetization 
 augmentation part       42.4480112 magnetization 

 Free energy of the ion-electron system (eV)
  ---------------------------------------------------
  alpha Z        PSCENC =         6.80462455
  Ewald energy   TEWEN  =      5933.77201978
  -Hartree energ DENC   =    -13866.27036704
  -exchange      EXHF   =         0.00000000
  -V(xc)+E(xc)   XCENC  =      -107.39982323
  PAW double counting   =      8569.87399279    -8191.40276295
  entropy T*S    EENTRO =        -0.00000000
  eigenvalues    EBANDS =      -662.70513949
  atomic energy  EATOM  =      8332.96658149
  ---------------------------------------------------
  free energy    TOTEN  =        15.63912590 eV

  energy without entropy =       15.63912590  energy(sigma->0) =       15.63912590


--------------------------------------------------------------------------------------------------------


  average scaling for gradient   1.3179


 average (electrostatic) potential at core
  the test charge radii are     1.1249
  (the norm of the test charge is              1.0000)
       1 -82.5994       2 -82.7264       3 -82.2057       4 -82.7264       5 -82.6768
       6 -83.0216       7 -82.5999       8 -82.6772



 E-fermi :  -4.0466     XC(G=0):  -0.6331     alpha+bet : -0.2295

 Fermi energy:        -4.0466278205

 k-point     1 :       0.0000    0.0000    0.0000
  band No.  band energies     occupation 
      1      -9.2928      2.00000
      2      -9.2737      2.00000
      3      -9.2154      2.00000
      4      -8.9941      2.00000
      5      -8.6456      2.00000
      6      -8.5243      2.00000
      7      -8.4867      2.00000
      8      -8.4753      2.00000
      9      -8.4265      2.00000
     10      -8.2911      2.00000
     11      -8.1940      2.00000
     12      -8.1328      2.00000
     13      -8.1316      2.00000
     14      -8.0282      2.00000
     15      -7.9987      2.00000
     16      -7.9760      2.00000
     17      -7.9132      2.00000
     18      -7.6075      2.00000
     19      -7.5295      2.00000
     20      -7.5082      2.00000
     21      -7.5020      2.00000
     22      -7.4026      2.00000
     23      -7.3602      2.00000
     24      -7.3553      2.00000
     25      -7.3550      2.00000
     26      -7.3029      2.00000
     27      -7.2907      2.00000
     28      -7.2843      2.00000
     29      -7.2378      2.00000
     30      -7.1596      2.00000
     31      -7.1468      2.00000
     32      -7.0785      2.00000
     33      -7.0543      2.00000
     34      -6.9725      2.00000
     35      -6.9406      2.00000
     36      -6.9082      2.00000
     37      -6.9018      2.00000
     38      -6.8747      2.00000
     39      -6.8064      2.00000
     40      -6.6384      2.00000
     41      -6.5718      2.00000
     42      -5.8113      2.00000
     43      -5.4509      2.00000
     44      -4.2978      2.00000
     45      -3.5200      0.00000
     46      -3.1219      0.00000
     47      -2.3784      0.00000
     48      -2.3281      0.00000
     49      -1.8613      0.00000
     50      -1.3505      0.00000
     51      -1.2713      0.00000
     52      -1.2623      0.00000
     53      -1.0414      0.00000
     54      -0.8118      0.00000
     55      -0.1832      0.00000
     56      -0.1525      0.00000
     57      -0.1375      0.00000
     58       0.1941      0.00000
     59       0.2317      0.00000
     60       0.2477      0.00000
     61       0.2789      0.00000
     62       0.3311      0.00000
     63       0.3855      0.00000
     64       0.4306      0.00000
     65       0.4703      0.00000
     66       0.5125      0.00000
     67       0.5620      0.00000
     68       0.5930      0.00000
     69       0.6408      0.00000
     70       0.6609      0.00000
     71       0.7061      0.00000
     72       0.7456      0.00000
     73       0.7552      0.00000
     74       0.8006      0.00000
     75       0.8355      0.00000
     76       0.8621      0.00000
     77       0.8834      0.00000
     78       0.9213      0.00000
     79       1.0114      0.00000
     80       1.0515      0.00000
     81       1.0884      0.00000
     82       1.1354      0.00000
     83       1.1428      0.00000
     84       1.1792      0.00000
     85       1.1922      0.00000
     86       1.2139      0.00000
     87       1.3066      0.00000
     88       1.3404      0.00000
     89       1.4254      0.00000
     90       1.4385      0.00000
     91       1.4567      0.00000
     92       1.5010      0.00000
     93       1.5315      0.00000
     94       1.5525      0.00000
     95       1.5795      0.00000
     96       1.5961      0.00000


--------------------------------------------------------------------------------------------------------


 soft charge-density along one line, spin component           1
         0         1         2         3         4         5         6         7         8         9
 total charge-density along one line

 pseudopotential strength for first ion, spin component:           1
-10.456   0.007  -0.016   0.007   0.001 -10.425   0.007  -0.016
  0.007 -10.450   0.006   0.011  -0.011   0.007 -10.418   0.005
 -0.016   0.006 -10.440   0.003  -0.003  -0.016   0.005 -10.409
  0.007   0.011   0.003 -10.441   0.007   0.007   0.011   0.003
  0.001  -0.011  -0.003   0.007 -10.454   0.001  -0.010  -0.003
-10.425   0.007  -0.016   0.007   0.001 -10.369   0.007  -0.015
  0.007 -10.418   0.005   0.011  -0.010   0.007 -10.363   0.005
 -0.016   0.005 -10.409   0.003  -0.003  -0.015   0.005 -10.355
  0.007   0.011   0.003 -10.410   0.006   0.007   0.010   0.003
  0.001  -0.010  -0.003   0.006 -10.423   0.001  -0.010  -0.003
 -0.006  -0.007  -0.003  -0.005  -0.002  -0.006  -0.007  -0.002
 -0.010  -0.011  -0.004  -0.009  -0.003  -0.010  -0.011  -0.004
  0.014   0.004   0.012   0.000   0.022   0.013   0.004   0.012
  0.000  -0.022   0.006   0.014   0.001   0.000  -0.022   0.006
 -0.022   0.000  -0.008   0.006   0.015  -0.021   0.000  -0.008
  0.016   0.005   0.015   0.000   0.026   0.015   0.005   0.014
  0.000  -0.027   0.007   0.016   0.001   0.000  -0.025   0.007
 -0.026   0.000  -0.009   0.007   0.017  -0.025   0.000  -0.009
 total augmentation occupancy for first ion, spin component:           1
  2.583   0.078   0.107  -0.050   0.092  -0.592  -0.025  -0.167   0.069  -0.072   0.412  -0.091   0.095  -0.022  -0.058   0.002
  0.078   2.532   0.040  -0.065   0.138  -0.025  -0.547  -0.003   0.072  -0.197   0.523  -0.059   0.063  -0.055  -0.008  -0.002
  0.107   0.040   2.466  -0.052   0.085  -0.167  -0.003  -0.417   0.065  -0.079   0.170  -0.042   0.056  -0.026  -0.024   0.004
 -0.050  -0.065  -0.052   2.680  -0.219   0.069   0.072   0.064  -0.630   0.240   0.404  -0.072  -0.041   0.118  -0.092   0.001
  0.092   0.138   0.085  -0.219   2.637  -0.072  -0.197  -0.079   0.240  -0.613   0.146  -0.005   0.090  -0.094   0.060   0.009
 -0.592  -0.025  -0.167   0.069  -0.072   0.578  -0.018   0.218  -0.086   0.056  -0.341   0.066  -0.117   0.023   0.080   0.008
 -0.025  -0.547  -0.003   0.072  -0.197  -0.018   0.538  -0.029  -0.080   0.250  -0.458   0.052  -0.064   0.071   0.009   0.005
 -0.167  -0.003  -0.417   0.064  -0.079   0.218  -0.029   0.354  -0.075   0.076  -0.137   0.029  -0.069   0.027   0.036   0.005
  0.069   0.072   0.065  -0.630   0.240  -0.086  -0.080  -0.075   0.566  -0.258  -0.358   0.066   0.038  -0.132   0.093  -0.001
 -0.072  -0.197  -0.079   0.240  -0.613   0.056   0.250   0.076  -0.258   0.573  -0.123   0.001  -0.106   0.093  -0.075   0.006
  0.412   0.523   0.170   0.404   0.146  -0.341  -0.458  -0.137  -0.358  -0.123   1.674  -0.167   0.158   0.011  -0.156  -0.013
 -0.091  -0.059  -0.042  -0.072  -0.005   0.066   0.052   0.029   0.066   0.001  -0.167   0.030  -0.020  -0.010   0.031   0.002
  0.095   0.063   0.056  -0.041   0.090  -0.117  -0.064  -0.069   0.038  -0.106   0.158  -0.020   0.052  -0.025  -0.008  -0.004
 -0.022  -0.055  -0.026   0.118  -0.094   0.023   0.071   0.027  -0.132   0.093   0.011  -0.010  -0.025   0.049  -0.025   0.001
 -0.058  -0.008  -0.024  -0.092   0.060   0.080   0.009   0.036   0.093  -0.075  -0.156   0.031  -0.008  -0.025   0.047   0.001
  0.002  -0.002   0.004   0.001   0.009   0.008   0.005   0.005  -0.001   0.006  -0.013   0.002  -0.004   0.001   0.001   0.000
  0.001  -0.011   0.004   0.003   0.005  -0.001  -0.004  -0.002   0.007  -0.005  -0.001   0.001   0.001  -0.003   0.001  -0.000
 -0.008   0.001  -0.003   0.009   0.006  -0.006  -0.001  -0.003  -0.006   0.004   0.013  -0.002   0.001   0.001  -0.003  -0.000


------------------------ aborting loop because EDIFF is reached ----------------------------------------


    FORLOC:  cpu time      0.0033: real time      0.0033
    FORNL :  cpu time      0.1020: real time      0.1021
    STRESS:  cpu time      0.3032: real time      0.3034
    FORCOR:  cpu time      1.1568: real time      1.1574
    OFIELD:  cpu time      0.0002: real time      0.0002

  FORCE on cell =-STRESS in cart. coord.  units (eV):
  Direction    XX          YY          ZZ          XY          YZ          ZX
  --------------------------------------------------------------------------------------
  Alpha Z     6.80462     6.80462     6.80462
  Ewald    3041.56317  1837.91769  1054.28758 -1701.55225 -1790.76425 -2781.06283
  Hartree  5562.77721  4442.57444  3860.92605 -1381.89104 -1419.98141 -2297.06635
  E(xc)    -471.92601  -472.02696  -472.64469    -0.86998    -1.05914    -1.26652
  Local   -9887.25807 -7560.00906 -6204.03151  3073.70950  3197.29309  5065.73647
  n-local   -84.81778   -86.78928   -85.25376     0.61771     1.49485     0.09562
  augment   739.62319   739.52491   741.67083     2.71719     3.45073     3.79423
  Kinetic  1097.04112  1095.49747  1100.87355     5.92682     7.99763     7.75750
  Fock        0.00000     0.00000     0.00000     0.00000     0.00000     0.00000
  -------------------------------------------------------------------------------------
  Total       3.80745     3.49382     2.63267    -1.34205    -1.56849    -2.01190
  in kB       0.76253     0.69972     0.52725    -0.26878    -0.31413    -0.40293
  external pressure =        0.66 kB  Pullay stress =        0.00 kB


 VOLUME and BASIS-vectors are now :
 -----------------------------------------------------------------------------
  energy-cutoff  :      520.00
  volume of cell :     8000.00
      direct lattice vectors                 reciprocal lattice vectors
    20.000000000  0.000000000  0.000000000     0.050000000  0.000000000  0.000000000
     0.000000000 20.000000000  0.000000000     0.000000000  0.050000000  0.000000000
     0.000000000  0.000000000 20.000000000     0.000000000  0.000000000  0.050000000

  length of vectors
    20.000000000 20.000000000 20.000000000     0.050000000  0.050000000  0.050000000


 FORCES acting on ions:
    Electron-Ion                     Ewald-Force                    Non-Local-Force
 -----------------------------------------------------------------------------------------------
   -.531E+03 0.392E+03 0.143E+03   0.529E+03 -.388E+03 -.144E+03   0.338E+01 -.439E+01 0.474E+00
   0.362E+03 -.433E+03 0.344E+02   -.360E+03 0.430E+03 -.337E+02   -.209E+01 0.335E+01 -.834E+00
   0.537E+03 -.916E+02 -.332E+03   -.532E+03 0.908E+02 0.330E+03   -.546E+01 0.900E+00 0.331E+01
   0.218E+03 0.324E+03 -.409E+03   -.217E+03 -.322E+03 0.407E+03   -.912E+00 -.279E+01 0.277E+01
   -.161E+03 0.581E+03 -.317E+03   0.158E+03 -.576E+03 0.315E+03   0.245E+01 -.543E+01 0.222E+01
   -.645E+02 0.618E+01 0.314E+02   0.638E+02 -.606E+01 -.310E+02   0.662E+00 -.113E+00 -.409E+00
   -.419E+03 -.203E+03 0.491E+03   0.418E+03 0.200E+03 -.487E+03   0.191E+01 0.331E+01 -.403E+01
   0.584E+02 -.576E+03 0.359E+03   -.589E+02 0.572E+03 -.355E+03   0.471E+00 0.502E+01 -.387E+01
 -----------------------------------------------------------------------------------------------
   -.416E+00 0.137E+00 0.366E+00   -.114E-12 0.000E+00 0.426E-13   0.410E+00 -.143E+00 -.366E+00


 POSITION                                       TOTAL-FORCE (eV/Angst)
 -----------------------------------------------------------------------------------
     13.06583      8.45503      9.11973         0.406302     -0.341326     -0.080351
      8.63353     11.48879     10.37571        -0.222742      0.361294     -0.090032
      6.88138     10.66734     12.24676        -0.425091      0.072681      0.258686
      9.07057      9.19327     11.71938        -0.094973     -0.300887      0.296786
     11.27351      7.71594     11.13850         0.114024     -0.453655      0.258409
     10.88836      9.97718      9.76414        -0.019572      0.007325      0.021507
     12.63446     10.71960      7.79559         0.302645      0.197161     -0.394549
     10.41033     12.27277      8.47846        -0.060593      0.457407     -0.270457
 -----------------------------------------------------------------------------------
    total drift:                               -0.006208     -0.005667      0.000319


--------------------------------------------------------------------------------------------------------



  FREE ENERGIE OF THE ION-ELECTRON SYSTEM (eV)
  ---------------------------------------------------
  free  energy   TOTEN  =        15.63912590 eV

  energy  without entropy=       15.63912590  energy(sigma->0) =       15.63912590



--------------------------------------------------------------------------------------------------------


    POTLOK:  cpu time      1.4169: real time      1.4170


--------------------------------------------------------------------------------------------------------


     LOOP+:  cpu time     50.1008: real time     50.1482
    4ORBIT:  cpu time      0.0000: real time      0.0000

 total amount of memory used by VASP MPI-rank0   102128. kBytes
=======================================================================

   base      :      30000. kBytes
   nonlr-proj:       2521. kBytes
   fftplans  :      28354. kBytes
   grid      :      38630. kBytes
   one-center:         31. kBytes
   wavefun   :       2592. kBytes

  
  
 General timing and accounting informations for this job:
 ========================================================
  
                  Total CPU time used (sec):       70.668
                            User time (sec):       69.568
                          System time (sec):        1.101
                         Elapsed time (sec):       72.822
  
                   Maximum memory used (kb):      333864.
                   Average memory used (kb):          N/A
  
                          Minor page faults:        26593
                          Major page faults:            0
                 Voluntary context switches:         9801
