 vasp.6.3.0 20Jan22 (build Apr  1 2022 16:44:48) complex                         
 executed on        HPECrayEX_GCC date 2022.10.21  08:42:03
 running 1536 mpi-ranks, with    1 threads/rank
 distrk:  each k-point on  768 cores,    2 groups
 distr:  one band on NCORE=   4 cores,  192 groups


--------------------------------------------------------------------------------------------------------


 INCAR:
   SYSTEM = MgO-rocksalt
   ISMEAR = 0
   SIGMA = 0.05
   EDIFF = 1E-6
   ALGO = ALL
   ISTART = 0
   IBRION = -1
   NSW = 0
   ISYM = 2
   DIPOL = 0.5 0.5 0.5
   IDIPOL = 3
   LDIPOL = .TRUE.
   LHFCALC = .TRUE.
   HFSCREEN = 0.2
   GGA = PE
   IVDW = 13
   VDW_S8 = 1.19528249
   VDW_A1 = 0.38663183
   VDW_A2 = 5.19133469
   ENCUT = 520
   PREC = Accurate
   LASPH = .TRUE.
   LREAL = Auto
   ISPIN = 1
   NELM = 200
   NELMIN = 8
   NCORE = 4
   KPAR = 2
   LWAVE = .FALSE.
   LCHARG = .FALSE.

 POTCAR:    PAW_PBE Ag 02Apr2005                  
 -----------------------------------------------------------------------------
|                                                                             |
|           W    W    AA    RRRRR   N    N  II  N    N   GGGG   !!!           |
|           W    W   A  A   R    R  NN   N  II  NN   N  G    G  !!!           |
|           W    W  A    A  R    R  N N  N  II  N N  N  G       !!!           |
|           W WW W  AAAAAA  RRRRR   N  N N  II  N  N N  G  GGG   !            |
|           WW  WW  A    A  R   R   N   NN  II  N   NN  G    G                |
|           W    W  A    A  R    R  N    N  II  N    N   GGGG   !!!           |
|                                                                             |
|     You have selected ISYM=2 for a HF type calculation. This will           |
|     symmetrize the charge density but not the exchange potential. I         |
|     suggest to use ISYM=3 instead. This uses symmetry to obtain the         |
|     orbitals at all k-points in the Brillouin zone, but does not apply      |
|     symmetry to the Hartree potential directly. The resultant charge        |
|     might have lower symmetry than the crystal but, at least, Hartree       |
|     and exchange are fully compatible.                                      |
|                                                                             |
 -----------------------------------------------------------------------------

 POTCAR:    PAW_PBE Ag 02Apr2005                  
   SHA256 =  6550cfa3543261e132c169e1b98a529204624d72be14e2da2e0242bcb74a174d Ag/POTCAR             
   COPYR  = (c) Copyright 02Apr2005 Georg Kresse                                                    
   COPYR  = This file is part of the software VASP. Any use, copying, and all other rights are regul
   COPYR  = If you do not have a valid VASP license, you may not use, copy or distribute this file. 
   VRHFIN =Ag : s1 d10                                                                              
   LEXCH  = PE                                                                                      
   EATOM  =  1037.2675 eV,   76.2370 Ry                                                             
                                                                                                    
   TITEL  = PAW_PBE Ag 02Apr2005                                                                    
   LULTRA =        F    use ultrasoft PP ?                                                          
   IUNSCR =        1    unscreen: 0-lin 1-nonlin 2-no                                               
   RPACOR =    2.000    partial core radius                                                         
   POMASS =  107.868; ZVAL   =   11.000    mass and valenz                                          
   RCORE  =    2.500    outmost cutoff radius                                                       
   RWIGS  =    2.840; RWIGS  =    1.503    wigner-seitz radius (au A)                               
   ENMAX  =  249.844; ENMIN  =  187.383 eV                                                          
   ICORE  =        3    local potential                                                             
   LCOR   =        T    correct aug charges                                                         
   LPAW   =        T    paw PP                                                                      
   EAUG   =  412.496                                                                                
   DEXC   =    0.000                                                                                
   RMAX   =    2.560    core radius for proj-oper                                                   
   RAUG   =    1.300    factor for augmentation sphere                                              
   RDEP   =    2.576    radius for radial grids                                                     
   RDEPT  =    2.072    core radius for aug-charge                                                  
                                                                                                    
   Atomic configuration                                                                             
   12 entries                                                                                       
     n  l   j            E        occ.                                                              
     1  0  0.50    -25324.9161   2.0000                                                             
     2  0  0.50     -3728.5341   2.0000                                                             
     2  1  1.50     -3344.0404   6.0000                                                             
     3  0  0.50      -683.5581   2.0000                                                             
     3  1  1.50      -557.3225   6.0000                                                             
     3  2  2.50      -358.3853  10.0000                                                             
     4  0  0.50       -95.0341   2.0000                                                             
     4  1  1.50       -58.5511   6.0000                                                             
     4  2  2.50        -7.4440  10.0000                                                             
     5  0  0.50        -4.4045   1.0000                                                             
     5  1  0.50        -1.3606   0.0000                                                             
     4  3  2.50        -1.3606   0.0000                                                             
   Description                                                                                      
     l       E           TYP  RCUT    TYP  RCUT                                                     
     2     -7.4439781     23  2.400                                                                 
     2     -8.8045607     23  2.400                                                                 
     0     -4.4044681     23  2.400                                                                 
     0      1.9520038     23  2.400                                                                 
     1     -1.3605826     23  2.500                                                                 
     1     27.2116520     23  2.500                                                                 
     3     -4.0817478     23  2.400                                                                 
  local pseudopotential read in
  partial core-charges read in
  partial kinetic energy density read in
  atomic valenz-charges read in
  non local Contribution for L=           2  read in
    real space projection operators read in
  non local Contribution for L=           2  read in
    real space projection operators read in
  non local Contribution for L=           0  read in
    real space projection operators read in
  non local Contribution for L=           0  read in
    real space projection operators read in
  non local Contribution for L=           1  read in
    real space projection operators read in
  non local Contribution for L=           1  read in
    real space projection operators read in
    PAW grid and wavefunctions read in

   number of l-projection  operators is LMAX  =           6
   number of lm-projection operators is LMMAX =          18

 -----------------------------------------------------------------------------
|                                                                             |
|               ----> ADVICE to this user running VASP <----                  |
|                                                                             |
|     You have a (more or less) 'small supercell' and for smaller cells       |
|     it is recommended to use the reciprocal-space projection scheme!        |
|     The real-space optimization is not efficient for small cells and it     |
|     is also less accurate ...                                               |
|     Therefore, set LREAL=.FALSE. in the INCAR file.                         |
|                                                                             |
 -----------------------------------------------------------------------------

 Optimization of the real space projectors (new method)

 maximal supplied QI-value         = 15.12
 optimisation between [QCUT,QGAM] = [ 11.64, 23.28] = [ 37.95,151.78] Ry 
 Optimized for a Real-space Cutoff    1.45 Angstroem

   l    n(q)    QCUT    max X(q) W(low)/X(q) W(high)/X(q)  e(spline) 
   2      9    11.641    53.897    0.22E-03    0.42E-04    0.28E-06
   2      9    11.641    52.416    0.23E-03    0.44E-04    0.29E-06
   0     10    11.641   122.045    0.51E-04    0.25E-04    0.16E-06
   0     10    11.641    73.629    0.49E-04    0.24E-04    0.16E-06
   1     10    11.641    15.255    0.99E-04    0.55E-04    0.11E-06
   1     10    11.641     9.562    0.81E-04    0.47E-04    0.95E-07
  PAW_PBE Ag 02Apr2005                  :
 energy of atom  1       EATOM=-1037.2675
 kinetic energy error for atom=    0.0047 (will be added to EATOM!!)


 POSCAR: Ag
  positions in direct lattice
  No initial velocities read in
 -----------------------------------------------------------------------------
|                                                                             |
|           W    W    AA    RRRRR   N    N  II  N    N   GGGG   !!!           |
|           W    W   A  A   R    R  NN   N  II  NN   N  G    G  !!!           |
|           W    W  A    A  R    R  N N  N  II  N N  N  G       !!!           |
|           W WW W  AAAAAA  RRRRR   N  N N  II  N  N N  G  GGG   !            |
|           WW  WW  A    A  R   R   N   NN  II  N   NN  G    G                |
|           W    W  A    A  R    R  N    N  II  N    N   GGGG   !!!           |
|                                                                             |
|     Specifying the vdW parameters                                           |
|     VDW_S8 = 1.195                                                          |
|     VDW_A1 = 0.387                                                          |
|     VDW_A2 = 5.191                                                          |
|     in the INCAR file will overwrite the defaults for hse06. Please         |
|     make sure that is what you intended.                                    |
|                                                                             |
 -----------------------------------------------------------------------------

 exchange correlation table for  LEXCH =        8
   RHO(1)=    0.500       N(1)  =     2000
   RHO(2)=  100.500       N(2)  =     4000



--------------------------------------------------------------------------------------------------------


 ion  position               nearest neighbor table
   1  0.493  0.407  0.638-   2 2.57
   2  0.407  0.493  0.638-   1 2.57

  LATTYP: Found a simple tetragonal cell.
 ALAT       =    21.1388521970
 C/A-ratio  =     1.0461251639
  
  Lattice vectors:
  
 A1 = (  21.1388521970,   0.0000000000,   0.0000000000)
 A2 = (   0.0000000000,  21.1388521970,   0.0000000000)
 A3 = (   0.0000000000,   0.0000000000,  22.1138852197)


Analysis of symmetry for initial positions (statically):
=====================================================================
 Subroutine PRICEL returns:
 Original cell was already a primitive cell.
 

 Routine SETGRP: Setting up the symmetry group for a 
 simple tetragonal supercell.


 Subroutine GETGRP returns: Found  8 space group operations
 (whereof  2 operations were pure point group operations)
 out of a pool of 16 trial point group operations.


The static configuration has the point symmetry C_1h.
 The point group associated with its full space group is D_2h.


Analysis of symmetry for dynamics (positions and initial velocities):
=====================================================================
 Subroutine PRICEL returns:
 Original cell was already a primitive cell.
 

 Routine SETGRP: Setting up the symmetry group for a 
 simple tetragonal supercell.


 Subroutine GETGRP returns: Found  8 space group operations
 (whereof  2 operations were pure point group operations)
 out of a pool of 16 trial point group operations.


The dynamic configuration has the point symmetry C_1h.
 The point group associated with its full space group is D_2h.


 Subroutine INISYM returns: Found  8 space group operations
 (whereof  2 operations are pure point group operations),
 and found     1 'primitive' translations


----------------------------------------------------------------------------------------

                                     Primitive cell                                     

  volume of cell :    9881.6133

  direct lattice vectors                    reciprocal lattice vectors
    21.138852197  0.000000000  0.000000000     0.047306258  0.000000000  0.000000000
     0.000000000 21.138852197  0.000000000     0.000000000  0.047306258  0.000000000
     0.000000000  0.000000000 22.113885220     0.000000000  0.000000000  0.045220457

  length of vectors
    21.138852197 21.138852197 22.113885220     0.047306258  0.047306258  0.045220457

  position of ions in fractional coordinates (direct lattice)
     0.492981444  0.407018562  0.637532147
     0.407018532  0.492981474  0.637532147

  ion indices of the primitive-cell ions
   primitive index   ion index
                 1           1
                 2           2

----------------------------------------------------------------------------------------



 KPOINTS: KPOINTS created by Atomic Simulation Env

Automatic generation of k-mesh.
 Grid dimensions read from file:
 generate k-points for:    1    1    1

 Generating k-lattice:

  Cartesian coordinates                     Fractional coordinates (reciprocal lattice)
     0.047306258  0.000000000  0.000000000     1.000000000  0.000000000  0.000000000
     0.000000000  0.047306258  0.000000000     0.000000000  1.000000000  0.000000000
     0.000000000  0.000000000  0.045220457     0.000000000  0.000000000  1.000000000

  Length of vectors
     0.047306258  0.047306258  0.045220457

  Shift w.r.t. Gamma in fractional coordinates (k-lattice)
     0.000000000  0.000000000  0.000000000

 
 Subroutine IBZKPT returns following result:
 ===========================================
 
 Found      1 irreducible k-points:
 
 Following reciprocal coordinates:
            Coordinates               Weight
  0.000000  0.000000  0.000000      1.000000
 
 Following cartesian coordinates:
            Coordinates               Weight
  0.000000  0.000000  0.000000      1.000000
 
 
 Subroutine IBZKPT_HF returns following result:
 ==============================================
 
 Found      1 k-points in 1st BZ
 the following      1 k-points will be used (e.g. in the exchange kernel)
 Following reciprocal coordinates:   # in IRBZ
  0.000000  0.000000  0.000000    1.00000000   1 t-inv F


--------------------------------------------------------------------------------------------------------




 Dimension of arrays:
   k-points           NKPTS =      1   k-points in BZ     NKDIM =      1   number of bands    NBANDS=    192
   number of dos      NEDOS =    301   number of ions     NIONS =      2
   non local maximal  LDIM  =      6   non local SUM 2l+1 LMDIM =     18
   total plane-waves  NPLWV = ******
   max r-space proj   IRMAX =   5559   max aug-charges    IRDMAX=  21597
   dimension x,y,z NGX =   160 NGY =  160 NGZ =  168
   dimension x,y,z NGXF=   320 NGYF=  320 NGZF=  336
   support grid    NGXF=   320 NGYF=  320 NGZF=  336
   ions per type =               2
   NGX,Y,Z   is equivalent  to a cutoff of  12.58, 12.58, 12.63 a.u.
   NGXF,Y,Z  is equivalent  to a cutoff of  25.17, 25.17, 25.26 a.u.

 SYSTEM =  MgO-rocksalt                            
 POSCAR =  Ag                                      

 Startparameter for this run:
   NWRITE =      2    write-flag & timer
   PREC   = accura    normal or accurate (medium, high low for compatibility)
   ISTART =      0    job   : 0-new  1-cont  2-samecut
   ICHARG =      2    charge: 1-file 2-atom 10-const
   ISPIN  =      1    spin polarized calculation?
   LNONCOLLINEAR =      F non collinear calculations
   LSORBIT =      F    spin-orbit coupling
   INIWAV =      1    electr: 0-lowe 1-rand  2-diag
   LASPH  =      T    aspherical Exc in radial PAW
 Electronic Relaxation 1
   ENCUT  =  520.0 eV  38.22 Ry    6.18 a.u.  39.30 39.30 41.12*2*pi/ulx,y,z
   ENINI  =  520.0     initial cutoff
   ENAUG  =  412.5 eV  augmentation charge cutoff
   NELM   =    200;   NELMIN=  8; NELMDL= -5     # of ELM steps 
   EDIFF  = 0.1E-05   stopping-criterion for ELM
   LREAL  =      T    real-space projection
   NLSPLINE    = F    spline interpolate recip. space projectors
   LCOMPAT=      F    compatible to vasp.4.4
   GGA_COMPAT  = T    GGA compatible to vasp.4.4-vasp.4.6
   LMAXPAW     = -100 max onsite density
   LMAXMIX     =    2 max onsite mixed and CHGCAR
   VOSKOWN=      0    Vosko Wilk Nusair interpolation
   ROPT   =   -0.00025
 Ionic relaxation
   EDIFFG = 0.1E-04   stopping-criterion for IOM
   NSW    =      0    number of steps for IOM
   NBLOCK =      1;   KBLOCK =      1    inner block; outer block 
   IBRION =     -1    ionic relax: 0-MD 1-quasi-New 2-CG
   NFREE  =      0    steps in history (QN), initial steepest desc. (CG)
   ISIF   =      0    stress and relaxation
   IWAVPR =     10    prediction:  0-non 1-charg 2-wave 3-comb
   ISYM   =      2    0-nonsym 1-usesym 2-fastsym
   LCORR  =      T    Harris-Foulkes like correction to forces

   POTIM  = 0.5000    time-step for ionic-motion
   TEIN   =    0.0    initial temperature
   TEBEG  =    0.0;   TEEND  =   0.0 temperature during run
   SMASS  =  -3.00    Nose mass-parameter (am)
   estimated Nose-frequenzy (Omega)   =  0.10E-29 period in steps = 0.13E+47 mass=  -0.102E-25a.u.
   SCALEE = 1.0000    scale energy and forces
   NPACO  =    256;   APACO  = 10.0  distance and # of slots for P.C.
   PSTRESS=    0.0 pullay stress

  Mass of Ions in am
   POMASS = 107.87
  Ionic Valenz
   ZVAL   =  11.00
  Atomic Wigner-Seitz radii
   RWIGS  =  -1.00
  virtual crystal weights 
   VCA    =   1.00
   NELECT =      22.0000    total number of electrons
   NUPDOWN=      -1.0000    fix difference up-down

 DOS related values:
   EMIN   =  10.00;   EMAX   =-10.00  energy-range for DOS
   EFERMI =   0.00
   ISMEAR =     0;   SIGMA  =   0.05  broadening in eV -4-tet -1-fermi 0-gaus

 Electronic relaxation 2 (details)
   IALGO  =     58    algorithm
   LDIAG  =      T    sub-space diagonalisation (order eigenvalues)
   LSUBROT=      F    optimize rotation matrix (better conditioning)
   TURBO    =      0    0=normal 1=particle mesh
   IRESTART =      0    0=no restart 2=restart with 2 vectors
   NREBOOT  =      0    no. of reboots
   NMIN     =      0    reboot dimension
   EREF     =   0.00    reference energy to select bands
   IMIX   =      4    mixing-type and parameters
     AMIX     =   0.40;   BMIX     =  1.00
     AMIX_MAG =   1.60;   BMIX_MAG =  1.00
     AMIN     =   0.10
     WC   =   100.;   INIMIX=   1;  MIXPRE=   1;  MAXMIX= -45

 Intra band minimization:
   WEIMIN = 0.0000     energy-eigenvalue tresh-hold
   EBREAK =  0.13E-08  absolut break condition
   DEPER  =   0.30     relativ break condition  

   TIME   =   0.40     timestep for ELM

  volume/ion in A,a.u.               =    4940.81     33342.21
  Fermi-wavevector in a.u.,A,eV,Ry     =   0.213767  0.403960  0.621734  0.045696
  Thomas-Fermi vector in A             =   0.985879

 Write flags
   LWAVE        =      F    write WAVECAR
   LDOWNSAMPLE  =      F    k-point downsampling of WAVECAR
   LCHARG       =      F    write CHGCAR
   LVTOT        =      F    write LOCPOT, total local potential
   LVHAR        =      F    write LOCPOT, Hartree potential only
   LELF         =      F    write electronic localiz. function (ELF)
   LORBIT       =      0    0 simple, 1 ext, 2 COOP (PROOUT), +10 PAW based schemes


 Dipole corrections
   LMONO  =      F    monopole corrections only (constant potential shift)
   LDIPOL =      T    correct potential (dipole corrections)
   IDIPOL =      3    1-x, 2-y, 3-z, 4-all directions 
   EPSILON=  1.0000000 bulk dielectric constant

 Exchange correlation treatment:
   GGA     =    PE    GGA type
   LEXCH   =     8    internal setting for exchange type
   LIBXC   =     F    Libxc                    
   VOSKOWN =     0    Vosko Wilk Nusair interpolation
   EXXOEP  =     0    0=HF, 1=EXX-LHF (local Hartree Fock) 2=EXX OEP
   LHFCALC =     T    Hartree Fock is set to
   LSYMGRAD=     F    symmetrize gradient (conserves proper symmetry)
   PRECFOCK=normal    Normal, Fast or Accurate (Low or Medium for compatibility)
   LRHFCALC=     F    long range Hartree Fock
   LRSCOR  =     F    long range correlation only (use DFT for short range part)
   LTHOMAS =     F    Thomas Fermi screening in HF
   LMODELHF=     F    short range full HF, long range fraction AEXX
   LFOCKACE=     T    use Adeptively-Compressed-Exchange operator
   ENCUT4O =  -1.0   cutoff for four orbital integrals eV
   LMAXFOCK=     4    L truncation for augmentation on plane wave grid
   LMAXFOCKAE=  -1    L truncation for all-electron charge restoration on plane wave grid
   NMAXFOCKAE=   1    number of basis functions for all-electron charge restoration
   LFOCKAEDFT=     F  apply the AE augmentation even for DFT
   NKREDX  =     1    reduce k-point grid by
   NKREDY  =     1    reduce k-point grid by
   NKREDZ  =     1    reduce k-point grid by
   SHIFTRED=     F    shift reduced grid of Gamma
   HFKIDENT=     F    idential grid for each k-point
   ODDONLY =     F    use only odd q-grid points
   EVENONLY=     F    use only even q-grid points
   HFALPHA =   -1.0000 decay constant for conv. correction
   MCALPHA =    0.0000 extent of test-charge in conv. correction in multipole expansion
   AEXX    =    0.2500 exact exchange contribution
   HFSCREEN=    0.2000 screening length (either q_TF or 0.3 A-1)
   HFSCREENC=   0.2000 screening length for correlation (either q_TF or 0.3 A-1)
   HFRCUT  =    0.0000 spherical cutoff for potential kernel
   ALDAX   =    0.7500 LDA exchange part
   AGGAX   =    0.7500 GGA exchange part
   ALDAC   =    1.0000 LDA correlation
   AGGAC   =    1.0000 GGA correlation
   ENCUTFOCK=  -1.0 apply spherical cutoff to Coloumb kernel
   NBANDSGWLOW=     1    first orbital included in HF term
   NBLOCK_FOCK=    64    blocking factor in FOCK_ACC

 Linear response parameters
   LEPSILON=     F    determine dielectric tensor
   LRPA    =     F    only Hartree local field effects (RPA)
   LNABLA  =     F    use nabla operator in PAW spheres
   LVEL    =     F    velocity operator in full k-point grid
   CSHIFT  =0.1000    complex shift for real part using Kramers Kronig
   OMEGAMAX=  -1.0    maximum frequency
   DEG_THRESHOLD= 0.2000000E-02 threshold for treating states as degnerate
   RTIME   =   -0.100 relaxation time in fs
  (WPLASMAI=    0.000 imaginary part of plasma frequency in eV, 0.658/RTIME)
   DFIELD  = 0.0000000 0.0000000 0.0000000 field for delta impulse in time

  Optional k-point grid parameters
   LKPOINTS_OPT  =     F    use optional k-point grid
   KPOINTS_OPT_MODE=     1    mode for optional k-point grid

 Orbital magnetization related:
   ORBITALMAG=     F  switch on orbital magnetization
   LCHIMAG   =     F  perturbation theory with respect to B field
   DQ        =  0.001000  dq finite difference perturbation B field
   LLRAUG    =     F  two centre corrections for induced B field



--------------------------------------------------------------------------------------------------------


 Static calculation
 charge density and potential will be updated during run
 non-spin polarized calculation
 Conjugate gradient for all bands (Freysoldt, et al. PRB 79, 241103 (2009))
 preconditioned conjugated gradient                                        
 perform sub-space diagonalisation
    before iterative eigenvector-optimisation
 modified Broyden-mixing scheme, WC =      100.0
 initial mixing is a Kerker type mixing with AMIX =  0.4000 and BMIX =      1.0000
 Hartree-type preconditioning will be used
 using additional bands          181
 real space projection scheme for non local part
 use partial core corrections
 no Harris-corrections to forces 
 use gradient corrections 
 use of overlap-Matrix (Vanderbilt PP)
 Gauss-broadening in eV      SIGMA  =   0.05


--------------------------------------------------------------------------------------------------------


  energy-cutoff  :      520.00
  volume of cell :     9881.61
      direct lattice vectors                 reciprocal lattice vectors
    21.138852197  0.000000000  0.000000000     0.047306258  0.000000000  0.000000000
     0.000000000 21.138852197  0.000000000     0.000000000  0.047306258  0.000000000
     0.000000000  0.000000000 22.113885220     0.000000000  0.000000000  0.045220457

  length of vectors
    21.138852197 21.138852197 22.113885220     0.047306258  0.047306258  0.045220457



 k-points in units of 2pi/SCALE and weight: KPOINTS created by Atomic Simulation Env
   0.00000000  0.00000000  0.00000000       1.000

 k-points in reciprocal lattice and weights: KPOINTS created by Atomic Simulation Env
   0.00000000  0.00000000  0.00000000       1.000

 position of ions in fractional coordinates (direct lattice) 
   0.49298144  0.40701856  0.63753215
   0.40701853  0.49298147  0.63753215

 position of ions in cartesian coordinates  (Angst):
  10.42106188  8.60390523 14.09831271
   8.60390459 10.42106252 14.09831271



--------------------------------------------------------------------------------------------------------


 k-point   1 :   0.0000 0.0000 0.0000  plane waves:  265979

 maximum and minimum number of plane-waves per node :     66495    66494

 maximum number of plane-waves:    265979
 maximum index in each direction: 
   IXMAX=   39   IYMAX=   39   IZMAX=   41
   IXMIN=  -39   IYMIN=  -39   IZMIN=  -41


 real space projection operators:
  total allocation   :       1502.44 KBytes
  max/ min on nodes  :        377.02        372.09


 parallel 3D FFT for wavefunctions:
    minimum data exchange during FFTs selected (reduces bandwidth)
 parallel 3D FFT for charge:
    minimum data exchange during FFTs selected (reduces bandwidth)


 FFT grid for exact exchange (Hartree Fock) 
  NGX =120; NGY =120; NGZ =126


 Radii for the augmentation spheres in the non-local exchange
 for species   1 augmentation radius   1.406 (default was   1.125)
       energy cutoff for augmentation   2080.0

 real space projection operators:
  total allocation   :        837.50 KBytes
  max/ min on nodes  :        212.89        208.01

 Maximum index for augmentation-charges in exchange          534
  SETUP_FOCK is finished

 total amount of memory used by VASP MPI-rank0   144370. kBytes
=======================================================================

   base      :      30000. kBytes
   nonlr-proj:        976. kBytes
   fftplans  :      61817. kBytes
   grid      :      48291. kBytes
   one-center:         15. kBytes
   HF        :         64. kBytes
   wavefun   :       3207. kBytes

     INWAV:  cpu time      0.0000: real time      0.0000
 Broyden mixing: mesh for mixing (old mesh)
   NGX = 79   NGY = 79   NGZ = 83
  (NGX  =320   NGY  =320   NGZ  =336)
  gives a total of 518003 points

 initial charge density was supplied:
 charge density of overlapping atoms calculated
 number of electron      22.0000000 magnetization 
 keeping initial charge density in first step


--------------------------------------------------------------------------------------------------------


 Maximum index for non-local projection operator         1323
 Maximum index for augmentation-charges            0 (set IRDMAX)


--------------------------------------------------------------------------------------------------------


 First call to EWALD:  gamma=   0.083
 Maximum number of real-space cells 3x 3x 3
 Maximum number of reciprocal cells 3x 3x 3

    FEWALD:  cpu time      0.0010: real time      0.0010


--------------------------------------- Iteration      1(   1)  ---------------------------------------


    POTLOK:  cpu time      0.1752: real time      0.1756
    SETDIJ:  cpu time      0.1077: real time      0.1077
    TRIAL :  cpu time      1.4676: real time      1.4679
    CORREC:  cpu time      0.0011: real time      0.0011
    --------------------------------------------
      LOOP:  cpu time      1.7532: real time      1.7542

 eigenvalue-minimisations  :   384
 total energy-change (2. order) :-0.1711743E+04  (-0.5390407E+03)
 number of electron      22.0000000 magnetization 
 augmentation part       22.0000000 magnetization 

 DIPCOR: dipole corrections for dipol
 direction  3 min pos     1,
 dipolmoment           0.000000      0.000000     -0.000016 electrons x Angstroem
 Tr[quadrupol]     -4016.067117

 energy correction for charged system         0.000000 eV
 dipol+quadrupol energy correction           -0.000000 eV
 added-field ion interaction          0.000022 eV  (added to PSCEN)


 Free energy of the ion-electron system (eV)
  ---------------------------------------------------
  alpha Z        PSCENC =         0.34432903
  Ewald energy   TEWEN  =       220.16056373
  -Hartree energ DENC   =     -2202.23909023
  -exchange      EXHF   =         0.00000000
  -V(xc)+E(xc)   XCENC  =       -23.75833071
  PAW double counting   =      2006.92429865    -3758.12335768
  entropy T*S    EENTRO =        -0.01116097
  eigenvalues    EBANDS =       -27.62187107
  atomic energy  EATOM  =      2072.58200591
  ---------------------------------------------------
  free energy    TOTEN  =     -1711.74261334 eV

  energy without entropy =    -1711.73145237  energy(sigma->0) =    -1711.73703285
  exchange ACFDT corr.  =         0.00000000  see jH, gK, PRB 81, 115126


--------------------------------------------------------------------------------------------------------




--------------------------------------- Iteration      1(   2)  ---------------------------------------


    TRIAL :  cpu time      1.4711: real time      1.4712
    CORREC:  cpu time      0.0003: real time      0.0003
    --------------------------------------------
      LOOP:  cpu time      1.4777: real time      1.4888

 eigenvalue-minimisations  :   384
 total energy-change (2. order) :-0.1974382E+03  (-0.1972596E+03)
 number of electron      22.0000000 magnetization 
 augmentation part       22.0000000 magnetization 

 DIPCOR: dipole corrections for dipol
 direction  3 min pos     1,
 dipolmoment           0.000000      0.000000     -0.000016 electrons x Angstroem
 Tr[quadrupol]     -4016.067117

 energy correction for charged system         0.000000 eV
 dipol+quadrupol energy correction           -0.000000 eV
 added-field ion interaction          0.000022 eV  (added to PSCEN)


 Free energy of the ion-electron system (eV)
  ---------------------------------------------------
  alpha Z        PSCENC =         0.34432903
  Ewald energy   TEWEN  =       220.16056373
  -Hartree energ DENC   =     -2202.23909023
  -exchange      EXHF   =         0.00000000
  -V(xc)+E(xc)   XCENC  =       -23.75833071
  PAW double counting   =      2006.92429865    -3758.12335768
  entropy T*S    EENTRO =        -0.00000000
  eigenvalues    EBANDS =      -225.07126477
  atomic energy  EATOM  =      2072.58200591
  ---------------------------------------------------
  free energy    TOTEN  =     -1909.18084606 eV

  energy without entropy =    -1909.18084606  energy(sigma->0) =    -1909.18084606
  exchange ACFDT corr.  =         0.00000000  see jH, gK, PRB 81, 115126


--------------------------------------------------------------------------------------------------------




--------------------------------------- Iteration      1(   3)  ---------------------------------------


    TRIAL :  cpu time      1.4318: real time      1.4323
    CORREC:  cpu time      0.0003: real time      0.0003
    --------------------------------------------
      LOOP:  cpu time      1.4400: real time      1.4492

 eigenvalue-minimisations  :   384
 total energy-change (2. order) :-0.5949770E+01  (-0.5949768E+01)
 number of electron      22.0000000 magnetization 
 augmentation part       22.0000000 magnetization 

 DIPCOR: dipole corrections for dipol
 direction  3 min pos     1,
 dipolmoment           0.000000      0.000000     -0.000016 electrons x Angstroem
 Tr[quadrupol]     -4016.067117

 energy correction for charged system         0.000000 eV
 dipol+quadrupol energy correction           -0.000000 eV
 added-field ion interaction          0.000022 eV  (added to PSCEN)


 Free energy of the ion-electron system (eV)
  ---------------------------------------------------
  alpha Z        PSCENC =         0.34432903
  Ewald energy   TEWEN  =       220.16056373
  -Hartree energ DENC   =     -2202.23909023
  -exchange      EXHF   =         0.00000000
  -V(xc)+E(xc)   XCENC  =       -23.75833071
  PAW double counting   =      2006.92429865    -3758.12335768
  entropy T*S    EENTRO =        -0.00000000
  eigenvalues    EBANDS =      -231.02103468
  atomic energy  EATOM  =      2072.58200591
  ---------------------------------------------------
  free energy    TOTEN  =     -1915.13061598 eV

  energy without entropy =    -1915.13061598  energy(sigma->0) =    -1915.13061598
  exchange ACFDT corr.  =         0.00000000  see jH, gK, PRB 81, 115126


--------------------------------------------------------------------------------------------------------




--------------------------------------- Iteration      1(   4)  ---------------------------------------


    TRIAL :  cpu time      1.4389: real time      1.4390
    CORREC:  cpu time      0.0003: real time      0.0003
    --------------------------------------------
      LOOP:  cpu time      1.4546: real time      1.4552

 eigenvalue-minimisations  :   384
 total energy-change (2. order) :-0.1556928E-01  (-0.1556879E-01)
 number of electron      22.0000000 magnetization 
 augmentation part       22.0000000 magnetization 

 DIPCOR: dipole corrections for dipol
 direction  3 min pos     1,
 dipolmoment           0.000000      0.000000     -0.000016 electrons x Angstroem
 Tr[quadrupol]     -4016.067117

 energy correction for charged system         0.000000 eV
 dipol+quadrupol energy correction           -0.000000 eV
 added-field ion interaction          0.000022 eV  (added to PSCEN)


 Free energy of the ion-electron system (eV)
  ---------------------------------------------------
  alpha Z        PSCENC =         0.34432903
  Ewald energy   TEWEN  =       220.16056373
  -Hartree energ DENC   =     -2202.23909023
  -exchange      EXHF   =         0.00000000
  -V(xc)+E(xc)   XCENC  =       -23.75833071
  PAW double counting   =      2006.92429865    -3758.12335768
  entropy T*S    EENTRO =        -0.00000000
  eigenvalues    EBANDS =      -231.03660396
  atomic energy  EATOM  =      2072.58200591
  ---------------------------------------------------
  free energy    TOTEN  =     -1915.14618526 eV

  energy without entropy =    -1915.14618526  energy(sigma->0) =    -1915.14618526
  exchange ACFDT corr.  =         0.00000000  see jH, gK, PRB 81, 115126


--------------------------------------------------------------------------------------------------------




--------------------------------------- Iteration      1(   5)  ---------------------------------------


    POTLOK:  cpu time      0.2022: real time      0.2022
    SETDIJ:  cpu time      0.3363: real time      0.3363
    TRIAL :  cpu time     25.4670: real time     25.4778
    CORREC:  cpu time      0.0004: real time      0.0004
    CHARGE:  cpu time      0.6956: real time      0.6963
    --------------------------------------------
      LOOP:  cpu time     26.7084: real time     26.7274

 eigenvalue-minimisations  :   384
 total energy-change (2. order) : 0.1912468E+04  (-0.1663705E+01)
 number of electron      22.0000001 magnetization 
 augmentation part       10.8968379 magnetization 

 DIPCOR: dipole corrections for dipol
 direction  3 min pos     1,
 dipolmoment           0.000000      0.000000     -0.000016 electrons x Angstroem
 Tr[quadrupol]     -4016.067117

 energy correction for charged system         0.000000 eV
 dipol+quadrupol energy correction           -0.000000 eV
 added-field ion interaction          0.000022 eV  (added to PSCEN)


 Free energy of the ion-electron system (eV)
  ---------------------------------------------------
  alpha Z        PSCENC =         0.34432903
  Ewald energy   TEWEN  =       220.16056373
  -Hartree energ DENC   =     -2202.23909023
  -exchange      EXHF   =        48.07658512
  -V(xc)+E(xc)   XCENC  =       -20.99101478
  PAW double counting   =      2004.03875383    -1923.17193202
  entropy T*S    EENTRO =        -0.00000000
  eigenvalues    EBANDS =      -201.47859177
  atomic energy  EATOM  =      2072.58200591
  ---------------------------------------------------
  free energy    TOTEN  =        -2.67839117 eV

  energy without entropy =       -2.67839117  energy(sigma->0) =       -2.67839117
  exchange ACFDT corr.  =        -0.00000000  see jH, gK, PRB 81, 115126


--------------------------------------------------------------------------------------------------------




--------------------------------------- Iteration      1(   6)  ---------------------------------------


    POTLOK:  cpu time      0.2003: real time      0.2004
    SETDIJ:  cpu time      0.3288: real time      0.3291
    TRIAL :  cpu time     40.1537: real time     40.2739
    CORREC:  cpu time     25.0415: real time     25.0539
    CHARGE:  cpu time      0.6354: real time      0.6359
    --------------------------------------------
      LOOP:  cpu time     66.3770: real time     66.5108

 eigenvalue-minimisations  :     0
 total energy-change (2. order) : 0.7742845E+00  (-0.4856064E+00)
 number of electron      22.0000001 magnetization 
 augmentation part       10.7153233 magnetization 

 DIPCOR: dipole corrections for dipol
 direction  3 min pos     1,
 dipolmoment           0.000000      0.000000     -0.001581 electrons x Angstroem
 Tr[quadrupol]     -4016.093549

 energy correction for charged system         0.000000 eV
 dipol+quadrupol energy correction           -0.000000 eV
 added-field ion interaction          0.002094 eV  (added to PSCEN)


 Free energy of the ion-electron system (eV)
  ---------------------------------------------------
  alpha Z        PSCENC =         0.34433958
  Ewald energy   TEWEN  =       220.16056373
  -Hartree energ DENC   =     -2252.85784482
  -exchange      EXHF   =        46.02375181
  -V(xc)+E(xc)   XCENC  =       -20.11213927
  PAW double counting   =      2313.64217187    -2234.24486846
  entropy T*S    EENTRO =        -0.00000000
  eigenvalues    EBANDS =      -147.44208701
  atomic energy  EATOM  =      2072.58200591
  ---------------------------------------------------
  free energy    TOTEN  =        -1.90410665 eV

  energy without entropy =       -1.90410665  energy(sigma->0) =       -1.90410665
  exchange ACFDT corr.  =        -0.00000000  see jH, gK, PRB 81, 115126


--------------------------------------------------------------------------------------------------------




--------------------------------------- Iteration      1(   7)  ---------------------------------------


    POTLOK:  cpu time      0.2304: real time      0.2304
    SETDIJ:  cpu time      0.3160: real time      0.3160
    TRIAL :  cpu time     23.9239: real time     23.9359
    CORREC:  cpu time     24.8959: real time     24.9073
    CHARGE:  cpu time      0.6346: real time      0.6351
    --------------------------------------------
      LOOP:  cpu time     50.0073: real time     50.0435

 eigenvalue-minimisations  :     0
 total energy-change (2. order) :-0.4878107E+00  (-0.8529039E-01)
 number of electron      22.0000001 magnetization 
 augmentation part       10.7654419 magnetization 

 DIPCOR: dipole corrections for dipol
 direction  3 min pos     1,
 dipolmoment           0.000000      0.000000     -0.000762 electrons x Angstroem
 Tr[quadrupol]     -4016.178297

 energy correction for charged system         0.000000 eV
 dipol+quadrupol energy correction           -0.000000 eV
 added-field ion interaction          0.001008 eV  (added to PSCEN)


 Free energy of the ion-electron system (eV)
  ---------------------------------------------------
  alpha Z        PSCENC =         0.34583472
  Ewald energy   TEWEN  =       220.16056373
  -Hartree energ DENC   =     -2218.67201157
  -exchange      EXHF   =        45.28804245
  -V(xc)+E(xc)   XCENC  =       -20.78966464
  PAW double counting   =      2277.50345171    -2197.61434538
  entropy T*S    EENTRO =        -0.00000000
  eigenvalues    EBANDS =      -181.19579428
  atomic energy  EATOM  =      2072.58200591
  ---------------------------------------------------
  free energy    TOTEN  =        -2.39191735 eV

  energy without entropy =       -2.39191735  energy(sigma->0) =       -2.39191735
  exchange ACFDT corr.  =        -0.00000000  see jH, gK, PRB 81, 115126


--------------------------------------------------------------------------------------------------------




--------------------------------------- Iteration      1(   8)  ---------------------------------------


    POTLOK:  cpu time      0.2277: real time      0.2277
    SETDIJ:  cpu time      0.3172: real time      0.3173
    TRIAL :  cpu time     24.1059: real time     24.1177
    CORREC:  cpu time     25.1626: real time     25.1747
    CHARGE:  cpu time      0.6329: real time      0.6334
    --------------------------------------------
      LOOP:  cpu time     50.4635: real time     50.4883

 eigenvalue-minimisations  :     0
 total energy-change (2. order) :-0.8542915E-01  (-0.3350475E-01)
 number of electron      22.0000001 magnetization 
 augmentation part       10.7501635 magnetization 

 DIPCOR: dipole corrections for dipol
 direction  3 min pos     1,
 dipolmoment           0.000000      0.000000     -0.000265 electrons x Angstroem
 Tr[quadrupol]     -4016.178853

 energy correction for charged system         0.000000 eV
 dipol+quadrupol energy correction           -0.000000 eV
 added-field ion interaction          0.000351 eV  (added to PSCEN)


 Free energy of the ion-electron system (eV)
  ---------------------------------------------------
  alpha Z        PSCENC =         0.34516127
  Ewald energy   TEWEN  =       220.16056373
  -Hartree energ DENC   =     -2222.12701816
  -exchange      EXHF   =        45.43362629
  -V(xc)+E(xc)   XCENC  =       -20.66856268
  PAW double counting   =      2274.95442351    -2194.99692333
  entropy T*S    EENTRO =        -0.00000000
  eigenvalues    EBANDS =      -178.16062303
  atomic energy  EATOM  =      2072.58200591
  ---------------------------------------------------
  free energy    TOTEN  =        -2.47734650 eV

  energy without entropy =       -2.47734650  energy(sigma->0) =       -2.47734650
  exchange ACFDT corr.  =        -0.00000000  see jH, gK, PRB 81, 115126


--------------------------------------------------------------------------------------------------------




--------------------------------------- Iteration      1(   9)  ---------------------------------------


    POTLOK:  cpu time      0.2112: real time      0.2112
    SETDIJ:  cpu time      0.3274: real time      0.3274
    TRIAL :  cpu time     24.0932: real time     24.1045
    CORREC:  cpu time     25.2436: real time     25.2551
    CHARGE:  cpu time      0.6311: real time      0.6316
    --------------------------------------------
      LOOP:  cpu time     50.5122: real time     50.5469

 eigenvalue-minimisations  :     0
 total energy-change (2. order) :-0.3325468E-01  (-0.9376988E-02)
 number of electron      22.0000001 magnetization 
 augmentation part       10.7573986 magnetization 

 DIPCOR: dipole corrections for dipol
 direction  3 min pos     1,
 dipolmoment           0.000000      0.000000     -0.000018 electrons x Angstroem
 Tr[quadrupol]     -4016.151825

 energy correction for charged system         0.000000 eV
 dipol+quadrupol energy correction           -0.000000 eV
 added-field ion interaction          0.000024 eV  (added to PSCEN)


 Free energy of the ion-electron system (eV)
  ---------------------------------------------------
  alpha Z        PSCENC =         0.34439121
  Ewald energy   TEWEN  =       220.16056373
  -Hartree energ DENC   =     -2218.84621344
  -exchange      EXHF   =        45.35502582
  -V(xc)+E(xc)   XCENC  =       -20.73664794
  PAW double counting   =      2268.51397382    -2188.50604879
  entropy T*S    EENTRO =        -0.00000000
  eigenvalues    EBANDS =      -181.37765150
  atomic energy  EATOM  =      2072.58200591
  ---------------------------------------------------
  free energy    TOTEN  =        -2.51060118 eV

  energy without entropy =       -2.51060118  energy(sigma->0) =       -2.51060118
  exchange ACFDT corr.  =        -0.00000000  see jH, gK, PRB 81, 115126


--------------------------------------------------------------------------------------------------------




--------------------------------------- Iteration      1(  10)  ---------------------------------------


    POTLOK:  cpu time      0.1928: real time      0.1928
    SETDIJ:  cpu time      0.3288: real time      0.3288
    TRIAL :  cpu time     24.2624: real time     24.2748
    CORREC:  cpu time     25.1056: real time     25.1169
    CHARGE:  cpu time      0.6309: real time      0.6314
    --------------------------------------------
      LOOP:  cpu time     50.5376: real time     50.5623

 eigenvalue-minimisations  :     0
 total energy-change (2. order) :-0.9342986E-02  (-0.1712137E-02)
 number of electron      22.0000001 magnetization 
 augmentation part       10.7555851 magnetization 

 DIPCOR: dipole corrections for dipol
 direction  3 min pos     1,
 dipolmoment           0.000000      0.000000     -0.000002 electrons x Angstroem
 Tr[quadrupol]     -4016.139618

 energy correction for charged system         0.000000 eV
 dipol+quadrupol energy correction           -0.000000 eV
 added-field ion interaction          0.000003 eV  (added to PSCEN)


 Free energy of the ion-electron system (eV)
  ---------------------------------------------------
  alpha Z        PSCENC =         0.34431668
  Ewald energy   TEWEN  =       220.16056373
  -Hartree energ DENC   =     -2218.26750363
  -exchange      EXHF   =        45.34981933
  -V(xc)+E(xc)   XCENC  =       -20.74688712
  PAW double counting   =      2268.64214644    -2188.61408310
  entropy T*S    EENTRO =        -0.00000000
  eigenvalues    EBANDS =      -181.97032241
  atomic energy  EATOM  =      2072.58200591
  ---------------------------------------------------
  free energy    TOTEN  =        -2.51994417 eV

  energy without entropy =       -2.51994417  energy(sigma->0) =       -2.51994417
  exchange ACFDT corr.  =        -0.00000000  see jH, gK, PRB 81, 115126


--------------------------------------------------------------------------------------------------------




--------------------------------------- Iteration      1(  11)  ---------------------------------------


    POTLOK:  cpu time      0.2155: real time      0.2156
    SETDIJ:  cpu time      0.2998: real time      0.2999
    TRIAL :  cpu time     24.1992: real time     24.2109
    CORREC:  cpu time     24.9981: real time     25.0096
    CHARGE:  cpu time      0.6317: real time      0.6322
    --------------------------------------------
      LOOP:  cpu time     50.3512: real time     50.3865

 eigenvalue-minimisations  :     0
 total energy-change (2. order) :-0.1713305E-02  (-0.2924303E-03)
 number of electron      22.0000001 magnetization 
 augmentation part       10.7577346 magnetization 

 DIPCOR: dipole corrections for dipol
 direction  3 min pos     1,
 dipolmoment           0.000000      0.000000     -0.000001 electrons x Angstroem
 Tr[quadrupol]     -4016.137258

 energy correction for charged system         0.000000 eV
 dipol+quadrupol energy correction           -0.000000 eV
 added-field ion interaction          0.000002 eV  (added to PSCEN)


 Free energy of the ion-electron system (eV)
  ---------------------------------------------------
  alpha Z        PSCENC =         0.34431202
  Ewald energy   TEWEN  =       220.16056373
  -Hartree energ DENC   =     -2217.62754444
  -exchange      EXHF   =        45.33399089
  -V(xc)+E(xc)   XCENC  =       -20.76182967
  PAW double counting   =      2268.53087409    -2188.49634264
  entropy T*S    EENTRO =        -0.00000000
  eigenvalues    EBANDS =      -182.58768736
  atomic energy  EATOM  =      2072.58200591
  ---------------------------------------------------
  free energy    TOTEN  =        -2.52165747 eV

  energy without entropy =       -2.52165747  energy(sigma->0) =       -2.52165747
  exchange ACFDT corr.  =        -0.00000000  see jH, gK, PRB 81, 115126


--------------------------------------------------------------------------------------------------------




--------------------------------------- Iteration      1(  12)  ---------------------------------------


    POTLOK:  cpu time      0.2043: real time      0.2043
    SETDIJ:  cpu time      0.3106: real time      0.3106
    TRIAL :  cpu time     24.1566: real time     24.1673
    CORREC:  cpu time     25.4142: real time     25.4262
    CHARGE:  cpu time      0.6334: real time      0.6338
    --------------------------------------------
      LOOP:  cpu time     50.7358: real time     50.7594

 eigenvalue-minimisations  :     0
 total energy-change (2. order) :-0.2915839E-03  (-0.5474691E-04)
 number of electron      22.0000001 magnetization 
 augmentation part       10.7561487 magnetization 

 DIPCOR: dipole corrections for dipol
 direction  3 min pos     1,
 dipolmoment           0.000000      0.000000     -0.000001 electrons x Angstroem
 Tr[quadrupol]     -4016.135962

 energy correction for charged system         0.000000 eV
 dipol+quadrupol energy correction           -0.000000 eV
 added-field ion interaction          0.000002 eV  (added to PSCEN)


 Free energy of the ion-electron system (eV)
  ---------------------------------------------------
  alpha Z        PSCENC =         0.34430986
  Ewald energy   TEWEN  =       220.16056373
  -Hartree energ DENC   =     -2217.94420685
  -exchange      EXHF   =        45.34082595
  -V(xc)+E(xc)   XCENC  =       -20.75547415
  PAW double counting   =      2268.92938208    -2188.89812027
  entropy T*S    EENTRO =        -0.00000000
  eigenvalues    EBANDS =      -182.28123532
  atomic energy  EATOM  =      2072.58200591
  ---------------------------------------------------
  free energy    TOTEN  =        -2.52194906 eV

  energy without entropy =       -2.52194906  energy(sigma->0) =       -2.52194906
  exchange ACFDT corr.  =        -0.00000000  see jH, gK, PRB 81, 115126


--------------------------------------------------------------------------------------------------------




--------------------------------------- Iteration      1(  13)  ---------------------------------------


    POTLOK:  cpu time      0.1854: real time      0.1854
    SETDIJ:  cpu time      0.3288: real time      0.3288
    TRIAL :  cpu time     23.8696: real time     23.8813
    CORREC:  cpu time     25.2804: real time     25.2927
    CHARGE:  cpu time      0.6321: real time      0.6325
    --------------------------------------------
      LOOP:  cpu time     50.3023: real time     50.3369

 eigenvalue-minimisations  :     0
 total energy-change (2. order) :-0.5483822E-04  (-0.1627280E-04)
 number of electron      22.0000001 magnetization 
 augmentation part       10.7566635 magnetization 

 DIPCOR: dipole corrections for dipol
 direction  3 min pos     1,
 dipolmoment           0.000000      0.000000     -0.000001 electrons x Angstroem
 Tr[quadrupol]     -4016.136601

 energy correction for charged system         0.000000 eV
 dipol+quadrupol energy correction           -0.000000 eV
 added-field ion interaction          0.000001 eV  (added to PSCEN)


 Free energy of the ion-electron system (eV)
  ---------------------------------------------------
  alpha Z        PSCENC =         0.34430898
  Ewald energy   TEWEN  =       220.16056373
  -Hartree energ DENC   =     -2217.71343144
  -exchange      EXHF   =        45.33502911
  -V(xc)+E(xc)   XCENC  =       -20.76047808
  PAW double counting   =      2268.73348282    -2188.70076757
  entropy T*S    EENTRO =        -0.00000000
  eigenvalues    EBANDS =      -182.50271736
  atomic energy  EATOM  =      2072.58200591
  ---------------------------------------------------
  free energy    TOTEN  =        -2.52200390 eV

  energy without entropy =       -2.52200390  energy(sigma->0) =       -2.52200390
  exchange ACFDT corr.  =        -0.00000000  see jH, gK, PRB 81, 115126


--------------------------------------------------------------------------------------------------------




--------------------------------------- Iteration      1(  14)  ---------------------------------------


    POTLOK:  cpu time      0.1774: real time      0.1775
    SETDIJ:  cpu time      0.3373: real time      0.3374
    TRIAL :  cpu time     24.3630: real time     24.3743
    CORREC:  cpu time     26.2885: real time     26.3007
    CHARGE:  cpu time      0.6318: real time      0.6323
    --------------------------------------------
      LOOP:  cpu time     51.8058: real time     51.8406

 eigenvalue-minimisations  :     0
 total energy-change (2. order) :-0.1595336E-04  (-0.3894805E-05)
 number of electron      22.0000001 magnetization 
 augmentation part       10.7564508 magnetization 

 DIPCOR: dipole corrections for dipol
 direction  3 min pos     1,
 dipolmoment           0.000000      0.000000     -0.000001 electrons x Angstroem
 Tr[quadrupol]     -4016.137039

 energy correction for charged system         0.000000 eV
 dipol+quadrupol energy correction           -0.000000 eV
 added-field ion interaction          0.000001 eV  (added to PSCEN)


 Free energy of the ion-electron system (eV)
  ---------------------------------------------------
  alpha Z        PSCENC =         0.34430877
  Ewald energy   TEWEN  =       220.16056373
  -Hartree energ DENC   =     -2217.81228098
  -exchange      EXHF   =        45.33729582
  -V(xc)+E(xc)   XCENC  =       -20.75834850
  PAW double counting   =      2268.86237707    -2188.83127110
  entropy T*S    EENTRO =        -0.00000000
  eigenvalues    EBANDS =      -182.40667057
  atomic energy  EATOM  =      2072.58200591
  ---------------------------------------------------
  free energy    TOTEN  =        -2.52201985 eV

  energy without entropy =       -2.52201985  energy(sigma->0) =       -2.52201985
  exchange ACFDT corr.  =        -0.00000000  see jH, gK, PRB 81, 115126


--------------------------------------------------------------------------------------------------------




--------------------------------------- Iteration      1(  15)  ---------------------------------------


    POTLOK:  cpu time      0.1888: real time      0.1888
    SETDIJ:  cpu time      0.3249: real time      0.3250
    TRIAL :  cpu time     25.8124: real time     25.8234
    CORREC:  cpu time     26.4853: real time     26.4965
    CHARGE:  cpu time      0.6332: real time      0.6336
    --------------------------------------------
      LOOP:  cpu time     53.4528: real time     53.4853

 eigenvalue-minimisations  :     0
 total energy-change (2. order) :-0.3945780E-05  (-0.1442754E-05)
 number of electron      22.0000001 magnetization 
 augmentation part       10.7564793 magnetization 

 DIPCOR: dipole corrections for dipol
 direction  3 min pos     1,
 dipolmoment           0.000000      0.000000     -0.000001 electrons x Angstroem
 Tr[quadrupol]     -4016.137204

 energy correction for charged system         0.000000 eV
 dipol+quadrupol energy correction           -0.000000 eV
 added-field ion interaction          0.000001 eV  (added to PSCEN)


 Free energy of the ion-electron system (eV)
  ---------------------------------------------------
  alpha Z        PSCENC =         0.34430871
  Ewald energy   TEWEN  =       220.16056373
  -Hartree energ DENC   =     -2217.79379610
  -exchange      EXHF   =        45.33674550
  -V(xc)+E(xc)   XCENC  =       -20.75878411
  PAW double counting   =      2268.91577033    -2188.88497202
  entropy T*S    EENTRO =        -0.00000000
  eigenvalues    EBANDS =      -182.42386574
  atomic energy  EATOM  =      2072.58200591
  ---------------------------------------------------
  free energy    TOTEN  =        -2.52202379 eV

  energy without entropy =       -2.52202379  energy(sigma->0) =       -2.52202379
  exchange ACFDT corr.  =        -0.00000000  see jH, gK, PRB 81, 115126


--------------------------------------------------------------------------------------------------------




--------------------------------------- Iteration      1(  16)  ---------------------------------------


    POTLOK:  cpu time      0.1994: real time      0.1995
    SETDIJ:  cpu time      0.3139: real time      0.3139
    TRIAL :  cpu time     25.5057: real time     25.5177
    CORREC:  cpu time     26.8629: real time     26.8748
    CHARGE:  cpu time      0.6347: real time      0.6352
    --------------------------------------------
      LOOP:  cpu time     53.5340: real time     53.5589

 eigenvalue-minimisations  :     0
 total energy-change (2. order) :-0.1364205E-05  (-0.3473915E-06)
 number of electron      22.0000001 magnetization 
 augmentation part       10.7564631 magnetization 

 DIPCOR: dipole corrections for dipol
 direction  3 min pos     1,
 dipolmoment           0.000000      0.000000     -0.000001 electrons x Angstroem
 Tr[quadrupol]     -4016.137425

 energy correction for charged system         0.000000 eV
 dipol+quadrupol energy correction           -0.000000 eV
 added-field ion interaction          0.000001 eV  (added to PSCEN)


 Free energy of the ion-electron system (eV)
  ---------------------------------------------------
  alpha Z        PSCENC =         0.34430869
  Ewald energy   TEWEN  =       220.16056373
  -Hartree energ DENC   =     -2217.80871154
  -exchange      EXHF   =        45.33700874
  -V(xc)+E(xc)   XCENC  =       -20.75850619
  PAW double counting   =      2269.00443919    -2188.97420700
  entropy T*S    EENTRO =        -0.00000000
  eigenvalues    EBANDS =      -182.40892669
  atomic energy  EATOM  =      2072.58200591
  ---------------------------------------------------
  free energy    TOTEN  =        -2.52202516 eV

  energy without entropy =       -2.52202516  energy(sigma->0) =       -2.52202516
  exchange ACFDT corr.  =        -0.00000000  see jH, gK, PRB 81, 115126


--------------------------------------------------------------------------------------------------------




--------------------------------------- Iteration      1(  17)  ---------------------------------------


    POTLOK:  cpu time      0.1904: real time      0.1907
    SETDIJ:  cpu time      0.3250: real time      0.3250
    TRIAL :  cpu time     25.7740: real time     25.7847
    CORREC:  cpu time     26.5519: real time     26.5628
    EDDIAG:  cpu time     25.3956: real time     25.4082
    CHARGE:  cpu time      0.6330: real time      0.6334
    --------------------------------------------
      LOOP:  cpu time     78.8784: real time     78.9212

 eigenvalue-minimisations  :     0
 total energy-change (2. order) :-0.3446860E-06  (-0.8575685E-07)
 number of electron      22.0000001 magnetization 
 augmentation part       10.7564521 magnetization 

 DIPCOR: dipole corrections for dipol
 direction  3 min pos     1,
 dipolmoment           0.000000      0.000000     -0.000001 electrons x Angstroem
 Tr[quadrupol]     -4016.137476

 energy correction for charged system         0.000000 eV
 dipol+quadrupol energy correction           -0.000000 eV
 added-field ion interaction          0.000001 eV  (added to PSCEN)


 Free energy of the ion-electron system (eV)
  ---------------------------------------------------
  alpha Z        PSCENC =         0.34430868
  Ewald energy   TEWEN  =       220.16056373
  -Hartree energ DENC   =     -2217.81045975
  -exchange      EXHF   =        45.33702637
  -V(xc)+E(xc)   XCENC  =       -20.75846543
  PAW double counting   =      2269.02347443    -2188.99343980
  entropy T*S    EENTRO =        -0.00000000
  eigenvalues    EBANDS =      -182.40704126
  atomic energy  EATOM  =      2072.58200591
  ---------------------------------------------------
  free energy    TOTEN  =        -2.52202550 eV

  energy without entropy =       -2.52202550  energy(sigma->0) =       -2.52202550
  exchange ACFDT corr.  =        -0.00000000  see jH, gK, PRB 81, 115126


--------------------------------------------------------------------------------------------------------


  average scaling for gradient   1.0141


 average (electrostatic) potential at core
  the test charge radii are     1.1249
  (the norm of the test charge is              1.0000)
       1 -75.6222       2 -75.6222



 E-fermi :  -4.9585     XC(G=0):  -0.1438     alpha+bet : -0.0465

 Fermi energy:        -4.9584940807

 k-point     1 :       0.0000    0.0000    0.0000
  band No.  band energies     occupation 
      1      -9.5864      2.00000
      2      -9.1158      2.00000
      3      -9.1158      2.00000
      4      -8.6069      2.00000
      5      -8.6069      2.00000
      6      -8.4132      2.00000
      7      -8.4132      2.00000
      8      -8.1045      2.00000
      9      -8.1045      2.00000
     10      -7.9023      2.00000
     11      -5.2340      2.00000
     12      -2.6202      0.00000
     13      -0.8226      0.00000
     14      -0.8223      0.00000
     15      -0.3748      0.00000
     16       0.0684      0.00000
     17       0.2941      0.00000
     18       0.3204      0.00000
     19       0.3337      0.00000
     20       0.3532      0.00000
     21       0.3888      0.00000
     22       0.3920      0.00000
     23       0.4412      0.00000
     24       0.5620      0.00000
     25       0.6205      0.00000
     26       0.6275      0.00000
     27       0.6394      0.00000
     28       0.6607      0.00000
     29       0.6738      0.00000
     30       0.6809      0.00000
     31       0.6863      0.00000
     32       0.7201      0.00000
     33       0.7381      0.00000
     34       0.7796      0.00000
     35       0.8174      0.00000
     36       0.8387      0.00000
     37       0.9341      0.00000
     38       0.9720      0.00000
     39       0.9794      0.00000
     40       0.9954      0.00000
     41       1.0263      0.00000
     42       1.0311      0.00000
     43       1.0409      0.00000
     44       1.1652      0.00000
     45       1.2225      0.00000
     46       1.2679      0.00000
     47       1.3407      0.00000
     48       1.3459      0.00000
     49       1.3626      0.00000
     50       1.4426      0.00000
     51       1.4492      0.00000
     52       1.4742      0.00000
     53       1.4887      0.00000
     54       1.5421      0.00000
     55       1.5647      0.00000
     56       1.5887      0.00000
     57       1.5961      0.00000
     58       1.5981      0.00000
     59       1.6065      0.00000
     60       1.6097      0.00000
     61       1.6326      0.00000
     62       1.6358      0.00000
     63       1.6692      0.00000
     64       1.6814      0.00000
     65       1.6907      0.00000
     66       1.6978      0.00000
     67       1.6982      0.00000
     68       1.7044      0.00000
     69       1.7230      0.00000
     70       1.7259      0.00000
     71       1.7387      0.00000
     72       1.7654      0.00000
     73       1.7742      0.00000
     74       1.8021      0.00000
     75       1.8153      0.00000
     76       1.8765      0.00000
     77       1.8785      0.00000
     78       1.8882      0.00000
     79       1.9128      0.00000
     80       1.9276      0.00000
     81       1.9464      0.00000
     82       1.9472      0.00000
     83       1.9478      0.00000
     84       1.9668      0.00000
     85       1.9683      0.00000
     86       1.9685      0.00000
     87       1.9717      0.00000
     88       1.9849      0.00000
     89       1.9893      0.00000
     90       2.0031      0.00000
     91       2.0091      0.00000
     92       2.0339      0.00000
     93       2.0890      0.00000
     94       2.1088      0.00000
     95       2.1855      0.00000
     96       2.2144      0.00000
     97       2.2195      0.00000
     98       2.2387      0.00000
     99       2.4554      0.00000
    100       2.4700      0.00000
    101       2.4720      0.00000
    102       2.5191      0.00000
    103       2.5365      0.00000
    104       2.5693      0.00000
    105       2.6079      0.00000
    106       2.6088      0.00000
    107       2.6561      0.00000
    108       2.6883      0.00000
    109       2.6953      0.00000
    110       2.7021      0.00000
    111       2.7097      0.00000
    112       2.7433      0.00000
    113       2.7577      0.00000
    114       2.7733      0.00000
    115       2.7737      0.00000
    116       2.7932      0.00000
    117       2.8393      0.00000
    118       2.8600      0.00000
    119       2.8677      0.00000
    120       2.8845      0.00000
    121       2.8999      0.00000
    122       2.9056      0.00000
    123       2.9168      0.00000
    124       2.9200      0.00000
    125       2.9231      0.00000
    126       2.9268      0.00000
    127       2.9341      0.00000
    128       2.9455      0.00000
    129       2.9508      0.00000
    130       2.9538      0.00000
    131       2.9716      0.00000
    132       2.9832      0.00000
    133       2.9924      0.00000
    134       2.9961      0.00000
    135       2.9973      0.00000
    136       3.0200      0.00000
    137       3.0246      0.00000
    138       3.0751      0.00000
    139       3.0816      0.00000
    140       3.0854      0.00000
    141       3.1105      0.00000
    142       3.1149      0.00000
    143       3.1267      0.00000
    144       3.1270      0.00000
    145       3.1446      0.00000
    146       3.2038      0.00000
    147       3.2171      0.00000
    148       3.2447      0.00000
    149       3.2454      0.00000
    150       3.2585      0.00000
    151       3.2742      0.00000
    152       3.2813      0.00000
    153       3.2855      0.00000
    154       3.3230      0.00000
    155       3.3422      0.00000
    156       3.3441      0.00000
    157       3.3444      0.00000
    158       3.3576      0.00000
    159       3.3635      0.00000
    160       3.3641      0.00000
    161       3.3681      0.00000
    162       3.3687      0.00000
    163       3.3819      0.00000
    164       3.3920      0.00000
    165       3.4091      0.00000
    166       3.4374      0.00000
    167       3.4867      0.00000
    168       3.4983      0.00000
    169       3.5044      0.00000
    170       3.5329      0.00000
    171       3.5482      0.00000
    172       3.5592      0.00000
    173       3.5854      0.00000
    174       3.6038      0.00000
    175       3.6068      0.00000
    176       3.6109      0.00000
    177       3.6109      0.00000
    178       3.6183      0.00000
    179       3.6431      0.00000
    180       3.6552      0.00000
    181       3.6633      0.00000
    182       3.7295      0.00000
    183       3.7310      0.00000
    184       3.7343      0.00000
    185       3.7499      0.00000
    186       3.7515      0.00000
    187       3.7829      0.00000
    188       3.8240      0.00000
    189       3.8259      0.00000
    190       3.8853      0.00000
    191       3.9221      0.00000
    192       3.9284      0.00000


--------------------------------------------------------------------------------------------------------


 soft charge-density along one line, spin component           1
         0         1         2         3         4         5         6         7         8         9
 total charge-density along one line

 pseudopotential strength for first ion, spin component:           1
 -8.769  -0.000  -0.020   0.000  -0.000  -8.830  -0.000  -0.019
 -0.000  -8.749   0.000   0.013  -0.000  -0.000  -8.810   0.000
 -0.020   0.000  -8.747  -0.000   0.000  -0.019   0.000  -8.808
  0.000   0.013  -0.000  -8.749  -0.000   0.000   0.013  -0.000
 -0.000  -0.000   0.000  -0.000  -8.762  -0.000  -0.000   0.000
 -8.830  -0.000  -0.019   0.000  -0.000  -8.863  -0.000  -0.018
 -0.000  -8.810   0.000   0.013  -0.000  -0.000  -8.844   0.000
 -0.019   0.000  -8.808  -0.000   0.000  -0.018   0.000  -8.842
  0.000   0.013  -0.000  -8.810  -0.000   0.000   0.012  -0.000
 -0.000  -0.000   0.000  -0.000  -8.823  -0.000  -0.000   0.000
 -0.013  -0.000  -0.008   0.000   0.000  -0.013  -0.000  -0.007
 -0.021  -0.000  -0.012   0.000   0.000  -0.021  -0.000  -0.012
  0.032  -0.000   0.019  -0.000   0.033   0.031  -0.000   0.018
 -0.000  -0.033   0.000   0.033  -0.000  -0.000  -0.032   0.000
 -0.032  -0.000  -0.019  -0.000   0.033  -0.031  -0.000  -0.018
  0.039  -0.000   0.023  -0.000   0.040   0.038  -0.000   0.022
 -0.000  -0.040   0.000   0.040  -0.000  -0.000  -0.038   0.000
 -0.039  -0.000  -0.023  -0.000   0.040  -0.038  -0.000  -0.022
 total augmentation occupancy for first ion, spin component:           1
  2.506   0.000   0.209   0.000  -0.000  -0.579  -0.000  -0.293  -0.000   0.000   1.176  -0.326   0.092   0.000  -0.092   0.009
  0.000   2.187   0.000  -0.043   0.000   0.000  -0.153  -0.000   0.080   0.000  -0.000  -0.000   0.000  -0.002   0.000   0.000
  0.209   0.000   2.265  -0.000  -0.000  -0.293   0.000  -0.241  -0.000   0.000   0.679  -0.188   0.053   0.000  -0.053   0.005
  0.000  -0.043  -0.000   2.187   0.000   0.000   0.080   0.000  -0.153   0.000   0.000   0.000   0.000   0.002   0.000   0.000
 -0.000   0.000  -0.000   0.000   2.230   0.000   0.000   0.000   0.000  -0.233  -0.000   0.000   0.002   0.000   0.002   0.020
 -0.579   0.000  -0.293   0.000   0.000   0.649  -0.000   0.368   0.000  -0.000  -1.049   0.298  -0.127  -0.000   0.127   0.013
 -0.000  -0.153   0.000   0.080   0.000  -0.000   0.125   0.000  -0.114   0.000   0.000   0.000   0.000   0.024  -0.000   0.000
 -0.293  -0.000  -0.241   0.000   0.000   0.368   0.000   0.223   0.000  -0.000  -0.605   0.172  -0.074  -0.000   0.074   0.007
  0.000   0.080  -0.000  -0.153   0.000   0.000  -0.114   0.000   0.125   0.000   0.000   0.000   0.000  -0.024   0.000   0.000
  0.000   0.000   0.000   0.000  -0.233  -0.000   0.000  -0.000   0.000   0.239   0.000  -0.000  -0.024   0.000  -0.024   0.002
  1.176  -0.000   0.679   0.000  -0.000  -1.049   0.000  -0.605   0.000   0.000   3.371  -0.887   0.264   0.000  -0.264  -0.021
 -0.326  -0.000  -0.188   0.000   0.000   0.298   0.000   0.172   0.000  -0.000  -0.887   0.235  -0.072   0.000   0.072   0.006
  0.092   0.000   0.053   0.000   0.002  -0.127   0.000  -0.074   0.000  -0.024   0.264  -0.072   0.030   0.000  -0.025  -0.003
  0.000  -0.002   0.000   0.002   0.000  -0.000   0.024  -0.000  -0.024   0.000   0.000   0.000   0.000   0.006   0.000   0.000
 -0.092   0.000  -0.053   0.000   0.002   0.127  -0.000   0.074   0.000  -0.024  -0.264   0.072  -0.025   0.000   0.030   0.002
  0.009   0.000   0.005   0.000   0.020   0.013   0.000   0.007   0.000   0.002  -0.021   0.006  -0.003   0.000   0.002   0.001
  0.000  -0.020  -0.000   0.020   0.000  -0.000  -0.002  -0.000   0.002  -0.000   0.000   0.000  -0.000  -0.001   0.000   0.000
 -0.009   0.000  -0.005   0.000   0.020  -0.013   0.000  -0.007   0.000   0.002   0.021  -0.006   0.002   0.000  -0.003  -0.000


------------------------ aborting loop because EDIFF is reached ----------------------------------------


    FORLOC:  cpu time      0.0009: real time      0.0009
    FORHF :  cpu time      1.5816: real time      1.5829
    FORNL :  cpu time      0.1179: real time      0.1179
    FORCOR:  cpu time      0.4582: real time      0.4582
    OFIELD:  cpu time      0.0001: real time      0.0001
    FORVDW:  cpu time      0.0052: real time      0.3071

 VOLUME and BASIS-vectors are now :
 -----------------------------------------------------------------------------
  energy-cutoff  :      520.00
  volume of cell :     9881.61
      direct lattice vectors                 reciprocal lattice vectors
    21.138852197  0.000000000  0.000000000     0.047306258  0.000000000  0.000000000
     0.000000000 21.138852197  0.000000000     0.000000000  0.047306258  0.000000000
     0.000000000  0.000000000 22.113885220     0.000000000  0.000000000  0.045220457

  length of vectors
    21.138852197 21.138852197 22.113885220     0.047306258  0.047306258  0.045220457


 FORCES acting on ions:
    Electron-Ion                     Ewald-Force                    Non-Local-Force
 -----------------------------------------------------------------------------------------------
   -.191E+03 0.191E+03 0.546E-04   0.185E+03 -.185E+03 -.900E-17   0.568E+01 -.568E+01 -.309E-19
   0.191E+03 -.191E+03 0.546E-04   -.185E+03 0.185E+03 -.407E-16   -.568E+01 0.568E+01 -.474E-19
 -----------------------------------------------------------------------------------------------
   0.432E-04 -.206E-03 0.106E-03   0.000E+00 0.000E+00 -.497E-16   0.888E-15 0.888E-15 -.783E-19


 POSITION                                       TOTAL-FORCE (eV/Angst)
 -----------------------------------------------------------------------------------
     10.42106      8.60391     14.09831        -0.006407      0.006407     -0.000000
      8.60390     10.42106     14.09831         0.006407     -0.006407      0.000000
 -----------------------------------------------------------------------------------
    total drift:                                0.000043     -0.000206      0.000106


--------------------------------------------------------------------------------------------------------



  FREE ENERGIE OF THE ION-ELECTRON SYSTEM (eV)
  ---------------------------------------------------
  free  energy   TOTEN  =        -2.55602779 eV

  energy  without entropy=       -2.55602779  energy(sigma->0) =       -2.55602779



--------------------------------------------------------------------------------------------------------


    POTLOK:  cpu time      0.5098: real time      0.5099


--------------------------------------------------------------------------------------------------------


     LOOP+:  cpu time    692.4870: real time    693.3184
    4ORBIT:  cpu time      0.0000: real time      0.0000

 total amount of memory used by VASP MPI-rank0  1210407. kBytes
=======================================================================

   base      :      30000. kBytes
   nonlr-proj:       1201. kBytes
   fftplans  :      61817. kBytes
   grid      :      48291. kBytes
   one-center:         15. kBytes
   HF        :         64. kBytes
   wavefun   :       3207. kBytes
   fock_wrk  :    1065812. kBytes

  
  
 General timing and accounting informations for this job:
 ========================================================
  
                  Total CPU time used (sec):      746.458
                            User time (sec):      724.535
                          System time (sec):       21.924
                         Elapsed time (sec):      766.795
  
                   Maximum memory used (kb):     2668692.
                   Average memory used (kb):          N/A
  
                          Minor page faults:      2543873
                          Major page faults:           50
                 Voluntary context switches:        30668
