 **********************************************************************
                          MRCC program system
 **********************************************************************
 
                              Written by
     Mihaly Kallay, Peter R. Nagy, David Mester, Laszlo Gyevi-Nagy,
        Jozsef Csoka, P. Bernat Szabo, Zoltan Rolik, Gyula Samu,
     Jozsef Csontos, Bence Hegely, Adam Ganyecz, Istvan Ladjanszki,
       Lorant Szegedy, Bence Ladoczki, Klara Petrov, Mate Farkas,
                    Pal D. Mezei, and Reka A. Horvath
 
        Department of Physical Chemistry and Materials Science
            Budapest University of Technology and Economics
                  Budapest P.O.Box 91, H-1521 Hungary
 
                              www.mrcc.hu
 
                      Release date: March 18, 2022

 ************************ 2023-02-04 10:26:51 *************************
 Executing minp...

 Reading input from MINP...
 
 Input file:
 
calc=FNO-CCSD(T)
verbosity=3
mem=220GB
unit=angs
scfiguess=small
scfalg=locfit1
ccmaxit=400
ccsdalg=dfdirect
ccsdthreads=4
ccsdmkl=thr
ptthreads=4
lnoepsv=1e-5
naf_cor=1e-2
ECP=MCDHF-ECP-60
basis=bse_ACVTZ
basis_sm=def2-SVP
dfbasis_scf=def2-QZVPP-RI-JK
dfbasis_cor=bse_ACVTZ_mp2fit
core=0
unit=angs
geom=xyz
    4
Au4_4
Au     1.34227618     0.43836662     1.24985019
Au     0.01522087    -0.14250087    -1.36303947
Au    -0.48346539    -1.30769546     1.36303947
Au    -1.34227618     1.30769546     0.19991232

ghost=serialno


 
 
 Checking keyword combinations...
 
 Keywords:
 
 active=none
 agrid=ld0006-ld0590
 agrid_pssp=ld0006-ld0194
 agrid_pssp_sm=ld0006-ld0074
 basis=bse_acvtz
 basis_sm=def2-svp
 basopt=off
 bfbasis=none
 bfgsmem=10
 bfgstol=1.0d-3
 bpcompo=0.985
 bpcompv=0.98
 bpdfo=0.985
 bpocc=0.985
 bppdo=0.985
 bppdv=0.98
 bpedo=0.985
 bpedv=0.98
 calc=ccsd(t)
 ccmaxit=400
 ccprog=ccsd
 ccsdalg=dfdirect
 ccsdmkl=thr
 ccsdrest=trf
 ccsdthreads=4
 cctol=6
 charge=0
 cialg=auto
 ciguess=off
 cmpgrp=auto
 comprest=off
 core=corr
 corembed=off
 csapprox=off
 cvs=off
 dboc=off
 delocsomofact=
 dendec=cholesky
 dens=0
 dfalg=lineq
 dfbasis_cab=none
 dfbasis_cor=bse_acvtz_mp2fit
 dfbasis_scf=def2-qzvpp-ri-jk
 dfbasis_scf_sm=def2-qzvpp-ri-jk
 dfintran=drpa
 dft=off
 dhexc=adc(2)
 diag=david
 docc=
 domrad=10.d0
 drpaalg=fit
 dual=off
 dual_df=off
 ecp=mcdhf-ecp-60
 edisp=off
 edisp_embed=off
 embed=off
 etemp=300
 epert=none
 eps=
 espcharge=off
 excrad=1.0
 excrad_fin=0.100000000D-02
 fitting=coulomb
 fmm=off
 fmmord=8
 freq=off
 gamma=1.d0
 gauss=spher
 geom=xyz
 gopt=off
 ghost=serialno
 gtol=7
 grdens=off
 gridbatch_cos=2000
 grtol=10
 guido_ct=off
 hamilton=dc
 iface=none
 intalg=auto
 itol=10
 laptol=1.d-2
 lccoporder=trffirst
 lcorthr=normal
 lccrest=off
 lmp2dens=on
 lnoepso=0.d0
 lnoepsv=1e-5
 boysalg=jacobi
 localcc=off
 localcorrsymm=off
 locintrf=disk
 mact=
 maxact=off
 maxdim=100
 maxex=0
 maxmicroit=100
 mcscfiguess=hf
 mem=220gb
 mmprog=
 molden=on
 mpitasks=1
 mulmet=0
 mult=
 nacto=0
 nactv=0
 naf_amp=1.d-2
 naf_cor=1e-2
 naf_scf=off
 nafalg=albe
 naftyp=
 nchol=auto
 ndeps=1e-3
 nstate=1
 nsing=0
 nto=off
 ntrip=0
 occ=
 occri=off
 oniom=off
 oniom_eechg=off
 oniom_pcm=off
 oniom_qcorr=off
 optalg=
 optmaxit=50
 optetol=1e-6
 optex=0
 optgtol=1e-4
 optstol=1e-3
 orblocc=off
 orbloce=off
 orbloco=off
 orblocv=off
 orblocguess=cholesky
 osveps=1e-3
 ovirt=ppl
 ovltol=1e-7
 ovosnorb=80.0
 pcm=off
 popul=off
 pressure=100000
 pssp=off
 ptfreq=0.0
 ptthreads=4
 qro=off
 qscf=off
 qmmm=off
 redcost_exc=off
 redcost_tddft=off
 refdet=none
 rest=0
 rgrid=log3
 rism=off
 rohfcore=semicanonical
 rohftype=semicanonical
 scfalg=locfit1
 scf_conv=difficult
 scfdamp=0.0d0
 scfdamp_mode=off
 scfdamp_end=50
 scfdamp_dampstep=0.d0
 scfdamp_dtol=0.0d0
 scfdamp_maxfact=0.0d0
 scfdamp_minfact=0.0d0
 scfdiis=on
 scfdiis_dtol=0.0d0
 scfdiis_end=50
 scfdiis_start=2
 scfdiis_step=1
 scfdiis_watch=off
 scfdiis_wrange=10
 scfdiis_wlimit=5
 scfdiis_delmax=2
 scfdtol=7
 scfext=10
 scfguessdens=
 scfiguess=small
 scfloc=pm
 scflshift=0.20
 scflshift_end=8
 scflshift_dtol=0.0
 scflshift_gaptol=0.20
 scfmaxit=50
 scftype=
 scftol=6
 scspe=1.d0
 scsph=1.d0
 scsps=1.2d0
 scsps_t=1.2d0
 scspt=0.33333333333333
 scspt_t=0.33333333333333
 scspv=1.d0
 spairtol=1e-4
 sqmprog=
 subminp=top
 symm=
 talg=occ
 temp=298.15
 test=off
 theodore=off
 tlmo=0.999
 tpao=0.94
 tprint=off
 uncontract=off
 unit=angs
 usedisk=2
 verbosity=3
 wpairtol=0.100000000E-05
 
 Calculating integrals for small-basis SCF...

 ************************ 2023-02-04 10:26:52 *************************
 Executing integ...

 Allocation of 220.0 Gbytes of memory...
 
 
 Number of atoms:                  4
 Charge:                           0
 Number of electrons:             76
 Number of core electrons:         0
 Spin multiplicity:                1
 
                 Cartesian coordinates [bohr]      Atomic mass [AMU]  Z
   1  Au    2.53653436    0.82839285    2.36187456   196.966543      79
   2  Au    0.02876328   -0.26928762   -2.57577130   196.966543      79
   3  Au   -0.91361718   -2.47118627    2.57577130   196.966543      79
   4  Au   -2.53653436    2.47118627    0.37777953   196.966543      79
 
 This molecule is an asymmetric top.
 
 Point group: C1  
 Computational point group: C1  
 
 Cartesian coordinates in standard orientation [bohr]
   1  Au    2.27932454   -1.72212867   -1.65242752
   2  Au   -2.26719807   -1.68826983    1.69453388
   3  Au    2.26933533    1.73120043    1.65074343
   4  Au   -2.28146180    1.67919807   -1.69284979
 
 Nuclear repulsion energy [au]:        405.981725271968
 
 
 Basis set information:
 
 Maximum angular momentum: i
 Maximum number of contracted Gaussians:   13
 Maximum number of primitive Gaussians:    13
 Spherical harmonic GTOs are used.
 
 
 Conventional basis set:
 
   1  Au def2-svp [ 7s 6p 5d 1f | 6s 3p 2d 1f ]
   2  Au def2-svp [ 7s 6p 5d 1f | 6s 3p 2d 1f ]
   3  Au def2-svp [ 7s 6p 5d 1f | 6s 3p 2d 1f ]
   4  Au def2-svp [ 7s 6p 5d 1f | 6s 3p 2d 1f ]
 
 Basis functions:
            1             2             3             4             5             6             7             8             9            10
    0    1Au1s         1Au2s         1Au3s         1Au4s         1Au5s         1Au6s         1Au1pz        1Au1py        1Au1px        1Au2pz    
    1    1Au2py        1Au2px        1Au3pz        1Au3py        1Au3px        1Au1d-2       1Au1d-1       1Au1d0        1Au1d+1       1Au1d+2   
    2    1Au2d-2       1Au2d-1       1Au2d0        1Au2d+1       1Au2d+2       1Au1f-3       1Au1f-2       1Au1f-1       1Au1f0        1Au1f+1   
    3    1Au1f+2       1Au1f+3       2Au1s         2Au2s         2Au3s         2Au4s         2Au5s         2Au6s         2Au1pz        2Au1py    
    4    2Au1px        2Au2pz        2Au2py        2Au2px        2Au3pz        2Au3py        2Au3px        2Au1d-2       2Au1d-1       2Au1d0    
    5    2Au1d+1       2Au1d+2       2Au2d-2       2Au2d-1       2Au2d0        2Au2d+1       2Au2d+2       2Au1f-3       2Au1f-2       2Au1f-1   
    6    2Au1f0        2Au1f+1       2Au1f+2       2Au1f+3       3Au1s         3Au2s         3Au3s         3Au4s         3Au5s         3Au6s     
    7    3Au1pz        3Au1py        3Au1px        3Au2pz        3Au2py        3Au2px        3Au3pz        3Au3py        3Au3px        3Au1d-2   
    8    3Au1d-1       3Au1d0        3Au1d+1       3Au1d+2       3Au2d-2       3Au2d-1       3Au2d0        3Au2d+1       3Au2d+2       3Au1f-3   
    9    3Au1f-2       3Au1f-1       3Au1f0        3Au1f+1       3Au1f+2       3Au1f+3       4Au1s         4Au2s         4Au3s         4Au4s     
   10    4Au5s         4Au6s         4Au1pz        4Au1py        4Au1px        4Au2pz        4Au2py        4Au2px        4Au3pz        4Au3py    
   11    4Au3px        4Au1d-2       4Au1d-1       4Au1d0        4Au1d+1       4Au1d+2       4Au2d-2       4Au2d-1       4Au2d0        4Au2d+1   
   12    4Au2d+2       4Au1f-3       4Au1f-2       4Au1f-1       4Au1f0        4Au1f+1       4Au1f+2       4Au1f+3   
 
 Maximum number of basis functions per shell:   10
 Total number of basis functions:    128
 
 
 Fitting basis set for the SCF calculation:
 
   1  Au def2-qzvpp-ri-jk [ 13s 12p 11d 9f 5g 3h 2i | 13s 11p 10d 8f 4g 3h 2i ]
   2  Au def2-qzvpp-ri-jk [ 13s 12p 11d 9f 5g 3h 2i | 13s 11p 10d 8f 4g 3h 2i ]
   3  Au def2-qzvpp-ri-jk [ 13s 12p 11d 9f 5g 3h 2i | 13s 11p 10d 8f 4g 3h 2i ]
   4  Au def2-qzvpp-ri-jk [ 13s 12p 11d 9f 5g 3h 2i | 13s 11p 10d 8f 4g 3h 2i ]
 
 Basis functions:
            1             2             3             4             5             6             7             8             9            10
    0    1Au1s         1Au2s         1Au3s         1Au4s         1Au5s         1Au6s         1Au7s         1Au8s         1Au9s         1Au10s    
    1    1Au11s        1Au12s        1Au13s        1Au1pz        1Au1py        1Au1px        1Au2pz        1Au2py        1Au2px        1Au3pz    
    2    1Au3py        1Au3px        1Au4pz        1Au4py        1Au4px        1Au5pz        1Au5py        1Au5px        1Au6pz        1Au6py    
    3    1Au6px        1Au7pz        1Au7py        1Au7px        1Au8pz        1Au8py        1Au8px        1Au9pz        1Au9py        1Au9px    
    4    1Au10pz       1Au10py       1Au10px       1Au11pz       1Au11py       1Au11px       1Au1d-2       1Au1d-1       1Au1d0        1Au1d+1   
    5    1Au1d+2       1Au2d-2       1Au2d-1       1Au2d0        1Au2d+1       1Au2d+2       1Au3d-2       1Au3d-1       1Au3d0        1Au3d+1   
    6    1Au3d+2       1Au4d-2       1Au4d-1       1Au4d0        1Au4d+1       1Au4d+2       1Au5d-2       1Au5d-1       1Au5d0        1Au5d+1   
    7    1Au5d+2       1Au6d-2       1Au6d-1       1Au6d0        1Au6d+1       1Au6d+2       1Au7d-2       1Au7d-1       1Au7d0        1Au7d+1   
    8    1Au7d+2       1Au8d-2       1Au8d-1       1Au8d0        1Au8d+1       1Au8d+2       1Au9d-2       1Au9d-1       1Au9d0        1Au9d+1   
    9    1Au9d+2       1Au10d-2      1Au10d-1      1Au10d0       1Au10d+1      1Au10d+2      1Au1f-3       1Au1f-2       1Au1f-1       1Au1f0    
   10    1Au1f+1       1Au1f+2       1Au1f+3       1Au2f-3       1Au2f-2       1Au2f-1       1Au2f0        1Au2f+1       1Au2f+2       1Au2f+3   
   11    1Au3f-3       1Au3f-2       1Au3f-1       1Au3f0        1Au3f+1       1Au3f+2       1Au3f+3       1Au4f-3       1Au4f-2       1Au4f-1   
   12    1Au4f0        1Au4f+1       1Au4f+2       1Au4f+3       1Au5f-3       1Au5f-2       1Au5f-1       1Au5f0        1Au5f+1       1Au5f+2   
   13    1Au5f+3       1Au6f-3       1Au6f-2       1Au6f-1       1Au6f0        1Au6f+1       1Au6f+2       1Au6f+3       1Au7f-3       1Au7f-2   
   14    1Au7f-1       1Au7f0        1Au7f+1       1Au7f+2       1Au7f+3       1Au8f-3       1Au8f-2       1Au8f-1       1Au8f0        1Au8f+1   
   15    1Au8f+2       1Au8f+3       1Au1g-4       1Au1g-3       1Au1g-2       1Au1g-1       1Au1g0        1Au1g+1       1Au1g+2       1Au1g+3   
   16    1Au1g+4       1Au2g-4       1Au2g-3       1Au2g-2       1Au2g-1       1Au2g0        1Au2g+1       1Au2g+2       1Au2g+3       1Au2g+4   
   17    1Au3g-4       1Au3g-3       1Au3g-2       1Au3g-1       1Au3g0        1Au3g+1       1Au3g+2       1Au3g+3       1Au3g+4       1Au4g-4   
   18    1Au4g-3       1Au4g-2       1Au4g-1       1Au4g0        1Au4g+1       1Au4g+2       1Au4g+3       1Au4g+4       1Au1h-5       1Au1h-4   
   19    1Au1h-3       1Au1h-2       1Au1h-1       1Au1h0        1Au1h+1       1Au1h+2       1Au1h+3       1Au1h+4       1Au1h+5       1Au2h-5   
   20    1Au2h-4       1Au2h-3       1Au2h-2       1Au2h-1       1Au2h0        1Au2h+1       1Au2h+2       1Au2h+3       1Au2h+4       1Au2h+5   
   21    1Au3h-5       1Au3h-4       1Au3h-3       1Au3h-2       1Au3h-1       1Au3h0        1Au3h+1       1Au3h+2       1Au3h+3       1Au3h+4   
   22    1Au3h+5       1Au1i-6       1Au1i-5       1Au1i-4       1Au1i-3       1Au1i-2       1Au1i-1       1Au1i0        1Au1i+1       1Au1i+2   
   23    1Au1i+3       1Au1i+4       1Au1i+5       1Au1i+6       1Au2i-6       1Au2i-5       1Au2i-4       1Au2i-3       1Au2i-2       1Au2i-1   
   24    1Au2i0        1Au2i+1       1Au2i+2       1Au2i+3       1Au2i+4       1Au2i+5       1Au2i+6       2Au1s         2Au2s         2Au3s     
   25    2Au4s         2Au5s         2Au6s         2Au7s         2Au8s         2Au9s         2Au10s        2Au11s        2Au12s        2Au13s    
   26    2Au1pz        2Au1py        2Au1px        2Au2pz        2Au2py        2Au2px        2Au3pz        2Au3py        2Au3px        2Au4pz    
   27    2Au4py        2Au4px        2Au5pz        2Au5py        2Au5px        2Au6pz        2Au6py        2Au6px        2Au7pz        2Au7py    
   28    2Au7px        2Au8pz        2Au8py        2Au8px        2Au9pz        2Au9py        2Au9px        2Au10pz       2Au10py       2Au10px   
   29    2Au11pz       2Au11py       2Au11px       2Au1d-2       2Au1d-1       2Au1d0        2Au1d+1       2Au1d+2       2Au2d-2       2Au2d-1   
   30    2Au2d0        2Au2d+1       2Au2d+2       2Au3d-2       2Au3d-1       2Au3d0        2Au3d+1       2Au3d+2       2Au4d-2       2Au4d-1   
   31    2Au4d0        2Au4d+1       2Au4d+2       2Au5d-2       2Au5d-1       2Au5d0        2Au5d+1       2Au5d+2       2Au6d-2       2Au6d-1   
   32    2Au6d0        2Au6d+1       2Au6d+2       2Au7d-2       2Au7d-1       2Au7d0        2Au7d+1       2Au7d+2       2Au8d-2       2Au8d-1   
   33    2Au8d0        2Au8d+1       2Au8d+2       2Au9d-2       2Au9d-1       2Au9d0        2Au9d+1       2Au9d+2       2Au10d-2      2Au10d-1  
   34    2Au10d0       2Au10d+1      2Au10d+2      2Au1f-3       2Au1f-2       2Au1f-1       2Au1f0        2Au1f+1       2Au1f+2       2Au1f+3   
   35    2Au2f-3       2Au2f-2       2Au2f-1       2Au2f0        2Au2f+1       2Au2f+2       2Au2f+3       2Au3f-3       2Au3f-2       2Au3f-1   
   36    2Au3f0        2Au3f+1       2Au3f+2       2Au3f+3       2Au4f-3       2Au4f-2       2Au4f-1       2Au4f0        2Au4f+1       2Au4f+2   
   37    2Au4f+3       2Au5f-3       2Au5f-2       2Au5f-1       2Au5f0        2Au5f+1       2Au5f+2       2Au5f+3       2Au6f-3       2Au6f-2   
   38    2Au6f-1       2Au6f0        2Au6f+1       2Au6f+2       2Au6f+3       2Au7f-3       2Au7f-2       2Au7f-1       2Au7f0        2Au7f+1   
   39    2Au7f+2       2Au7f+3       2Au8f-3       2Au8f-2       2Au8f-1       2Au8f0        2Au8f+1       2Au8f+2       2Au8f+3       2Au1g-4   
   40    2Au1g-3       2Au1g-2       2Au1g-1       2Au1g0        2Au1g+1       2Au1g+2       2Au1g+3       2Au1g+4       2Au2g-4       2Au2g-3   
   41    2Au2g-2       2Au2g-1       2Au2g0        2Au2g+1       2Au2g+2       2Au2g+3       2Au2g+4       2Au3g-4       2Au3g-3       2Au3g-2   
   42    2Au3g-1       2Au3g0        2Au3g+1       2Au3g+2       2Au3g+3       2Au3g+4       2Au4g-4       2Au4g-3       2Au4g-2       2Au4g-1   
   43    2Au4g0        2Au4g+1       2Au4g+2       2Au4g+3       2Au4g+4       2Au1h-5       2Au1h-4       2Au1h-3       2Au1h-2       2Au1h-1   
   44    2Au1h0        2Au1h+1       2Au1h+2       2Au1h+3       2Au1h+4       2Au1h+5       2Au2h-5       2Au2h-4       2Au2h-3       2Au2h-2   
   45    2Au2h-1       2Au2h0        2Au2h+1       2Au2h+2       2Au2h+3       2Au2h+4       2Au2h+5       2Au3h-5       2Au3h-4       2Au3h-3   
   46    2Au3h-2       2Au3h-1       2Au3h0        2Au3h+1       2Au3h+2       2Au3h+3       2Au3h+4       2Au3h+5       2Au1i-6       2Au1i-5   
   47    2Au1i-4       2Au1i-3       2Au1i-2       2Au1i-1       2Au1i0        2Au1i+1       2Au1i+2       2Au1i+3       2Au1i+4       2Au1i+5   
   48    2Au1i+6       2Au2i-6       2Au2i-5       2Au2i-4       2Au2i-3       2Au2i-2       2Au2i-1       2Au2i0        2Au2i+1       2Au2i+2   
   49    2Au2i+3       2Au2i+4       2Au2i+5       2Au2i+6       3Au1s         3Au2s         3Au3s         3Au4s         3Au5s         3Au6s     
   50    3Au7s         3Au8s         3Au9s         3Au10s        3Au11s        3Au12s        3Au13s        3Au1pz        3Au1py        3Au1px    
   51    3Au2pz        3Au2py        3Au2px        3Au3pz        3Au3py        3Au3px        3Au4pz        3Au4py        3Au4px        3Au5pz    
   52    3Au5py        3Au5px        3Au6pz        3Au6py        3Au6px        3Au7pz        3Au7py        3Au7px        3Au8pz        3Au8py    
   53    3Au8px        3Au9pz        3Au9py        3Au9px        3Au10pz       3Au10py       3Au10px       3Au11pz       3Au11py       3Au11px   
   54    3Au1d-2       3Au1d-1       3Au1d0        3Au1d+1       3Au1d+2       3Au2d-2       3Au2d-1       3Au2d0        3Au2d+1       3Au2d+2   
   55    3Au3d-2       3Au3d-1       3Au3d0        3Au3d+1       3Au3d+2       3Au4d-2       3Au4d-1       3Au4d0        3Au4d+1       3Au4d+2   
   56    3Au5d-2       3Au5d-1       3Au5d0        3Au5d+1       3Au5d+2       3Au6d-2       3Au6d-1       3Au6d0        3Au6d+1       3Au6d+2   
   57    3Au7d-2       3Au7d-1       3Au7d0        3Au7d+1       3Au7d+2       3Au8d-2       3Au8d-1       3Au8d0        3Au8d+1       3Au8d+2   
   58    3Au9d-2       3Au9d-1       3Au9d0        3Au9d+1       3Au9d+2       3Au10d-2      3Au10d-1      3Au10d0       3Au10d+1      3Au10d+2  
   59    3Au1f-3       3Au1f-2       3Au1f-1       3Au1f0        3Au1f+1       3Au1f+2       3Au1f+3       3Au2f-3       3Au2f-2       3Au2f-1   
   60    3Au2f0        3Au2f+1       3Au2f+2       3Au2f+3       3Au3f-3       3Au3f-2       3Au3f-1       3Au3f0        3Au3f+1       3Au3f+2   
   61    3Au3f+3       3Au4f-3       3Au4f-2       3Au4f-1       3Au4f0        3Au4f+1       3Au4f+2       3Au4f+3       3Au5f-3       3Au5f-2   
   62    3Au5f-1       3Au5f0        3Au5f+1       3Au5f+2       3Au5f+3       3Au6f-3       3Au6f-2       3Au6f-1       3Au6f0        3Au6f+1   
   63    3Au6f+2       3Au6f+3       3Au7f-3       3Au7f-2       3Au7f-1       3Au7f0        3Au7f+1       3Au7f+2       3Au7f+3       3Au8f-3   
   64    3Au8f-2       3Au8f-1       3Au8f0        3Au8f+1       3Au8f+2       3Au8f+3       3Au1g-4       3Au1g-3       3Au1g-2       3Au1g-1   
   65    3Au1g0        3Au1g+1       3Au1g+2       3Au1g+3       3Au1g+4       3Au2g-4       3Au2g-3       3Au2g-2       3Au2g-1       3Au2g0    
   66    3Au2g+1       3Au2g+2       3Au2g+3       3Au2g+4       3Au3g-4       3Au3g-3       3Au3g-2       3Au3g-1       3Au3g0        3Au3g+1   
   67    3Au3g+2       3Au3g+3       3Au3g+4       3Au4g-4       3Au4g-3       3Au4g-2       3Au4g-1       3Au4g0        3Au4g+1       3Au4g+2   
   68    3Au4g+3       3Au4g+4       3Au1h-5       3Au1h-4       3Au1h-3       3Au1h-2       3Au1h-1       3Au1h0        3Au1h+1       3Au1h+2   
   69    3Au1h+3       3Au1h+4       3Au1h+5       3Au2h-5       3Au2h-4       3Au2h-3       3Au2h-2       3Au2h-1       3Au2h0        3Au2h+1   
   70    3Au2h+2       3Au2h+3       3Au2h+4       3Au2h+5       3Au3h-5       3Au3h-4       3Au3h-3       3Au3h-2       3Au3h-1       3Au3h0    
   71    3Au3h+1       3Au3h+2       3Au3h+3       3Au3h+4       3Au3h+5       3Au1i-6       3Au1i-5       3Au1i-4       3Au1i-3       3Au1i-2   
   72    3Au1i-1       3Au1i0        3Au1i+1       3Au1i+2       3Au1i+3       3Au1i+4       3Au1i+5       3Au1i+6       3Au2i-6       3Au2i-5   
   73    3Au2i-4       3Au2i-3       3Au2i-2       3Au2i-1       3Au2i0        3Au2i+1       3Au2i+2       3Au2i+3       3Au2i+4       3Au2i+5   
   74    3Au2i+6       4Au1s         4Au2s         4Au3s         4Au4s         4Au5s         4Au6s         4Au7s         4Au8s         4Au9s     
   75    4Au10s        4Au11s        4Au12s        4Au13s        4Au1pz        4Au1py        4Au1px        4Au2pz        4Au2py        4Au2px    
   76    4Au3pz        4Au3py        4Au3px        4Au4pz        4Au4py        4Au4px        4Au5pz        4Au5py        4Au5px        4Au6pz    
   77    4Au6py        4Au6px        4Au7pz        4Au7py        4Au7px        4Au8pz        4Au8py        4Au8px        4Au9pz        4Au9py    
   78    4Au9px        4Au10pz       4Au10py       4Au10px       4Au11pz       4Au11py       4Au11px       4Au1d-2       4Au1d-1       4Au1d0    
   79    4Au1d+1       4Au1d+2       4Au2d-2       4Au2d-1       4Au2d0        4Au2d+1       4Au2d+2       4Au3d-2       4Au3d-1       4Au3d0    
   80    4Au3d+1       4Au3d+2       4Au4d-2       4Au4d-1       4Au4d0        4Au4d+1       4Au4d+2       4Au5d-2       4Au5d-1       4Au5d0    
   81    4Au5d+1       4Au5d+2       4Au6d-2       4Au6d-1       4Au6d0        4Au6d+1       4Au6d+2       4Au7d-2       4Au7d-1       4Au7d0    
   82    4Au7d+1       4Au7d+2       4Au8d-2       4Au8d-1       4Au8d0        4Au8d+1       4Au8d+2       4Au9d-2       4Au9d-1       4Au9d0    
   83    4Au9d+1       4Au9d+2       4Au10d-2      4Au10d-1      4Au10d0       4Au10d+1      4Au10d+2      4Au1f-3       4Au1f-2       4Au1f-1   
   84    4Au1f0        4Au1f+1       4Au1f+2       4Au1f+3       4Au2f-3       4Au2f-2       4Au2f-1       4Au2f0        4Au2f+1       4Au2f+2   
   85    4Au2f+3       4Au3f-3       4Au3f-2       4Au3f-1       4Au3f0        4Au3f+1       4Au3f+2       4Au3f+3       4Au4f-3       4Au4f-2   
   86    4Au4f-1       4Au4f0        4Au4f+1       4Au4f+2       4Au4f+3       4Au5f-3       4Au5f-2       4Au5f-1       4Au5f0        4Au5f+1   
   87    4Au5f+2       4Au5f+3       4Au6f-3       4Au6f-2       4Au6f-1       4Au6f0        4Au6f+1       4Au6f+2       4Au6f+3       4Au7f-3   
   88    4Au7f-2       4Au7f-1       4Au7f0        4Au7f+1       4Au7f+2       4Au7f+3       4Au8f-3       4Au8f-2       4Au8f-1       4Au8f0    
   89    4Au8f+1       4Au8f+2       4Au8f+3       4Au1g-4       4Au1g-3       4Au1g-2       4Au1g-1       4Au1g0        4Au1g+1       4Au1g+2   
   90    4Au1g+3       4Au1g+4       4Au2g-4       4Au2g-3       4Au2g-2       4Au2g-1       4Au2g0        4Au2g+1       4Au2g+2       4Au2g+3   
   91    4Au2g+4       4Au3g-4       4Au3g-3       4Au3g-2       4Au3g-1       4Au3g0        4Au3g+1       4Au3g+2       4Au3g+3       4Au3g+4   
   92    4Au4g-4       4Au4g-3       4Au4g-2       4Au4g-1       4Au4g0        4Au4g+1       4Au4g+2       4Au4g+3       4Au4g+4       4Au1h-5   
   93    4Au1h-4       4Au1h-3       4Au1h-2       4Au1h-1       4Au1h0        4Au1h+1       4Au1h+2       4Au1h+3       4Au1h+4       4Au1h+5   
   94    4Au2h-5       4Au2h-4       4Au2h-3       4Au2h-2       4Au2h-1       4Au2h0        4Au2h+1       4Au2h+2       4Au2h+3       4Au2h+4   
   95    4Au2h+5       4Au3h-5       4Au3h-4       4Au3h-3       4Au3h-2       4Au3h-1       4Au3h0        4Au3h+1       4Au3h+2       4Au3h+3   
   96    4Au3h+4       4Au3h+5       4Au1i-6       4Au1i-5       4Au1i-4       4Au1i-3       4Au1i-2       4Au1i-1       4Au1i0        4Au1i+1   
   97    4Au1i+2       4Au1i+3       4Au1i+4       4Au1i+5       4Au1i+6       4Au2i-6       4Au2i-5       4Au2i-4       4Au2i-3       4Au2i-2   
   98    4Au2i-1       4Au2i0        4Au2i+1       4Au2i+2       4Au2i+3       4Au2i+4       4Au2i+5       4Au2i+6   
 
 Maximum number of basis functions per shell:   56
 Total number of basis functions:    988
 
 
 Effective core potentials:
 
   1  Au mcdhf-ecp-60        
   2  Au mcdhf-ecp-60        
   3  Au mcdhf-ecp-60        
   4  Au mcdhf-ecp-60        
 
 Initializing the SAD routines for the initial guess...
 Checking the files required for the initial guess...
 Density files have not been found for the initial guess.
 Generating SCFDENSITIES.Au.def2-svp.0
 CPU time [min]:     0.119                   Wall time [min]:     0.167
 
 Character table for point group C1:
 
          E  
    A     1
 
 Number of basis functions per irrep:
    A     128
 
 
 Calculation of overlap integrals...
 CPU time [min]:     0.120                   Wall time [min]:     0.168
 
 Calculation of the square root of the overlap matrix...
 Minimum eigenvalue of the overlap matrix: 0.292265E-02
 CPU time [min]:     0.139                   Wall time [min]:     0.169
 
 Calculation of kinetic energy integrals...
 CPU time [min]:     0.140                   Wall time [min]:     0.169
 Calculation of dipole moment integrals...
 CPU time [min]:     0.141                   Wall time [min]:     0.169
 Calculation of nuclear attraction integrals...
 CPU time [min]:     0.144                   Wall time [min]:     0.169
 Calculation of core potential integrals...
 CPU time [min]:     0.400                   Wall time [min]:     0.313
 
 Calculation of prescreening integrals...
 CPU time [min]:     0.547                   Wall time [min]:     0.317
 
 Calculation of two-center Coulomb integrals...
   1% done.
  12% done.
  25% done.
  36% done.
  48% done.
  63% done.
  82% done.
  95% done.
 100% done.
 CPU time [min]:     0.568                   Wall time [min]:     0.318
 
 Cholesky decomposition of the two-center matrix...
 Reciprocal of the condition number:  0.154923E-05
 CPU time [min]:     0.605                   Wall time [min]:     0.319
 
 
 Running small-basis SCF...

 ************************ 2023-02-04 10:27:11 *************************
 Executing scf...

 @scfsetup: integrals calculated directly
            mrcc/integ direct run
 @scfsetup: calculating on full matrices
            not using symmetry adapted basis
 @scfsetup: diis switched on
 @scfsetup: number of steps to extrapolate from  10
 @scfsetup: tolerance in energy deviation    0.100000E-05
            tolerance in density deviation    0.100000E-06
 @scfsetup: maximum number of iterations:  50
 @scfsetup: restricted closed shell hf calc
 @scfsetup: starting scf from superposition of atomic densities
 @scfsetup: occupation set:
            from initial orbitals
 @scfsetup: Parameter-set for SCF acceleration: difficult
 @scfsetup: diis runs from iteration:   2
 @scfsetup: diis runs to iteration:  50
 @scfsetup: diis runs in every iteration
 @scfsetup: diiswatch is disabled                   
 @scfsetup: diis dtol criteria to switch on:      0.0000E+00
           (or the iteration number below is reached)
 @scfsetup: damping is turned off.
 @scfsetup: dynamic level shifting
            tolarance in HOMO-LUMO gap:  0.200
            tolarance in density deviation:     0.0000E+00
            iteration step criteria to turn level shifting off: 8
 Allocation of 220.0 Gbytes of memory...
 ======================================================================
 ITERATION STEP   1
 CPU time [min]:     0.028                   Wall time [min]:     0.005
 

 SCF control                  : initial
 Damping factor/level shift   : 0.000/0.200
 DIIS [start/end/frequency]   :   2 / 50 /  1

 Constructing Fock-matrix...
 
 Pipek-Mezey localization...
 Step  Convergence
   1  64.611294533561
   2  21.538762047877
   3  12.841794280528
   4   3.786687786163
   5   0.172950650901
   6   0.000385925236
   7   0.000000154472
 CPU time [min]:     0.053                   Wall time [min]:     0.006
 
 Constructing local fitting domains...
 Maximum number of atoms in fitting domains:    4
 Average number of atoms in fitting domains:    4.0
 
 First step of Coulomb + first step of exchange...
 Exchange contribution is evaluated for MOs 1 to 38.
   1% done.
  14% done.
  25% done.
  38% done.
  49% done.
  64% done.
  75% done.
  89% done.
 100% done.
 CPU time [min]:     0.221                   Wall time [min]:     0.011
 
 Fitting and assembly step of exchange...
 CPU time [min]:     0.234                   Wall time [min]:     0.012
 
 Second step of Coulomb...
   1% done.
  14% done.
  25% done.
  38% done.
  49% done.
  64% done.
  75% done.
  89% done.
 100% done.
 CPU time [min]:     0.280                   Wall time [min]:     0.013
 
 Gradient norm:      2.6981E+00
 RMS of [F,P]:                                         0.04274144884368
 RMS of difference density:                            0.02954129979852
 Gap [au]:  0.13968604
 ALPHA OCC:  38
 BETA  OCC:  38
 
 ***HARTREE-FOCK ENERGY IN STEP   1 IS       -537.7022161078421050 [AU]
 ======================================================================
 ITERATION STEP   2
 CPU time [min]:     0.293                   Wall time [min]:     0.013
 

 SCF control                  : diis
 Damping factor/level shift   : 0.000/0.200
 DIIS [start/end/frequency]   :   2 / 50 /  1

 Constructing Fock-matrix...
 
 Pipek-Mezey localization...
 Step  Convergence
   1   2.121151840762
   2   4.578785894260
   3   0.924893270486
   4   0.006188645007
   5   0.000003048779
   6   0.000000000607
 CPU time [min]:     0.318                   Wall time [min]:     0.014
 
 Constructing local fitting domains...
 Maximum number of atoms in fitting domains:    4
 Average number of atoms in fitting domains:    4.0
 
 First step of Coulomb + first step of exchange...
 Exchange contribution is evaluated for MOs 1 to 38.
   1% done.
  14% done.
  25% done.
  38% done.
  49% done.
  64% done.
  75% done.
  89% done.
 100% done.
 CPU time [min]:     0.438                   Wall time [min]:     0.017
 
 Fitting and assembly step of exchange...
 CPU time [min]:     0.444                   Wall time [min]:     0.017
 
 Second step of Coulomb...
   1% done.
  14% done.
  25% done.
  38% done.
  49% done.
  64% done.
  75% done.
  89% done.
 100% done.
 CPU time [min]:     0.486                   Wall time [min]:     0.019
 
 Gradient norm:      4.0023E-01
 DIIS is running in this iteration step.
 RMS of [F,P]:                                         0.01373079983082
 RMS of difference density:                            0.01634469854110
 Gap [au]:  0.18806064
 ALPHA OCC:  38
 BETA  OCC:  38
 
 ***HARTREE-FOCK ENERGY IN STEP   2 IS       -538.8331548922651564 [AU]
 
 Step comparison  Energy Drift [au]  DIIS error drift  Gradient drift
        1            1.1309E+00         2.9011E-02       2.2979E+00
        2            5.3883E+02         1.0000E-07       2.2979E+00
 ======================================================================
 ITERATION STEP   3
 CPU time [min]:     0.498                   Wall time [min]:     0.019
 

 SCF control                  : diis
 Damping factor/level shift   : 0.000/0.200
 DIIS [start/end/frequency]   :   2 / 50 /  1

 Constructing Fock-matrix...
 
 Pipek-Mezey localization...
 Step  Convergence
   1  10.819946254770
   2   6.521535220768
   3   1.688454059047
   4   0.023713268696
   5   0.000005832153
   6   0.000000001348
 CPU time [min]:     0.522                   Wall time [min]:     0.020
 
 Constructing local fitting domains...
 Local fitting domains are unchanged.
 
 First step of Coulomb + first step of exchange...
 Exchange contribution is evaluated for MOs 1 to 38.
   1% done.
  14% done.
  25% done.
  38% done.
  49% done.
  64% done.
  75% done.
  89% done.
 100% done.
 CPU time [min]:     0.642                   Wall time [min]:     0.023
 
 Fitting and assembly step of exchange...
 CPU time [min]:     0.648                   Wall time [min]:     0.023
 
 Second step of Coulomb...
   1% done.
  14% done.
  25% done.
  38% done.
  49% done.
  64% done.
  75% done.
  89% done.
 100% done.
 CPU time [min]:     0.689                   Wall time [min]:     0.024
 
 Gradient norm:      1.3931E-01
 DIIS is running in this iteration step.
 RMS of [F,P]:                                         0.00524838228008
 RMS of difference density:                            0.00379671470324
 Gap [au]:  0.18171502
 ALPHA OCC:  38
 BETA  OCC:  38
 
 ***HARTREE-FOCK ENERGY IN STEP   3 IS       -539.0581177941089663 [AU]
 
 Step comparison  Energy Drift [au]  DIIS error drift  Gradient drift
        2            2.2496E-01         8.4824E-03       2.6092E-01
 ======================================================================
 ITERATION STEP   4
 CPU time [min]:     0.700                   Wall time [min]:     0.025
 

 SCF control                  : diis
 Damping factor/level shift   : 0.000/0.200
 DIIS [start/end/frequency]   :   2 / 50 /  1

 Constructing Fock-matrix...
 
 Pipek-Mezey localization...
 Step  Convergence
   1  14.914636467870
   2   3.831449808371
   3   0.368725446765
   4   0.003308348138
   5   0.000000864317
 CPU time [min]:     0.724                   Wall time [min]:     0.025
 
 Constructing local fitting domains...
 Local fitting domains are unchanged.
 
 First step of Coulomb + first step of exchange...
 Exchange contribution is evaluated for MOs 1 to 38.
   1% done.
  14% done.
  25% done.
  38% done.
  49% done.
  64% done.
  75% done.
  89% done.
 100% done.
 CPU time [min]:     0.844                   Wall time [min]:     0.029
 
 Fitting and assembly step of exchange...
 CPU time [min]:     0.849                   Wall time [min]:     0.029
 
 Second step of Coulomb...
   1% done.
  14% done.
  25% done.
  38% done.
  49% done.
  64% done.
  75% done.
  89% done.
 100% done.
 CPU time [min]:     0.890                   Wall time [min]:     0.030
 
 Gradient norm:      3.8758E-02
 DIIS is running in this iteration step.
 RMS of [F,P]:                                         0.00084174304404
 RMS of difference density:                            0.00088674990343
 Gap [au]:  0.18538780
 ALPHA OCC:  38
 BETA  OCC:  38
 
 ***HARTREE-FOCK ENERGY IN STEP   4 IS       -539.0988933069911582 [AU]
 
 Step comparison  Energy Drift [au]  DIIS error drift  Gradient drift
        3            4.0776E-02         4.4066E-03       1.0056E-01
 ======================================================================
 ITERATION STEP   5
 CPU time [min]:     0.901                   Wall time [min]:     0.030
 

 SCF control                  : diis
 Damping factor/level shift   : 0.000/0.200
 DIIS [start/end/frequency]   :   2 / 50 /  1

 Constructing Fock-matrix...
 
 Pipek-Mezey localization...
 Step  Convergence
   1  16.819523876257
   2   3.286394150622
   3   0.370931511102
   4   0.002984261255
   5   0.000000557636
 CPU time [min]:     0.925                   Wall time [min]:     0.031
 
 Constructing local fitting domains...
 Local fitting domains are unchanged.
 
 First step of Coulomb + first step of exchange...
 Exchange contribution is evaluated for MOs 1 to 38.
   1% done.
  14% done.
  25% done.
  38% done.
  49% done.
  64% done.
  75% done.
  89% done.
 100% done.
 CPU time [min]:     1.044                   Wall time [min]:     0.034
 
 Fitting and assembly step of exchange...
 CPU time [min]:     1.049                   Wall time [min]:     0.034
 
 Second step of Coulomb...
   1% done.
  14% done.
  25% done.
  38% done.
  49% done.
  64% done.
  75% done.
  89% done.
 100% done.
 CPU time [min]:     1.090                   Wall time [min]:     0.036
 
 Gradient norm:      1.9731E-02
 DIIS is running in this iteration step.
 RMS of [F,P]:                                         0.00035574297046
 RMS of difference density:                            0.00095536463101
 Gap [au]:  0.18792113
 ALPHA OCC:  38
 BETA  OCC:  38
 
 ***HARTREE-FOCK ENERGY IN STEP   5 IS       -539.1011518979198627 [AU]
 
 Step comparison  Energy Drift [au]  DIIS error drift  Gradient drift
        4            2.2586E-03         4.8600E-04       1.9026E-02
 ======================================================================
 ITERATION STEP   6
 CPU time [min]:     1.102                   Wall time [min]:     0.036
 

 SCF control                  : diis
 Damping factor/level shift   : 0.000/0.200
 DIIS [start/end/frequency]   :   2 / 50 /  1

 Constructing Fock-matrix...
 
 Pipek-Mezey localization...
 Step  Convergence
   1  17.589458468926
   2   3.741477534861
   3   1.139480769718
   4   0.256867893997
   5   0.002545109954
   6   0.000000167926
 CPU time [min]:     1.126                   Wall time [min]:     0.037
 
 Constructing local fitting domains...
 Local fitting domains are unchanged.
 
 First step of Coulomb + first step of exchange...
 Exchange contribution is evaluated for MOs 1 to 38.
   1% done.
  14% done.
  25% done.
  38% done.
  49% done.
  64% done.
  75% done.
  89% done.
 100% done.
 CPU time [min]:     1.245                   Wall time [min]:     0.040
 
 Fitting and assembly step of exchange...
 CPU time [min]:     1.251                   Wall time [min]:     0.040
 
 Second step of Coulomb...
   1% done.
  14% done.
  25% done.
  38% done.
  49% done.
  64% done.
  75% done.
  89% done.
 100% done.
 CPU time [min]:     1.292                   Wall time [min]:     0.041
 
 Gradient norm:      1.1507E-02
 DIIS is running in this iteration step.
 RMS of [F,P]:                                         0.00012425804191
 RMS of difference density:                            0.00044106082132
 Gap [au]:  0.18813554
 ALPHA OCC:  38
 BETA  OCC:  38
 
 ***HARTREE-FOCK ENERGY IN STEP   6 IS       -539.1020018158319544 [AU]
 
 Step comparison  Energy Drift [au]  DIIS error drift  Gradient drift
        5            8.4992E-04         2.3148E-04       8.2241E-03
 ======================================================================
 ITERATION STEP   7
 CPU time [min]:     1.303                   Wall time [min]:     0.042
 

 SCF control                  : diis
 Damping factor/level shift   : 0.000/0.200
 DIIS [start/end/frequency]   :   2 / 50 /  1

 Constructing Fock-matrix...
 
 Pipek-Mezey localization...
 Step  Convergence
   1  17.769407490612
   2   6.992401361006
   3  10.047399128341
   4   4.032490480696
   5   1.136045573284
   6   0.528791036603
   7   0.138794850853
   8   0.131726913197
   9   0.074132112549
  10   0.109287336262
  11   0.007736622592
  12   0.001634440303
  13   0.000575701769
  14   0.000138741975
  15   0.000045671301
  16   0.000012437754
  17   0.000003985140
  18   0.000001025292
  19   0.000000304235
  20   0.000000083459
  21   0.000000026179
  22   0.000000006820
  23   0.000000002017
  24   0.000000000561
  25   0.000000000170
  26   0.000000000043
  27   0.000000000015
  28   0.000000000004
  29   0.000000000001
  30   0.000000000000
 CPU time [min]:     1.337                   Wall time [min]:     0.043
 
 Constructing local fitting domains...
 Local fitting domains are unchanged.
 
 First step of Coulomb + first step of exchange...
 Exchange contribution is evaluated for MOs 1 to 38.
   1% done.
  14% done.
  25% done.
  38% done.
  49% done.
  64% done.
  75% done.
  89% done.
 100% done.
 CPU time [min]:     1.457                   Wall time [min]:     0.046
 
 Fitting and assembly step of exchange...
 CPU time [min]:     1.463                   Wall time [min]:     0.046
 
 Second step of Coulomb...
   1% done.
  14% done.
  25% done.
  38% done.
  49% done.
  64% done.
  75% done.
  89% done.
 100% done.
 CPU time [min]:     1.504                   Wall time [min]:     0.047
 
 Gradient norm:      6.7843E-03
 DIIS is running in this iteration step.
 RMS of [F,P]:                                         0.00006708827652
 RMS of difference density:                            0.00026329230281
 Gap [au]:  0.18863082
 ALPHA OCC:  38
 BETA  OCC:  38
 
 ***HARTREE-FOCK ENERGY IN STEP   7 IS       -539.1021887495746796 [AU]
 
 Step comparison  Energy Drift [au]  DIIS error drift  Gradient drift
        6            1.8693E-04         5.7170E-05       4.7229E-03
 ======================================================================
 ITERATION STEP   8
 CPU time [min]:     1.515                   Wall time [min]:     0.048
 

 SCF control                  : diis
 Damping factor/level shift   : 0.000/0.200
 DIIS [start/end/frequency]   :   2 / 50 /  1

 Constructing Fock-matrix...
 
 Pipek-Mezey localization...
 Step  Convergence
   1  19.665733016199
   2   6.957003585577
   3   8.762414739316
   4   6.940022032476
   5   2.958224092157
   6   0.891497381013
   7   0.110407423400
   8   0.004489269000
   9   0.000553093311
  10   0.000171486102
  11   0.000022948422
  12   0.000011287425
  13   0.000001680454
  14   0.000000849926
  15   0.000000138733
  16   0.000000067567
  17   0.000000012085
  18   0.000000005706
  19   0.000000001054
  20   0.000000000481
  21   0.000000000098
  22   0.000000000043
  23   0.000000000009
  24   0.000000000004
  25   0.000000000001
 CPU time [min]:     1.548                   Wall time [min]:     0.049
 
 Constructing local fitting domains...
 Local fitting domains are unchanged.
 
 First step of Coulomb + first step of exchange...
 Exchange contribution is evaluated for MOs 1 to 38.
   1% done.
  14% done.
  25% done.
  38% done.
  49% done.
  64% done.
  75% done.
  89% done.
 100% done.
 CPU time [min]:     1.668                   Wall time [min]:     0.052
 
 Fitting and assembly step of exchange...
 CPU time [min]:     1.674                   Wall time [min]:     0.052
 
 Second step of Coulomb...
   1% done.
  14% done.
  25% done.
  38% done.
  49% done.
  64% done.
  75% done.
  89% done.
 100% done.
 CPU time [min]:     1.715                   Wall time [min]:     0.053
 
 Gradient norm:      3.5327E-03
 DIIS is running in this iteration step.
 RMS of [F,P]:                                         0.00003275053396
 RMS of difference density:                            0.00013503534556
 Gap [au]:  0.18872176
 ALPHA OCC:  38
 BETA  OCC:  38
 
 ***HARTREE-FOCK ENERGY IN STEP   8 IS       -539.1022504649677103 [AU]
 
 Step comparison  Energy Drift [au]  DIIS error drift  Gradient drift
        7            6.1715E-05         3.4338E-05       3.2516E-03
 ======================================================================
 ITERATION STEP   9
 CPU time [min]:     1.727                   Wall time [min]:     0.054
 

 SCF control                  : diis
 Damping factor/level shift   : 0.000/0.000
 DIIS [start/end/frequency]   :   2 / 50 /  1

 Constructing Fock-matrix...
 
 Pipek-Mezey localization...
 Step  Convergence
   1  17.667367625920
   2   7.751480151263
   3   6.850210969095
   4   3.178671227999
   5   0.747953985307
   6   0.057718590897
   7   0.261140233466
   8   0.006423388649
   9   0.004578968211
  10   0.000497209496
  11   0.000226240501
  12   0.000045474970
  13   0.000025463181
  14   0.000004554788
  15   0.000001846780
  16   0.000000506213
  17   0.000000196557
  18   0.000000056159
  19   0.000000018059
  20   0.000000005523
  21   0.000000002089
  22   0.000000000539
  23   0.000000000182
  24   0.000000000073
  25   0.000000000019
  26   0.000000000007
  27   0.000000000002
  28   0.000000000001
 CPU time [min]:     1.760                   Wall time [min]:     0.054
 
 Constructing local fitting domains...
 Local fitting domains are unchanged.
 
 First step of Coulomb + first step of exchange...
 Exchange contribution is evaluated for MOs 1 to 38.
   1% done.
  14% done.
  25% done.
  38% done.
  49% done.
  64% done.
  75% done.
  89% done.
 100% done.
 CPU time [min]:     1.880                   Wall time [min]:     0.058
 
 Fitting and assembly step of exchange...
 CPU time [min]:     1.886                   Wall time [min]:     0.058
 
 Second step of Coulomb...
   1% done.
  14% done.
  25% done.
  38% done.
  49% done.
  64% done.
  75% done.
  89% done.
 100% done.
 CPU time [min]:     1.927                   Wall time [min]:     0.059
 
 Gradient norm:      1.8371E-03
 DIIS is running in this iteration step.
 RMS of [F,P]:                                         0.00001644114070
 RMS of difference density:                            0.00010042800801
 Gap [au]:  0.18878979
 ALPHA OCC:  38
 BETA  OCC:  38
 
 ***HARTREE-FOCK ENERGY IN STEP   9 IS       -539.1022661685465209 [AU]
 
 Step comparison  Energy Drift [au]  DIIS error drift  Gradient drift
        8            1.5704E-05         1.6309E-05       1.6956E-03
 ======================================================================
 ITERATION STEP  10
 CPU time [min]:     1.939                   Wall time [min]:     0.059
 

 SCF control                  : diis
 Damping factor/level shift   : 0.000/0.000
 DIIS [start/end/frequency]   :   2 / 50 /  1

 Constructing Fock-matrix...
 
 Pipek-Mezey localization...
 Step  Convergence
   1  16.170335931262
   2   7.442799251988
   3   9.481945200670
   4   5.967115569509
   5   1.471577100754
   6   0.166198074235
   7   0.015935867887
   8   0.027804156827
   9   0.032674705368
  10   0.022035937053
  11   0.014493167887
  12   0.127462354914
  13   0.017619657509
  14   0.006046718893
  15   0.002226529948
  16   0.000778008514
  17   0.000236770531
  18   0.000077874807
  19   0.000023783300
  20   0.000007631714
  21   0.000002518118
  22   0.000000832398
  23   0.000000273797
  24   0.000000090034
  25   0.000000029586
  26   0.000000009726
  27   0.000000003195
  28   0.000000001066
  29   0.000000000341
  30   0.000000000112
  31   0.000000000037
  32   0.000000000012
  33   0.000000000004
  34   0.000000000001
  35   0.000000000000
 CPU time [min]:     1.976                   Wall time [min]:     0.061
 
 Constructing local fitting domains...
 Local fitting domains are unchanged.
 
 First step of Coulomb + first step of exchange...
 Exchange contribution is evaluated for MOs 1 to 38.
   1% done.
  14% done.
  25% done.
  38% done.
  49% done.
  64% done.
  75% done.
  89% done.
 100% done.
 CPU time [min]:     2.096                   Wall time [min]:     0.064
 
 Fitting and assembly step of exchange...
 CPU time [min]:     2.101                   Wall time [min]:     0.064
 
 Second step of Coulomb...
   1% done.
  14% done.
  25% done.
  38% done.
  49% done.
  64% done.
  75% done.
  89% done.
 100% done.
 CPU time [min]:     2.142                   Wall time [min]:     0.065
 
 Gradient norm:      1.4058E-04
 DIIS is running in this iteration step.
 RMS of [F,P]:                                         0.00000227054256
 RMS of difference density:                            0.00000952176983
 Gap [au]:  0.18879419
 ALPHA OCC:  38
 BETA  OCC:  38
 
 ***HARTREE-FOCK ENERGY IN STEP  10 IS       -539.1022708047635206 [AU]
 
 Step comparison  Energy Drift [au]  DIIS error drift  Gradient drift
        9            4.6362E-06         1.4171E-05       1.6965E-03
 ======================================================================
 ITERATION STEP  11
 CPU time [min]:     2.153                   Wall time [min]:     0.065
 

 SCF control                  : diis
 Damping factor/level shift   : 0.000/0.000
 DIIS [start/end/frequency]   :   2 / 50 /  1

 Constructing Fock-matrix...
 
 Pipek-Mezey localization...
 Step  Convergence
   1  19.073656619766
   2   7.649620137671
   3   9.101187059134
   4   3.904804274621
   5   1.425671301642
   6   0.097681601659
   7   0.015211381362
   8   0.002441451029
   9   0.001216152266
  10   0.000217630580
  11   0.000119593594
  12   0.000023810409
  13   0.000013350465
  14   0.000002619427
  15   0.000001453809
  16   0.000000362722
  17   0.000000170446
  18   0.000000049391
  19   0.000000021385
  20   0.000000006796
  21   0.000000002801
  22   0.000000000946
  23   0.000000000379
  24   0.000000000133
  25   0.000000000052
  26   0.000000000019
  27   0.000000000007
  28   0.000000000003
  29   0.000000000001
  30   0.000000000000
 CPU time [min]:     2.188                   Wall time [min]:     0.066
 
 Constructing local fitting domains...
 Local fitting domains are unchanged.
 
 First step of Coulomb + first step of exchange...
 Exchange contribution is evaluated for MOs 1 to 38.
   1% done.
  14% done.
  25% done.
  38% done.
  49% done.
  64% done.
  75% done.
  89% done.
 100% done.
 CPU time [min]:     2.307                   Wall time [min]:     0.070
 
 Fitting and assembly step of exchange...
 CPU time [min]:     2.313                   Wall time [min]:     0.070
 
 Second step of Coulomb...
   1% done.
  14% done.
  25% done.
  38% done.
  49% done.
  64% done.
  75% done.
  89% done.
 100% done.
 CPU time [min]:     2.354                   Wall time [min]:     0.071
 
 Gradient norm:      2.3759E-05
 DIIS is running in this iteration step.
 RMS of [F,P]:                                         0.00000052749995
 RMS of difference density:                            0.00000174408464
 Gap [au]:  0.18879537
 ALPHA OCC:  38
 BETA  OCC:  38
 
 ***HARTREE-FOCK ENERGY IN STEP  11 IS       -539.1022708506040999 [AU]
 
 Step comparison  Energy Drift [au]  DIIS error drift  Gradient drift
       10            4.5841E-08         1.7430E-06       1.1682E-04
 ======================================================================
 ITERATION STEP  12
 CPU time [min]:     2.365                   Wall time [min]:     0.071
 

 SCF control                  : diis
 Damping factor/level shift   : 0.000/0.000
 DIIS [start/end/frequency]   :   2 / 50 /  1

 Constructing Fock-matrix...
 
 Pipek-Mezey localization...
 Step  Convergence
   1  20.435489503737
   2  11.398711838734
   3   7.311454638199
   4   4.116590926914
   5   0.682581301434
   6   0.218854601671
   7   0.049302733398
   8   0.013459132903
   9   0.004741402025
  10   0.001111144510
  11   0.000480279947
  12   0.000123611669
  13   0.000054560240
  14   0.000015371783
  15   0.000006233421
  16   0.000002149183
  17   0.000000852300
  18   0.000000264342
  19   0.000000098768
  20   0.000000031256
  21   0.000000015121
  22   0.000000004466
  23   0.000000001846
  24   0.000000000621
  25   0.000000000235
  26   0.000000000081
  27   0.000000000034
  28   0.000000000011
  29   0.000000000004
  30   0.000000000002
  31   0.000000000001
 CPU time [min]:     2.400                   Wall time [min]:     0.072
 
 Constructing local fitting domains...
 Local fitting domains are unchanged.
 
 First step of Coulomb + first step of exchange...
 Exchange contribution is evaluated for MOs 1 to 38.
   1% done.
  14% done.
  25% done.
  38% done.
  49% done.
  64% done.
  75% done.
  89% done.
 100% done.
 CPU time [min]:     2.520                   Wall time [min]:     0.076
 
 Fitting and assembly step of exchange...
 CPU time [min]:     2.525                   Wall time [min]:     0.076
 
 Second step of Coulomb...
   1% done.
  14% done.
  25% done.
  38% done.
  49% done.
  64% done.
  75% done.
  89% done.
 100% done.
 CPU time [min]:     2.566                   Wall time [min]:     0.077
 
 Gradient norm:      8.3388E-06
 DIIS is running in this iteration step.
 RMS of [F,P]:                                         0.00000030905427
 RMS of difference density:                            0.00000073046529
 Gap [au]:  0.18879580
 ALPHA OCC:  38
 BETA  OCC:  38
 
 ***HARTREE-FOCK ENERGY IN STEP  12 IS       -539.1022708522536959 [AU]
 
 Step comparison  Energy Drift [au]  DIIS error drift  Gradient drift
       11            1.6496E-09         2.1845E-07       1.5420E-05
 ======================================================================
 ITERATION STEP  13
 CPU time [min]:     2.578                   Wall time [min]:     0.077
 

 SCF control                  : diis
 Damping factor/level shift   : 0.000/0.000
 DIIS [start/end/frequency]   :   2 / 50 /  1

 Constructing Fock-matrix...
 
 Pipek-Mezey localization...
 Step  Convergence
   1  14.864719655441
   2   9.735793653915
   3   6.772281809585
   4   2.395368808534
   5   0.522178547253
   6   0.164889676828
   7   0.054053581666
   8   0.021194743091
   9   0.009077525721
  10   0.003107811137
  11   0.001116674961
  12   0.000371158005
  13   0.000134386419
  14   0.000044644633
  15   0.000016231737
  16   0.000005440570
  17   0.000001962912
  18   0.000000663911
  19   0.000000237805
  20   0.000000081077
  21   0.000000028789
  22   0.000000010098
  23   0.000000003408
  24   0.000000001200
  25   0.000000000419
  26   0.000000000145
  27   0.000000000070
  28   0.000000000012
  29   0.000000000006
  30   0.000000000002
  31   0.000000000001
 CPU time [min]:     2.612                   Wall time [min]:     0.078
 
 Constructing local fitting domains...
 Local fitting domains are unchanged.
 
 First step of Coulomb + first step of exchange...
 Exchange contribution is evaluated for MOs 1 to 38.
   1% done.
  14% done.
  25% done.
  38% done.
  49% done.
  64% done.
  75% done.
  89% done.
 100% done.
 CPU time [min]:     2.732                   Wall time [min]:     0.082
 
 Fitting and assembly step of exchange...
 CPU time [min]:     2.738                   Wall time [min]:     0.082
 
 Second step of Coulomb...
   1% done.
  14% done.
  25% done.
  38% done.
  49% done.
  64% done.
  75% done.
  89% done.
 100% done.
 CPU time [min]:     2.779                   Wall time [min]:     0.083
 
 Gradient norm:      5.0911E-06
 DIIS is running in this iteration step.
 RMS of [F,P]:                                         0.00000007468552
 RMS of difference density:                            0.00000031606479
 Gap [au]:  0.18879594
 ALPHA OCC:  38
 BETA  OCC:  38
 
 ***HARTREE-FOCK ENERGY IN STEP  13 IS       -539.1022708526372753 [AU]
 
 Step comparison  Energy Drift [au]  DIIS error drift  Gradient drift
       12            3.8358E-10         2.3437E-07       3.2477E-06
 ======================================================================
 ITERATION STEP  14
 CPU time [min]:     2.790                   Wall time [min]:     0.083
 

 SCF control                  : diis
 Damping factor/level shift   : 0.000/0.000
 DIIS [start/end/frequency]   :   2 / 50 /  1

 Constructing Fock-matrix...
 
 Pipek-Mezey localization...
 Step  Convergence
   1  20.998127364559
   2   7.620400606327
   3   9.227450443103
   4   4.637938588192
   5   0.700082106667
   6   0.345167048681
   7   0.167178434229
   8   0.030988593731
   9   0.017669485368
  10   0.016888085305
  11   0.185272052043
  12   0.013321985012
  13   0.012120372955
  14   0.005461155199
  15   0.002238772310
  16   0.000930692408
  17   0.000288108589
  18   0.000104710507
  19   0.000040513178
  20   0.000014575764
  21   0.000005413797
  22   0.000001979305
  23   0.000000725686
  24   0.000000265346
  25   0.000000097203
  26   0.000000035422
  27   0.000000012997
  28   0.000000004740
  29   0.000000001734
  30   0.000000000632
  31   0.000000000232
  32   0.000000000084
  33   0.000000000031
  34   0.000000000011
  35   0.000000000004
  36   0.000000000002
  37   0.000000000001
 CPU time [min]:     2.828                   Wall time [min]:     0.084
 
 Constructing local fitting domains...
 Local fitting domains are unchanged.
 
 First step of Coulomb + first step of exchange...
 Exchange contribution is evaluated for MOs 1 to 38.
   1% done.
  14% done.
  25% done.
  38% done.
  49% done.
  64% done.
  75% done.
  89% done.
 100% done.
 CPU time [min]:     2.947                   Wall time [min]:     0.088
 
 Fitting and assembly step of exchange...
 CPU time [min]:     2.953                   Wall time [min]:     0.088
 
 Second step of Coulomb...
   1% done.
  14% done.
  25% done.
  38% done.
  49% done.
  64% done.
  75% done.
  89% done.
 100% done.
 CPU time [min]:     2.994                   Wall time [min]:     0.089
 
 Gradient norm:      4.0596E-06
 DIIS is running in this iteration step.
 RMS of [F,P]:                                         0.00000003801332
 RMS of difference density:                            0.00000020321150
 Gap [au]:  0.18879603
 ALPHA OCC:  38
 BETA  OCC:  38
 
 ***HARTREE-FOCK ENERGY IN STEP  14 IS       -539.1022708527284522 [AU]
 
 Step comparison  Energy Drift [au]  DIIS error drift  Gradient drift
       13            9.1177E-11         3.6672E-08       1.0316E-06
 ======================================================================
 ITERATION STEP  15
 CPU time [min]:     3.005                   Wall time [min]:     0.089
 

 SCF control                  : diis
 Damping factor/level shift   : 0.000/0.000
 DIIS [start/end/frequency]   :   2 / 50 /  1

 Constructing Fock-matrix...
 
 Pipek-Mezey localization...
 Step  Convergence
   1  22.004816724722
   2   8.818114666874
   3  10.096341853863
   4   3.598783219849
   5   1.582726578389
   6   0.119420775499
   7   0.383157715052
   8   0.039821868947
   9   0.007763900972
  10   0.003893107043
  11   0.001197651499
  12   0.000602140044
  13   0.000132310279
  14   0.000064352454
  15   0.000015720848
  16   0.000007086908
  17   0.000001932927
  18   0.000000778358
  19   0.000000223099
  20   0.000000086288
  21   0.000000024825
  22   0.000000009779
  23   0.000000002915
  24   0.000000001118
  25   0.000000000340
  26   0.000000000129
  27   0.000000000036
  28   0.000000000015
  29   0.000000000004
  30   0.000000000002
  31   0.000000000001
 CPU time [min]:     3.051                   Wall time [min]:     0.091
 
 Constructing local fitting domains...
 Local fitting domains are unchanged.
 
 First step of Coulomb + first step of exchange...
 Exchange contribution is evaluated for MOs 1 to 38.
   1% done.
  14% done.
  25% done.
  38% done.
  49% done.
  64% done.
  75% done.
  89% done.
 100% done.
 CPU time [min]:     3.170                   Wall time [min]:     0.094
 
 Fitting and assembly step of exchange...
 CPU time [min]:     3.176                   Wall time [min]:     0.094
 
 Second step of Coulomb...
   1% done.
  14% done.
  25% done.
  38% done.
  49% done.
  64% done.
  75% done.
  89% done.
 100% done.
 CPU time [min]:     3.217                   Wall time [min]:     0.095
 
 Gradient norm:      2.8088E-06
 DIIS is running in this iteration step.
 RMS of [F,P]:                                         0.00000002867740
 RMS of difference density:                            0.00000020837847
 Gap [au]:  0.18879603
 ALPHA OCC:  38
 BETA  OCC:  38
 
 ***HARTREE-FOCK ENERGY IN STEP  15 IS       -539.1022708527616487 [AU]
 
 Step comparison  Energy Drift [au]  DIIS error drift  Gradient drift
       14            3.3197E-11         9.3359E-09       1.2507E-06
 ======================================================================
 ITERATION STEP  16
 CPU time [min]:     3.228                   Wall time [min]:     0.096
 

 SCF control                  : diis
 Damping factor/level shift   : 0.000/0.000
 DIIS [start/end/frequency]   :   2 / 50 /  1

 Constructing Fock-matrix...
 
 Pipek-Mezey localization...
 Step  Convergence
   1  21.934888679110
   2   8.748517996258
   3  10.210282015890
   4   4.646903708203
   5   1.239374048633
   6   0.157434373860
   7   0.029068699335
   8   0.008725175542
   9   0.003060867048
  10   0.001174386993
  11   0.000391264504
  12   0.000158858521
  13   0.000052269902
  14   0.000020471568
  15   0.000006814085
  16   0.000002513956
  17   0.000001037992
  18   0.000000340717
  19   0.000000125810
  20   0.000000049306
  21   0.000000017967
  22   0.000000006357
  23   0.000000002438
  24   0.000000000838
  25   0.000000000316
  26   0.000000000123
  27   0.000000000041
  28   0.000000000015
  29   0.000000000006
  30   0.000000000002
  31   0.000000000001
 CPU time [min]:     3.263                   Wall time [min]:     0.097
 
 Constructing local fitting domains...
 Local fitting domains are unchanged.
 
 First step of Coulomb + first step of exchange...
 Exchange contribution is evaluated for MOs 1 to 38.
   1% done.
  14% done.
  25% done.
  38% done.
  49% done.
  64% done.
  75% done.
  89% done.
 100% done.
 CPU time [min]:     3.383                   Wall time [min]:     0.100
 
 Fitting and assembly step of exchange...
 CPU time [min]:     3.388                   Wall time [min]:     0.100
 
 Second step of Coulomb...
   1% done.
  14% done.
  25% done.
  38% done.
  49% done.
  64% done.
  75% done.
  89% done.
 100% done.
 CPU time [min]:     3.430                   Wall time [min]:     0.101
 
 Gradient norm:      1.8407E-06
 DIIS is running in this iteration step.
 RMS of [F,P]:                                         0.00000001532001
 RMS of difference density:                            0.00000018847446
 Gap [au]:  0.18879602
 ALPHA OCC:  38
 BETA  OCC:  38
 
 ***HARTREE-FOCK ENERGY IN STEP  16 IS       -539.1022708527859777 [AU]
 
 Step comparison  Energy Drift [au]  DIIS error drift  Gradient drift
       15            2.4329E-11         1.3357E-08       9.6819E-07
 ======================================================================
 ITERATION STEP  17
 CPU time [min]:     3.441                   Wall time [min]:     0.102
 

 SCF control                  : diis
 Damping factor/level shift   : 0.000/0.000
 DIIS [start/end/frequency]   :   2 / 50 /  1

 Constructing Fock-matrix...
 
 Pipek-Mezey localization...
 Step  Convergence
   1  19.308908208718
   2  10.034358548332
   3   8.792261090938
   4   7.450825498018
   5   3.625286790638
   6   0.541140919158
   7   0.245082272681
   8   0.040660399958
   9   0.263116898179
  10   0.015256691050
  11   0.007800598429
  12   0.002698919865
  13   0.000947879057
  14   0.000310778091
  15   0.000117738002
  16   0.000039166969
  17   0.000015647043
  18   0.000005475840
  19   0.000002044468
  20   0.000000709585
  21   0.000000257623
  22   0.000000091664
  23   0.000000032949
  24   0.000000010978
  25   0.000000004103
  26   0.000000001628
  27   0.000000000608
  28   0.000000000207
  29   0.000000000083
  30   0.000000000030
  31   0.000000000011
  32   0.000000000004
  33   0.000000000001
  34   0.000000000001
 CPU time [min]:     3.477                   Wall time [min]:     0.103
 
 Constructing local fitting domains...
 Local fitting domains are unchanged.
 
 First step of Coulomb + first step of exchange...
 Exchange contribution is evaluated for MOs 1 to 38.
   1% done.
  14% done.
  25% done.
  38% done.
  49% done.
  64% done.
  75% done.
  89% done.
 100% done.
 CPU time [min]:     3.597                   Wall time [min]:     0.106
 
 Fitting and assembly step of exchange...
 CPU time [min]:     3.603                   Wall time [min]:     0.106
 
 Second step of Coulomb...
   1% done.
  14% done.
  25% done.
  38% done.
  49% done.
  64% done.
  75% done.
  89% done.
 100% done.
 CPU time [min]:     3.644                   Wall time [min]:     0.107
 
 Gradient norm:      7.9191E-07
 DIIS is running in this iteration step.
 RMS of [F,P]:                                         0.00000000857277
 RMS of difference density:                            0.00000009260373
 Gap [au]:  0.18879602
 ALPHA OCC:  38
 BETA  OCC:  38
 
 ***HARTREE-FOCK ENERGY IN STEP  17 IS       -539.1022708527975738 [AU]
 
 Step comparison  Energy Drift [au]  DIIS error drift  Gradient drift
       16            1.1596E-11         6.7472E-09       1.0487E-06
 ======================================================================
 
 SUCCESS...
 THE SCF ITERATION HAS CONVERGED!
 
                   A   
 FINAL ALPHA OCC:  38
 FINAL BETA  OCC:  38
 
 ***FINAL HARTREE-FOCK ENERGY:       -539.1022708527975738 [AU]
 
 Orbital energies [au]:
      Irrep         Alpha          Beta
    1   A         -4.677663      -4.677663
    2   A         -4.677534      -4.677534
    3   A         -4.676748      -4.676748
    4   A         -4.676741      -4.676741
    5   A         -2.753164      -2.753164
    6   A         -2.752053      -2.752053
    7   A         -2.739587      -2.739587
    8   A         -2.739444      -2.739444
    9   A         -2.739307      -2.739307
   10   A         -2.737846      -2.737846
   11   A         -2.737606      -2.737606
   12   A         -2.737578      -2.737578
   13   A         -2.736824      -2.736824
   14   A         -2.736810      -2.736810
   15   A         -2.736149      -2.736149
   16   A         -2.736119      -2.736119
   17   A         -0.545250      -0.545250
   18   A         -0.525030      -0.525030
   19   A         -0.523687      -0.523687
   20   A         -0.511218      -0.511218
   21   A         -0.511094      -0.511094
   22   A         -0.491612      -0.491612
   23   A         -0.477576      -0.477576
   24   A         -0.477094      -0.477094
   25   A         -0.475642      -0.475642
   26   A         -0.456692      -0.456692
   27   A         -0.454780      -0.454780
   28   A         -0.446683      -0.446683
   29   A         -0.446033      -0.446033
   30   A         -0.432531      -0.432531
   31   A         -0.432177      -0.432177
   32   A         -0.431059      -0.431059
   33   A         -0.430679      -0.430679
   34   A         -0.421663      -0.421663
   35   A         -0.405338      -0.405338
   36   A         -0.404101      -0.404101
   37   A         -0.372008      -0.372008
   38   A         -0.208872      -0.208872
 
   39   A         -0.020076      -0.020076
   40   A         -0.018703      -0.018703
   41   A          0.061353       0.061353
   42   A          0.082259       0.082259
   43   A          0.083136       0.083136
   44   A          0.090893       0.090893
   45   A          0.094300       0.094300
   46   A          0.112987       0.112987
   47   A          0.172658       0.172658
   48   A          0.182859       0.182859
   49   A          0.187517       0.187517
   50   A          0.188761       0.188761
   51   A          0.193855       0.193855
   52   A          0.194139       0.194139
   53   A          0.317980       0.317980
   54   A          0.351040       0.351040
   55   A          0.353471       0.353471
   56   A          0.362741       0.362741
   57   A          0.561203       0.561203
   58   A          0.595095       0.595095
   59   A          0.596460       0.596460
   60   A          0.606919       0.606919
   61   A          0.643584       0.643584
   62   A          0.643668       0.643668
   63   A          0.665681       0.665681
   64   A          0.700140       0.700140
   65   A          0.701516       0.701516
   66   A          0.704854       0.704854
   67   A          0.715667       0.715667
   68   A          0.730073       0.730073
   69   A          0.756135       0.756135
   70   A          0.761281       0.761281
   71   A          0.802985       0.802985
   72   A          0.804844       0.804844
   73   A          0.811505       0.811505
   74   A          0.827442       0.827442
   75   A          0.835564       0.835564
   76   A          0.843465       0.843465
   77   A          0.992935       0.992935
   78   A          1.021822       1.021822
   79   A          1.063170       1.063170
   80   A          1.119871       1.119871
   81   A          1.120551       1.120551
   82   A          1.196730       1.196730
   83   A          1.227607       1.227607
   84   A          1.239149       1.239149
   85   A          1.251992       1.251992
   86   A          1.379081       1.379081
   87   A          1.495312       1.495312
   88   A          1.497522       1.497522
   89   A          1.759029       1.759029
   90   A          1.787574       1.787574
   91   A          1.788215       1.788215
   92   A          1.793210       1.793210
   93   A          1.823953       1.823953
   94   A          1.830513       1.830513
   95   A          1.840843       1.840843
   96   A          1.841157       1.841157
   97   A          1.846405       1.846405
   98   A          1.846613       1.846613
   99   A          1.868549       1.868549
  100   A          1.869687       1.869687
  101   A          1.875201       1.875201
  102   A          1.879775       1.879775
  103   A          1.879840       1.879840
  104   A          1.881177       1.881177
  105   A          1.884385       1.884385
  106   A          1.896283       1.896283
  107   A          1.899695       1.899695
  108   A          1.909055       1.909055
  109   A          1.910598       1.910598
  110   A          1.968258       1.968258
  111   A          1.995517       1.995517
  112   A          2.005250       2.005250
  113   A          2.006556       2.006556
  114   A          2.007194       2.007194
  115   A          2.158421       2.158421
  116   A          2.160050       2.160050
  117   A          2.262333       2.262333
  118   A          2.437615       2.437615
  119   A          2.437727       2.437727
  120   A          2.463545       2.463545
  121   A         41.873247      41.873247
  122   A         41.947520      41.947520
  123   A         41.948930      41.948930
  124   A         42.040096      42.040096
  125   A        200.225649     200.225649
  126   A        200.264004     200.264004
  127   A        200.264666     200.264666
  128   A        200.309410     200.309410
 
 RETURNING FROM SCF ALGORITHM
 ======================================================================

 ************************ 2023-02-04 10:27:18 *************************
 Executing integ...

 Allocation of 220.0 Gbytes of memory...
 
 
 Number of atoms:                  4
 Charge:                           0
 Number of electrons:             76
 Number of core electrons:         0
 Spin multiplicity:                1
 
                 Cartesian coordinates [bohr]      Atomic mass [AMU]  Z
   1  Au    2.53653436    0.82839285    2.36187456   196.966543      79
   2  Au    0.02876328   -0.26928762   -2.57577130   196.966543      79
   3  Au   -0.91361718   -2.47118627    2.57577130   196.966543      79
   4  Au   -2.53653436    2.47118627    0.37777953   196.966543      79
 
 This molecule is an asymmetric top.
 
 Point group: C1  
 Computational point group: C1  
 
 Cartesian coordinates in standard orientation [bohr]
   1  Au    2.27932454   -1.72212867   -1.65242752
   2  Au   -2.26719807   -1.68826983    1.69453388
   3  Au    2.26933533    1.73120043    1.65074343
   4  Au   -2.28146180    1.67919807   -1.69284979
 
 Nuclear repulsion energy [au]:        405.981725271969
 
 
 Basis set information:
 
 Maximum angular momentum: i
 Maximum number of contracted Gaussians:   13
 Maximum number of primitive Gaussians:    13
 Spherical harmonic GTOs are used.
 
 
 Conventional basis set:
 
   1  Au bse_acvtz [ 13s 12p 11d 4f 3g | 8s 8p 7d 4f 3g ]
   2  Au bse_acvtz [ 13s 12p 11d 4f 3g | 8s 8p 7d 4f 3g ]
   3  Au bse_acvtz [ 13s 12p 11d 4f 3g | 8s 8p 7d 4f 3g ]
   4  Au bse_acvtz [ 13s 12p 11d 4f 3g | 8s 8p 7d 4f 3g ]
 
 Basis functions:
            1             2             3             4             5             6             7             8             9            10
    0    1Au1s         1Au2s         1Au3s         1Au4s         1Au5s         1Au6s         1Au7s         1Au8s         1Au1pz        1Au1py    
    1    1Au1px        1Au2pz        1Au2py        1Au2px        1Au3pz        1Au3py        1Au3px        1Au4pz        1Au4py        1Au4px    
    2    1Au5pz        1Au5py        1Au5px        1Au6pz        1Au6py        1Au6px        1Au7pz        1Au7py        1Au7px        1Au8pz    
    3    1Au8py        1Au8px        1Au1d-2       1Au1d-1       1Au1d0        1Au1d+1       1Au1d+2       1Au2d-2       1Au2d-1       1Au2d0    
    4    1Au2d+1       1Au2d+2       1Au3d-2       1Au3d-1       1Au3d0        1Au3d+1       1Au3d+2       1Au4d-2       1Au4d-1       1Au4d0    
    5    1Au4d+1       1Au4d+2       1Au5d-2       1Au5d-1       1Au5d0        1Au5d+1       1Au5d+2       1Au6d-2       1Au6d-1       1Au6d0    
    6    1Au6d+1       1Au6d+2       1Au7d-2       1Au7d-1       1Au7d0        1Au7d+1       1Au7d+2       1Au1f-3       1Au1f-2       1Au1f-1   
    7    1Au1f0        1Au1f+1       1Au1f+2       1Au1f+3       1Au2f-3       1Au2f-2       1Au2f-1       1Au2f0        1Au2f+1       1Au2f+2   
    8    1Au2f+3       1Au3f-3       1Au3f-2       1Au3f-1       1Au3f0        1Au3f+1       1Au3f+2       1Au3f+3       1Au4f-3       1Au4f-2   
    9    1Au4f-1       1Au4f0        1Au4f+1       1Au4f+2       1Au4f+3       1Au1g-4       1Au1g-3       1Au1g-2       1Au1g-1       1Au1g0    
   10    1Au1g+1       1Au1g+2       1Au1g+3       1Au1g+4       1Au2g-4       1Au2g-3       1Au2g-2       1Au2g-1       1Au2g0        1Au2g+1   
   11    1Au2g+2       1Au2g+3       1Au2g+4       1Au3g-4       1Au3g-3       1Au3g-2       1Au3g-1       1Au3g0        1Au3g+1       1Au3g+2   
   12    1Au3g+3       1Au3g+4       2Au1s         2Au2s         2Au3s         2Au4s         2Au5s         2Au6s         2Au7s         2Au8s     
   13    2Au1pz        2Au1py        2Au1px        2Au2pz        2Au2py        2Au2px        2Au3pz        2Au3py        2Au3px        2Au4pz    
   14    2Au4py        2Au4px        2Au5pz        2Au5py        2Au5px        2Au6pz        2Au6py        2Au6px        2Au7pz        2Au7py    
   15    2Au7px        2Au8pz        2Au8py        2Au8px        2Au1d-2       2Au1d-1       2Au1d0        2Au1d+1       2Au1d+2       2Au2d-2   
   16    2Au2d-1       2Au2d0        2Au2d+1       2Au2d+2       2Au3d-2       2Au3d-1       2Au3d0        2Au3d+1       2Au3d+2       2Au4d-2   
   17    2Au4d-1       2Au4d0        2Au4d+1       2Au4d+2       2Au5d-2       2Au5d-1       2Au5d0        2Au5d+1       2Au5d+2       2Au6d-2   
   18    2Au6d-1       2Au6d0        2Au6d+1       2Au6d+2       2Au7d-2       2Au7d-1       2Au7d0        2Au7d+1       2Au7d+2       2Au1f-3   
   19    2Au1f-2       2Au1f-1       2Au1f0        2Au1f+1       2Au1f+2       2Au1f+3       2Au2f-3       2Au2f-2       2Au2f-1       2Au2f0    
   20    2Au2f+1       2Au2f+2       2Au2f+3       2Au3f-3       2Au3f-2       2Au3f-1       2Au3f0        2Au3f+1       2Au3f+2       2Au3f+3   
   21    2Au4f-3       2Au4f-2       2Au4f-1       2Au4f0        2Au4f+1       2Au4f+2       2Au4f+3       2Au1g-4       2Au1g-3       2Au1g-2   
   22    2Au1g-1       2Au1g0        2Au1g+1       2Au1g+2       2Au1g+3       2Au1g+4       2Au2g-4       2Au2g-3       2Au2g-2       2Au2g-1   
   23    2Au2g0        2Au2g+1       2Au2g+2       2Au2g+3       2Au2g+4       2Au3g-4       2Au3g-3       2Au3g-2       2Au3g-1       2Au3g0    
   24    2Au3g+1       2Au3g+2       2Au3g+3       2Au3g+4       3Au1s         3Au2s         3Au3s         3Au4s         3Au5s         3Au6s     
   25    3Au7s         3Au8s         3Au1pz        3Au1py        3Au1px        3Au2pz        3Au2py        3Au2px        3Au3pz        3Au3py    
   26    3Au3px        3Au4pz        3Au4py        3Au4px        3Au5pz        3Au5py        3Au5px        3Au6pz        3Au6py        3Au6px    
   27    3Au7pz        3Au7py        3Au7px        3Au8pz        3Au8py        3Au8px        3Au1d-2       3Au1d-1       3Au1d0        3Au1d+1   
   28    3Au1d+2       3Au2d-2       3Au2d-1       3Au2d0        3Au2d+1       3Au2d+2       3Au3d-2       3Au3d-1       3Au3d0        3Au3d+1   
   29    3Au3d+2       3Au4d-2       3Au4d-1       3Au4d0        3Au4d+1       3Au4d+2       3Au5d-2       3Au5d-1       3Au5d0        3Au5d+1   
   30    3Au5d+2       3Au6d-2       3Au6d-1       3Au6d0        3Au6d+1       3Au6d+2       3Au7d-2       3Au7d-1       3Au7d0        3Au7d+1   
   31    3Au7d+2       3Au1f-3       3Au1f-2       3Au1f-1       3Au1f0        3Au1f+1       3Au1f+2       3Au1f+3       3Au2f-3       3Au2f-2   
   32    3Au2f-1       3Au2f0        3Au2f+1       3Au2f+2       3Au2f+3       3Au3f-3       3Au3f-2       3Au3f-1       3Au3f0        3Au3f+1   
   33    3Au3f+2       3Au3f+3       3Au4f-3       3Au4f-2       3Au4f-1       3Au4f0        3Au4f+1       3Au4f+2       3Au4f+3       3Au1g-4   
   34    3Au1g-3       3Au1g-2       3Au1g-1       3Au1g0        3Au1g+1       3Au1g+2       3Au1g+3       3Au1g+4       3Au2g-4       3Au2g-3   
   35    3Au2g-2       3Au2g-1       3Au2g0        3Au2g+1       3Au2g+2       3Au2g+3       3Au2g+4       3Au3g-4       3Au3g-3       3Au3g-2   
   36    3Au3g-1       3Au3g0        3Au3g+1       3Au3g+2       3Au3g+3       3Au3g+4       4Au1s         4Au2s         4Au3s         4Au4s     
   37    4Au5s         4Au6s         4Au7s         4Au8s         4Au1pz        4Au1py        4Au1px        4Au2pz        4Au2py        4Au2px    
   38    4Au3pz        4Au3py        4Au3px        4Au4pz        4Au4py        4Au4px        4Au5pz        4Au5py        4Au5px        4Au6pz    
   39    4Au6py        4Au6px        4Au7pz        4Au7py        4Au7px        4Au8pz        4Au8py        4Au8px        4Au1d-2       4Au1d-1   
   40    4Au1d0        4Au1d+1       4Au1d+2       4Au2d-2       4Au2d-1       4Au2d0        4Au2d+1       4Au2d+2       4Au3d-2       4Au3d-1   
   41    4Au3d0        4Au3d+1       4Au3d+2       4Au4d-2       4Au4d-1       4Au4d0        4Au4d+1       4Au4d+2       4Au5d-2       4Au5d-1   
   42    4Au5d0        4Au5d+1       4Au5d+2       4Au6d-2       4Au6d-1       4Au6d0        4Au6d+1       4Au6d+2       4Au7d-2       4Au7d-1   
   43    4Au7d0        4Au7d+1       4Au7d+2       4Au1f-3       4Au1f-2       4Au1f-1       4Au1f0        4Au1f+1       4Au1f+2       4Au1f+3   
   44    4Au2f-3       4Au2f-2       4Au2f-1       4Au2f0        4Au2f+1       4Au2f+2       4Au2f+3       4Au3f-3       4Au3f-2       4Au3f-1   
   45    4Au3f0        4Au3f+1       4Au3f+2       4Au3f+3       4Au4f-3       4Au4f-2       4Au4f-1       4Au4f0        4Au4f+1       4Au4f+2   
   46    4Au4f+3       4Au1g-4       4Au1g-3       4Au1g-2       4Au1g-1       4Au1g0        4Au1g+1       4Au1g+2       4Au1g+3       4Au1g+4   
   47    4Au2g-4       4Au2g-3       4Au2g-2       4Au2g-1       4Au2g0        4Au2g+1       4Au2g+2       4Au2g+3       4Au2g+4       4Au3g-4   
   48    4Au3g-3       4Au3g-2       4Au3g-1       4Au3g0        4Au3g+1       4Au3g+2       4Au3g+3       4Au3g+4   
 
 Maximum number of basis functions per shell:   35
 Total number of basis functions:    488
 
 
 Fitting basis set for the SCF calculation:
 
   1  Au def2-qzvpp-ri-jk [ 13s 12p 11d 9f 5g 3h 2i | 13s 11p 10d 8f 4g 3h 2i ]
   2  Au def2-qzvpp-ri-jk [ 13s 12p 11d 9f 5g 3h 2i | 13s 11p 10d 8f 4g 3h 2i ]
   3  Au def2-qzvpp-ri-jk [ 13s 12p 11d 9f 5g 3h 2i | 13s 11p 10d 8f 4g 3h 2i ]
   4  Au def2-qzvpp-ri-jk [ 13s 12p 11d 9f 5g 3h 2i | 13s 11p 10d 8f 4g 3h 2i ]
 
 Basis functions:
            1             2             3             4             5             6             7             8             9            10
    0    1Au1s         1Au2s         1Au3s         1Au4s         1Au5s         1Au6s         1Au7s         1Au8s         1Au9s         1Au10s    
    1    1Au11s        1Au12s        1Au13s        1Au1pz        1Au1py        1Au1px        1Au2pz        1Au2py        1Au2px        1Au3pz    
    2    1Au3py        1Au3px        1Au4pz        1Au4py        1Au4px        1Au5pz        1Au5py        1Au5px        1Au6pz        1Au6py    
    3    1Au6px        1Au7pz        1Au7py        1Au7px        1Au8pz        1Au8py        1Au8px        1Au9pz        1Au9py        1Au9px    
    4    1Au10pz       1Au10py       1Au10px       1Au11pz       1Au11py       1Au11px       1Au1d-2       1Au1d-1       1Au1d0        1Au1d+1   
    5    1Au1d+2       1Au2d-2       1Au2d-1       1Au2d0        1Au2d+1       1Au2d+2       1Au3d-2       1Au3d-1       1Au3d0        1Au3d+1   
    6    1Au3d+2       1Au4d-2       1Au4d-1       1Au4d0        1Au4d+1       1Au4d+2       1Au5d-2       1Au5d-1       1Au5d0        1Au5d+1   
    7    1Au5d+2       1Au6d-2       1Au6d-1       1Au6d0        1Au6d+1       1Au6d+2       1Au7d-2       1Au7d-1       1Au7d0        1Au7d+1   
    8    1Au7d+2       1Au8d-2       1Au8d-1       1Au8d0        1Au8d+1       1Au8d+2       1Au9d-2       1Au9d-1       1Au9d0        1Au9d+1   
    9    1Au9d+2       1Au10d-2      1Au10d-1      1Au10d0       1Au10d+1      1Au10d+2      1Au1f-3       1Au1f-2       1Au1f-1       1Au1f0    
   10    1Au1f+1       1Au1f+2       1Au1f+3       1Au2f-3       1Au2f-2       1Au2f-1       1Au2f0        1Au2f+1       1Au2f+2       1Au2f+3   
   11    1Au3f-3       1Au3f-2       1Au3f-1       1Au3f0        1Au3f+1       1Au3f+2       1Au3f+3       1Au4f-3       1Au4f-2       1Au4f-1   
   12    1Au4f0        1Au4f+1       1Au4f+2       1Au4f+3       1Au5f-3       1Au5f-2       1Au5f-1       1Au5f0        1Au5f+1       1Au5f+2   
   13    1Au5f+3       1Au6f-3       1Au6f-2       1Au6f-1       1Au6f0        1Au6f+1       1Au6f+2       1Au6f+3       1Au7f-3       1Au7f-2   
   14    1Au7f-1       1Au7f0        1Au7f+1       1Au7f+2       1Au7f+3       1Au8f-3       1Au8f-2       1Au8f-1       1Au8f0        1Au8f+1   
[...]
   86    3Au4f+2       3Au4f+3       3Au5f-3       3Au5f-2       3Au5f-1       3Au5f0        3Au5f+1       3Au5f+2       3Au5f+3       3Au6f-3   
   87    3Au6f-2       3Au6f-1       3Au6f0        3Au6f+1       3Au6f+2       3Au6f+3       3Au7f-3       3Au7f-2       3Au7f-1       3Au7f0    
   88    3Au7f+1       3Au7f+2       3Au7f+3       3Au8f-3       3Au8f-2       3Au8f-1       3Au8f0        3Au8f+1       3Au8f+2       3Au8f+3   
   89    3Au9f-3       3Au9f-2       3Au9f-1       3Au9f0        3Au9f+1       3Au9f+2       3Au9f+3       3Au10f-3      3Au10f-2      3Au10f-1  
   90    3Au10f0       3Au10f+1      3Au10f+2      3Au10f+3      3Au1g-4       3Au1g-3       3Au1g-2       3Au1g-1       3Au1g0        3Au1g+1   
   91    3Au1g+2       3Au1g+3       3Au1g+4       3Au2g-4       3Au2g-3       3Au2g-2       3Au2g-1       3Au2g0        3Au2g+1       3Au2g+2   
   92    3Au2g+3       3Au2g+4       3Au3g-4       3Au3g-3       3Au3g-2       3Au3g-1       3Au3g0        3Au3g+1       3Au3g+2       3Au3g+3   
   93    3Au3g+4       3Au4g-4       3Au4g-3       3Au4g-2       3Au4g-1       3Au4g0        3Au4g+1       3Au4g+2       3Au4g+3       3Au4g+4   
   94    3Au5g-4       3Au5g-3       3Au5g-2       3Au5g-1       3Au5g0        3Au5g+1       3Au5g+2       3Au5g+3       3Au5g+4       3Au6g-4   
   95    3Au6g-3       3Au6g-2       3Au6g-1       3Au6g0        3Au6g+1       3Au6g+2       3Au6g+3       3Au6g+4       3Au7g-4       3Au7g-3   
   96    3Au7g-2       3Au7g-1       3Au7g0        3Au7g+1       3Au7g+2       3Au7g+3       3Au7g+4       3Au8g-4       3Au8g-3       3Au8g-2   
   97    3Au8g-1       3Au8g0        3Au8g+1       3Au8g+2       3Au8g+3       3Au8g+4       3Au1h-5       3Au1h-4       3Au1h-3       3Au1h-2   
   98    3Au1h-1       3Au1h0        3Au1h+1       3Au1h+2       3Au1h+3       3Au1h+4       3Au1h+5       3Au2h-5       3Au2h-4       3Au2h-3   
   99    3Au2h-2       3Au2h-1       3Au2h0        3Au2h+1       3Au2h+2       3Au2h+3       3Au2h+4       3Au2h+5       3Au3h-5       3Au3h-4   
  100    3Au3h-3       3Au3h-2       3Au3h-1       3Au3h0        3Au3h+1       3Au3h+2       3Au3h+3       3Au3h+4       3Au3h+5       3Au4h-5   
  101    3Au4h-4       3Au4h-3       3Au4h-2       3Au4h-1       3Au4h0        3Au4h+1       3Au4h+2       3Au4h+3       3Au4h+4       3Au4h+5   
  102    3Au5h-5       3Au5h-4       3Au5h-3       3Au5h-2       3Au5h-1       3Au5h0        3Au5h+1       3Au5h+2       3Au5h+3       3Au5h+4   
  103    3Au5h+5       3Au1i-6       3Au1i-5       3Au1i-4       3Au1i-3       3Au1i-2       3Au1i-1       3Au1i0        3Au1i+1       3Au1i+2   
  104    3Au1i+3       3Au1i+4       3Au1i+5       3Au1i+6       3Au2i-6       3Au2i-5       3Au2i-4       3Au2i-3       3Au2i-2       3Au2i-1   
  105    3Au2i0        3Au2i+1       3Au2i+2       3Au2i+3       3Au2i+4       3Au2i+5       3Au2i+6       3Au3i-6       3Au3i-5       3Au3i-4   
  106    3Au3i-3       3Au3i-2       3Au3i-1       3Au3i0        3Au3i+1       3Au3i+2       3Au3i+3       3Au3i+4       3Au3i+5       3Au3i+6   
  107    3Au4i-6       3Au4i-5       3Au4i-4       3Au4i-3       3Au4i-2       3Au4i-1       3Au4i0        3Au4i+1       3Au4i+2       3Au4i+3   
  108    3Au4i+4       3Au4i+5       3Au4i+6       4Au1s         4Au2s         4Au3s         4Au4s         4Au5s         4Au6s         4Au7s     
  109    4Au8s         4Au9s         4Au10s        4Au11s        4Au12s        4Au13s        4Au1pz        4Au1py        4Au1px        4Au2pz    
  110    4Au2py        4Au2px        4Au3pz        4Au3py        4Au3px        4Au4pz        4Au4py        4Au4px        4Au5pz        4Au5py    
  111    4Au5px        4Au6pz        4Au6py        4Au6px        4Au7pz        4Au7py        4Au7px        4Au8pz        4Au8py        4Au8px    
  112    4Au9pz        4Au9py        4Au9px        4Au10pz       4Au10py       4Au10px       4Au11pz       4Au11py       4Au11px       4Au12pz   
  113    4Au12py       4Au12px       4Au13pz       4Au13py       4Au13px       4Au1d-2       4Au1d-1       4Au1d0        4Au1d+1       4Au1d+2   
  114    4Au2d-2       4Au2d-1       4Au2d0        4Au2d+1       4Au2d+2       4Au3d-2       4Au3d-1       4Au3d0        4Au3d+1       4Au3d+2   
  115    4Au4d-2       4Au4d-1       4Au4d0        4Au4d+1       4Au4d+2       4Au5d-2       4Au5d-1       4Au5d0        4Au5d+1       4Au5d+2   
  116    4Au6d-2       4Au6d-1       4Au6d0        4Au6d+1       4Au6d+2       4Au7d-2       4Au7d-1       4Au7d0        4Au7d+1       4Au7d+2   
  117    4Au8d-2       4Au8d-1       4Au8d0        4Au8d+1       4Au8d+2       4Au9d-2       4Au9d-1       4Au9d0        4Au9d+1       4Au9d+2   
  118    4Au10d-2      4Au10d-1      4Au10d0       4Au10d+1      4Au10d+2      4Au11d-2      4Au11d-1      4Au11d0       4Au11d+1      4Au11d+2  
  119    4Au12d-2      4Au12d-1      4Au12d0       4Au12d+1      4Au12d+2      4Au1f-3       4Au1f-2       4Au1f-1       4Au1f0        4Au1f+1   
  120    4Au1f+2       4Au1f+3       4Au2f-3       4Au2f-2       4Au2f-1       4Au2f0        4Au2f+1       4Au2f+2       4Au2f+3       4Au3f-3   
  121    4Au3f-2       4Au3f-1       4Au3f0        4Au3f+1       4Au3f+2       4Au3f+3       4Au4f-3       4Au4f-2       4Au4f-1       4Au4f0    
  122    4Au4f+1       4Au4f+2       4Au4f+3       4Au5f-3       4Au5f-2       4Au5f-1       4Au5f0        4Au5f+1       4Au5f+2       4Au5f+3   
  123    4Au6f-3       4Au6f-2       4Au6f-1       4Au6f0        4Au6f+1       4Au6f+2       4Au6f+3       4Au7f-3       4Au7f-2       4Au7f-1   
  124    4Au7f0        4Au7f+1       4Au7f+2       4Au7f+3       4Au8f-3       4Au8f-2       4Au8f-1       4Au8f0        4Au8f+1       4Au8f+2   
  125    4Au8f+3       4Au9f-3       4Au9f-2       4Au9f-1       4Au9f0        4Au9f+1       4Au9f+2       4Au9f+3       4Au10f-3      4Au10f-2  
  126    4Au10f-1      4Au10f0       4Au10f+1      4Au10f+2      4Au10f+3      4Au1g-4       4Au1g-3       4Au1g-2       4Au1g-1       4Au1g0    
  127    4Au1g+1       4Au1g+2       4Au1g+3       4Au1g+4       4Au2g-4       4Au2g-3       4Au2g-2       4Au2g-1       4Au2g0        4Au2g+1   
  128    4Au2g+2       4Au2g+3       4Au2g+4       4Au3g-4       4Au3g-3       4Au3g-2       4Au3g-1       4Au3g0        4Au3g+1       4Au3g+2   
  129    4Au3g+3       4Au3g+4       4Au4g-4       4Au4g-3       4Au4g-2       4Au4g-1       4Au4g0        4Au4g+1       4Au4g+2       4Au4g+3   
  130    4Au4g+4       4Au5g-4       4Au5g-3       4Au5g-2       4Au5g-1       4Au5g0        4Au5g+1       4Au5g+2       4Au5g+3       4Au5g+4   
  131    4Au6g-4       4Au6g-3       4Au6g-2       4Au6g-1       4Au6g0        4Au6g+1       4Au6g+2       4Au6g+3       4Au6g+4       4Au7g-4   
  132    4Au7g-3       4Au7g-2       4Au7g-1       4Au7g0        4Au7g+1       4Au7g+2       4Au7g+3       4Au7g+4       4Au8g-4       4Au8g-3   
  133    4Au8g-2       4Au8g-1       4Au8g0        4Au8g+1       4Au8g+2       4Au8g+3       4Au8g+4       4Au1h-5       4Au1h-4       4Au1h-3   
  134    4Au1h-2       4Au1h-1       4Au1h0        4Au1h+1       4Au1h+2       4Au1h+3       4Au1h+4       4Au1h+5       4Au2h-5       4Au2h-4   
  135    4Au2h-3       4Au2h-2       4Au2h-1       4Au2h0        4Au2h+1       4Au2h+2       4Au2h+3       4Au2h+4       4Au2h+5       4Au3h-5   
  136    4Au3h-4       4Au3h-3       4Au3h-2       4Au3h-1       4Au3h0        4Au3h+1       4Au3h+2       4Au3h+3       4Au3h+4       4Au3h+5   
  137    4Au4h-5       4Au4h-4       4Au4h-3       4Au4h-2       4Au4h-1       4Au4h0        4Au4h+1       4Au4h+2       4Au4h+3       4Au4h+4   
  138    4Au4h+5       4Au5h-5       4Au5h-4       4Au5h-3       4Au5h-2       4Au5h-1       4Au5h0        4Au5h+1       4Au5h+2       4Au5h+3   
  139    4Au5h+4       4Au5h+5       4Au1i-6       4Au1i-5       4Au1i-4       4Au1i-3       4Au1i-2       4Au1i-1       4Au1i0        4Au1i+1   
  140    4Au1i+2       4Au1i+3       4Au1i+4       4Au1i+5       4Au1i+6       4Au2i-6       4Au2i-5       4Au2i-4       4Au2i-3       4Au2i-2   
  141    4Au2i-1       4Au2i0        4Au2i+1       4Au2i+2       4Au2i+3       4Au2i+4       4Au2i+5       4Au2i+6       4Au3i-6       4Au3i-5   
  142    4Au3i-4       4Au3i-3       4Au3i-2       4Au3i-1       4Au3i0        4Au3i+1       4Au3i+2       4Au3i+3       4Au3i+4       4Au3i+5   
  143    4Au3i+6       4Au4i-6       4Au4i-5       4Au4i-4       4Au4i-3       4Au4i-2       4Au4i-1       4Au4i0        4Au4i+1       4Au4i+2   
  144    4Au4i+3       4Au4i+4       4Au4i+5       4Au4i+6   
 
 Maximum number of basis functions per shell:   72
 Total number of basis functions:   1444
 
 
 Old basis set for SCF restart
 
   1  Au def2-svp [ 7s 6p 5d 1f | 6s 3p 2d 1f ]
   2  Au def2-svp [ 7s 6p 5d 1f | 6s 3p 2d 1f ]
   3  Au def2-svp [ 7s 6p 5d 1f | 6s 3p 2d 1f ]
   4  Au def2-svp [ 7s 6p 5d 1f | 6s 3p 2d 1f ]
 
 Basis functions:
            1             2             3             4             5             6             7             8             9            10
    0    1Au1s         1Au2s         1Au3s         1Au4s         1Au5s         1Au6s         1Au1pz        1Au1py        1Au1px        1Au2pz    
    1    1Au2py        1Au2px        1Au3pz        1Au3py        1Au3px        1Au1d-2       1Au1d-1       1Au1d0        1Au1d+1       1Au1d+2   
    2    1Au2d-2       1Au2d-1       1Au2d0        1Au2d+1       1Au2d+2       1Au1f-3       1Au1f-2       1Au1f-1       1Au1f0        1Au1f+1   
    3    1Au1f+2       1Au1f+3       2Au1s         2Au2s         2Au3s         2Au4s         2Au5s         2Au6s         2Au1pz        2Au1py    
    4    2Au1px        2Au2pz        2Au2py        2Au2px        2Au3pz        2Au3py        2Au3px        2Au1d-2       2Au1d-1       2Au1d0    
    5    2Au1d+1       2Au1d+2       2Au2d-2       2Au2d-1       2Au2d0        2Au2d+1       2Au2d+2       2Au1f-3       2Au1f-2       2Au1f-1   
    6    2Au1f0        2Au1f+1       2Au1f+2       2Au1f+3       3Au1s         3Au2s         3Au3s         3Au4s         3Au5s         3Au6s     
    7    3Au1pz        3Au1py        3Au1px        3Au2pz        3Au2py        3Au2px        3Au3pz        3Au3py        3Au3px        3Au1d-2   
    8    3Au1d-1       3Au1d0        3Au1d+1       3Au1d+2       3Au2d-2       3Au2d-1       3Au2d0        3Au2d+1       3Au2d+2       3Au1f-3   
    9    3Au1f-2       3Au1f-1       3Au1f0        3Au1f+1       3Au1f+2       3Au1f+3       4Au1s         4Au2s         4Au3s         4Au4s     
   10    4Au5s         4Au6s         4Au1pz        4Au1py        4Au1px        4Au2pz        4Au2py        4Au2px        4Au3pz        4Au3py    
   11    4Au3px        4Au1d-2       4Au1d-1       4Au1d0        4Au1d+1       4Au1d+2       4Au2d-2       4Au2d-1       4Au2d0        4Au2d+1   
   12    4Au2d+2       4Au1f-3       4Au1f-2       4Au1f-1       4Au1f0        4Au1f+1       4Au1f+2       4Au1f+3   
 
 Maximum number of basis functions per shell:   72
 Total number of basis functions:    128
 
 
 Effective core potentials:
 
   1  Au mcdhf-ecp-60        
   2  Au mcdhf-ecp-60        
   3  Au mcdhf-ecp-60        
   4  Au mcdhf-ecp-60        
 
 Calculation of prescreening integrals...
 CPU time [min]:     7.706                   Wall time [min]:     0.231
 
 Calculation of two-center Coulomb integrals...
   1% done.
  14% done.
  25% done.
  39% done.
  51% done.
  62% done.
  77% done.
  93% done.
 100% done.
 CPU time [min]:     7.730                   Wall time [min]:     0.232
 
 Cholesky decomposition of the inverse of the two-center matrix...
 CPU time [min]:     7.772                   Wall time [min]:     0.233
 
 Calculation of three-center Coulomb integrals...
   2% done.
  15% done.
  27% done.
  41% done.
  56% done.
  67% done.
  79% done.
 100% done.
 CPU time [min]:    11.697                   Wall time [min]:     0.343

 ************************ 2023-02-04 10:31:01 *************************
 Executing drpa...

 Three-index integral transformation
 
 Allocation of 220.0 Gbytes of memory...
 Minimal memory requirement for (ai|P) and (ij|P) integrals:       55.5 MB

 Calculating (ai|P) and (ij|P) integrals...
 Number of integral batches:    1
 Occupied indices per batch:   38
 
 Transforming integrals of batch 1...
 CPU time [min]:    30.784                   Wall time [min]:     1.090
 

 Constructing MP2 natural orbitals...

 Threshold for individual occupations:     1.0000E-05
 Corresponding cummulative occupation threshold:  0.99984647  0.99983794
 Total number of virtual orbitals:     450
 Number of virtual natural orbitals:   357  (79.33%)
 
 Transforming (ai|P) integrals to the NO basis...
 Number of integral batches:    1
 Occupied indices per batch:   38
 
 Transforming integrals of batch 1 to the NO basis...
 CPU time [min]:    45.519                   Wall time [min]:     1.643

 Calculating (ab|P) integrals...
 Minimal memory requirement for (ab|P) integrals:       33.2 MB
 Number of integral batches:    1
 Virtual indices per batch:   357

 Transforming integrals of batch 1...
 CPU time [min]:    50.176                   Wall time [min]:     2.052
 

 Constructing natural auxiliary functions...

 Threshold for eigenvalues:     1.0000E-02
 Total number of auxiliary functions:    1444
 Number of natural auxiliary functions:  1096  (75.90%)

 Transforming (ai|P) and (ij|P) integrals to the NAF basis...
 Number of integral batches:    1
 Occupied indices per batch:   38
 
 Transforming integrals of batch 1 to the NAF basis...
 CPU time [min]:    65.181                   Wall time [min]:     2.609

 Transforming (ab|P) integrals to the NAF basis...
 Number of integral batches:    1
 Virtual indices per batch:   357

 Transforming integrals of batch 1 to the NAF basis...
 CPU time [min]:    65.552                   Wall time [min]:     2.742
 

 Results in full basis:
 
 
 Reference energy [au]:                      -539.156195566497
 DF-MP2 singlet pair energy [au]:              -2.096581369058
 DF-MP2 triplet pair energy [au]:              -0.992042408193
 DF-SCS-MP2 correlation energy [au]:           -2.846578445600
 DF-SCS-MP2 energy [au]:                     -542.002774012097
 DF-SOS-MP2 correlation energy [au]:           -2.725555779775
 DF-SOS-MP2 energy [au]:                     -541.881751346271
 DF-MP2 correlation energy [au]:               -3.088623777251
 DF-MP2 energy [au]:                         -542.244819343747

 Results in FNO basis:
 
 
 Reference energy [au]:                      -539.156195566497
 DF-MP2 singlet pair energy [au]:              -2.093437967798
 DF-MP2 triplet pair energy [au]:              -0.991540213223
 DF-SCS-MP2 correlation energy [au]:           -2.842638965765
 DF-SCS-MP2 energy [au]:                     -541.998834532262
 DF-SOS-MP2 correlation energy [au]:           -2.721469358137
 DF-SOS-MP2 energy [au]:                     -541.877664924634
 DF-MP2 correlation energy [au]:               -3.084978181021
 DF-MP2 energy [au]:                         -542.241173747518

 Results in NAF basis:
 
 
 Reference energy [au]:                      -539.156195566497
 DF-MP2 singlet pair energy [au]:              -2.093403356465
 DF-MP2 triplet pair energy [au]:              -0.991550235876
 DF-SCS-MP2 correlation energy [au]:           -2.842600773050
 DF-SCS-MP2 energy [au]:                     -541.998796339547
 DF-SOS-MP2 correlation energy [au]:           -2.721424363405
 DF-SOS-MP2 energy [au]:                     -541.877619929902
 DF-MP2 correlation energy [au]:               -3.084953592341
 DF-MP2 energy [au]:                         -542.241149158838

 ************************ 2023-02-04 10:33:46 *************************
 Executing ccsd...

 Allocation of 220.0 Gbytes of memory...

 Direct DF-CCSD(T) calculation
 
 Convergence criterion:  1.0E-06
 
 Number of occupied/virtual/auxiliary orbitals:    38   357  1096
   8837.08 MB is the minimal memory requirement for (T)
   3475.59 MB is the minimal memory requirement for CCSD
 
 Reference energy [au]:            -539.156195566497
 T1 contribution [au]:                0.000000000000
 Same spin MP2 energy [au]:          -0.991545200168
 Opposite spin MP2 energy [au]:      -2.093420629022
 MP2 correlation energy [au]:        -3.084965829190
 Total MP2 energy [au]:            -542.241161395687
 MP2 correction [au]:                -0.003657948060
 
 
 CPU time [min]:     3.949                   Wall time [min]:     1.183
 
 Starting CCSD iterations...
 
                     Residual norm          Energy
 Iteration  1        0.544286954544     -541.894608938692
 Iteration  2        0.191612962900     -542.000303141300
 Iteration  3        0.042223690197     -542.020186742903
 Iteration  4        0.024189544520     -542.017611793085
 Iteration  5        0.011008028264     -542.014170043200
 Iteration  6        0.006468607350     -542.014389478330
 Iteration  7        0.003726989929     -542.015421982574
 Iteration  8        0.002042044908     -542.015427067461
 Iteration  9        0.001193966426     -542.015299936211
 Iteration 10        0.000566722346     -542.015314649709
 Iteration 11        0.000299222658     -542.015302983926
 Iteration 12        0.000139550270     -542.015297637043
 Iteration 13        0.000068877681     -542.015301843806
 Iteration 14        0.000037094994     -542.015303588386
 Iteration 15        0.000020708422     -542.015302126661
 Iteration 16        0.000011350213     -542.015301659195
 Iteration 17        0.000005987058     -542.015302058508
 
 CCSD iteration has converged in 17 steps.
    65618.24 MB memory was utilized by CCSD
 
 T1 diagnostic:      2.104E-02            D1 diagnostic:      1.094E-01
 
 T1 contribution [au]:                                  0.000000000000
 PPL energy contribution [au]:                          0.440736791005
 Scaled PPL energy contribution [au]:                   0.441215696983

 OS-PPL energy contribution [au]:                       0.328387250254
 Scaled OS-PPL energy contribution [au]:                0.328839010963
 SS-PPL energy contribution [au]:                       0.112349540751
 Scaled SS-PPL energy contribution [au]:                0.112401655180

 Opposite spin CCSD energy [au]:                       -2.021323742222
 Same spin CCSD energy [au]:                           -0.837795513010
 CCSD correlation energy [au]:                         -2.859119255233
 CCSD correlation energy + MP2 correction [au]:        -2.862777203293
 CCSD correlation energy + MP2 + PPL corr. [au]:       -2.862298297315
 Total CCSD energy [au]:                             -542.015314821729
 Total CCSD energy + MP2 correction [au]:            -542.018972769789
 Total CCSD energy + MP2 + PPL corr. [au]:           -542.018493863812
 
 CPU time [min]:   792.924                   Wall time [min]:    29.967
 
 Calculation of (T) correction...
 
 
    21523.55 MB memory is utilized for (T)

 0%       25%       50%       75%       100%
 |---------|---------|---------|---------| 
 
 (T) correction [au]:                                    -0.132386475848
 (T*) correction [au]:                                   -0.132543450959
 (T+) correction [au]:                                   -0.132518282807
 CCSD(T) correlation energy [au]:                        -2.991505731081
 CCSD(T) correlation energy + MP2 correction [au]:       -2.995163679141
 CCSD(T+) correlation en. + MP2 + PPL corr. [au]:        -2.994816580123
 Total CCSD(T) energy [au]:                            -542.147701297578
 Total CCSD(T) energy + MP2 correction [au]:           -542.151359245638
 Total CCSD(T+) energy + MP2 + PPL corr. [au]:         -542.151012146619
 
 CPU time [min]:  3221.980                   Wall time [min]:    98.738
 
 ************************ 2023-02-04 12:12:31 *************************
                      Normal termination of mrcc.
 **********************************************************************
