 vasp.6.3.0 20Jan22 (build Apr  1 2022 16:44:48) complex                         
 executed on        HPECrayEX_GCC date 2023.01.09  23:33:40
 running  768 mpi-ranks, with    1 threads/rank
 distrk:  each k-point on  384 cores,    2 groups
 distr:  one band on NCORE=   4 cores,   96 groups


--------------------------------------------------------------------------------------------------------


 INCAR:
   SYSTEM = MgO-rocksalt
   ISMEAR = 0
   SIGMA = 0.05
   EDIFF = 1E-6
   ALGO = ALL
   ISTART = 0
   IBRION = -1
   NSW = 0
   ISYM = 2
   METAGGA = SCAN
   LUSE_VDW = .TRUE.
   BPARAM = 15.7
   CPARAM = 0.0093
   ENCUT = 520
   PREC = Accurate
   LASPH = .TRUE.
   LREAL = Auto
   ISPIN = 1
   NELM = 200
   NELMIN = 8
   NCORE = 4
   KPAR = 2
   LWAVE = .FALSE.
   LCHARG = .FALSE.

 POTCAR:    PAW_PBE Ag 02Apr2005                  
 -----------------------------------------------------------------------------
|                                                                             |
|               ----> ADVICE to this user running VASP <----                  |
|                                                                             |
|     You have switched on vdW-DFT.                                           |
|     This routine was written and supplied by Jiri Klimes. We recommend      |
|     that you carefully read and cite the following publications:            |
|       J. Klimes, D.R. Bowler, A. Michelides                                 |
|          J. Phys.: Cond Matt. 22 022201 (2010)                              |
|       J. Klimes, D.R. Bowler, A. Michelides                                 |
|          Phys. Rev. B. 83, 195131 (2011)                                    |
|     and references therein.                                                 |
|                                                                             |
 -----------------------------------------------------------------------------

 POTCAR:    PAW_PBE Ag 02Apr2005                  
   SHA256 =  6550cfa3543261e132c169e1b98a529204624d72be14e2da2e0242bcb74a174d Ag/POTCAR             
   COPYR  = (c) Copyright 02Apr2005 Georg Kresse                                                    
   COPYR  = This file is part of the software VASP. Any use, copying, and all other rights are regul
   COPYR  = If you do not have a valid VASP license, you may not use, copy or distribute this file. 
   VRHFIN =Ag : s1 d10                                                                              
   LEXCH  = PE                                                                                      
   EATOM  =  1037.2675 eV,   76.2370 Ry                                                             
                                                                                                    
   TITEL  = PAW_PBE Ag 02Apr2005                                                                    
   LULTRA =        F    use ultrasoft PP ?                                                          
   IUNSCR =        1    unscreen: 0-lin 1-nonlin 2-no                                               
   RPACOR =    2.000    partial core radius                                                         
   POMASS =  107.868; ZVAL   =   11.000    mass and valenz                                          
   RCORE  =    2.500    outmost cutoff radius                                                       
   RWIGS  =    2.840; RWIGS  =    1.503    wigner-seitz radius (au A)                               
   ENMAX  =  249.844; ENMIN  =  187.383 eV                                                          
   ICORE  =        3    local potential                                                             
   LCOR   =        T    correct aug charges                                                         
   LPAW   =        T    paw PP                                                                      
   EAUG   =  412.496                                                                                
   DEXC   =    0.000                                                                                
   RMAX   =    2.560    core radius for proj-oper                                                   
   RAUG   =    1.300    factor for augmentation sphere                                              
   RDEP   =    2.576    radius for radial grids                                                     
   RDEPT  =    2.072    core radius for aug-charge                                                  
                                                                                                    
   Atomic configuration                                                                             
   12 entries                                                                                       
     n  l   j            E        occ.                                                              
     1  0  0.50    -25324.9161   2.0000                                                             
     2  0  0.50     -3728.5341   2.0000                                                             
     2  1  1.50     -3344.0404   6.0000                                                             
     3  0  0.50      -683.5581   2.0000                                                             
     3  1  1.50      -557.3225   6.0000                                                             
     3  2  2.50      -358.3853  10.0000                                                             
     4  0  0.50       -95.0341   2.0000                                                             
     4  1  1.50       -58.5511   6.0000                                                             
     4  2  2.50        -7.4440  10.0000                                                             
     5  0  0.50        -4.4045   1.0000                                                             
     5  1  0.50        -1.3606   0.0000                                                             
     4  3  2.50        -1.3606   0.0000                                                             
   Description                                                                                      
     l       E           TYP  RCUT    TYP  RCUT                                                     
     2     -7.4439781     23  2.400                                                                 
     2     -8.8045607     23  2.400                                                                 
     0     -4.4044681     23  2.400                                                                 
     0      1.9520038     23  2.400                                                                 
     1     -1.3605826     23  2.500                                                                 
     1     27.2116520     23  2.500                                                                 
     3     -4.0817478     23  2.400                                                                 
  local pseudopotential read in
  partial core-charges read in
  partial kinetic energy density read in
  atomic valenz-charges read in
  non local Contribution for L=           2  read in
    real space projection operators read in
  non local Contribution for L=           2  read in
    real space projection operators read in
  non local Contribution for L=           0  read in
    real space projection operators read in
  non local Contribution for L=           0  read in
    real space projection operators read in
  non local Contribution for L=           1  read in
    real space projection operators read in
  non local Contribution for L=           1  read in
    real space projection operators read in
    PAW grid and wavefunctions read in

   number of l-projection  operators is LMAX  =           6
   number of lm-projection operators is LMMAX =          18

 -----------------------------------------------------------------------------
|                                                                             |
|               ----> ADVICE to this user running VASP <----                  |
|                                                                             |
|     You have a (more or less) 'small supercell' and for smaller cells       |
|     it is recommended to use the reciprocal-space projection scheme!        |
|     The real-space optimization is not efficient for small cells and it     |
|     is also less accurate ...                                               |
|     Therefore, set LREAL=.FALSE. in the INCAR file.                         |
|                                                                             |
 -----------------------------------------------------------------------------

 Optimization of the real space projectors (new method)

 maximal supplied QI-value         = 15.12
 optimisation between [QCUT,QGAM] = [ 11.64, 23.28] = [ 37.95,151.78] Ry 
 Optimized for a Real-space Cutoff    1.45 Angstroem

   l    n(q)    QCUT    max X(q) W(low)/X(q) W(high)/X(q)  e(spline) 
   2      9    11.641    53.897    0.22E-03    0.42E-04    0.28E-06
   2      9    11.641    52.416    0.23E-03    0.44E-04    0.29E-06
   0     10    11.641   122.045    0.51E-04    0.25E-04    0.16E-06
   0     10    11.641    73.629    0.49E-04    0.24E-04    0.16E-06
   1     10    11.641    15.255    0.99E-04    0.55E-04    0.11E-06
   1     10    11.641     9.562    0.81E-04    0.47E-04    0.95E-07
  PAW_PBE Ag 02Apr2005                  :
 energy of atom  1       EATOM=-1037.2675
 kinetic energy error for atom=    0.0047 (will be added to EATOM!!)


 POSCAR: Ag Mg  O
  positions in direct lattice
  No initial velocities read in

 METAGGA = SCAN     LMAXTAU =  6    LMIXTAU =  F

 exchange correlation table for  LEXCH =        8
   RHO(1)=    0.500       N(1)  =     2000
   RHO(2)=  100.500       N(2)  =     4000



--------------------------------------------------------------------------------------------------------


 ion  position               nearest neighbor table
   1  0.400  0.429  0.610-   2 2.60   4 3.42
   2  0.400  0.512  0.697-   1 2.60   4 2.64   3 2.77
   3  0.401  0.641  0.713-   4 2.63   2 2.77
   4  0.400  0.590  0.604-   3 2.63   2 2.64   1 3.42

  LATTYP: Found a simple tetragonal cell.
 ALAT       =    21.1388521970
 C/A-ratio  =     1.0461251639
  
  Lattice vectors:
  
 A1 = (  21.1388521970,   0.0000000000,   0.0000000000)
 A2 = (   0.0000000000,  21.1388521970,   0.0000000000)
 A3 = (   0.0000000000,   0.0000000000,  22.1138852197)


Analysis of symmetry for initial positions (statically):
=====================================================================
 Subroutine PRICEL returns:
 Original cell was already a primitive cell.
 

 Routine SETGRP: Setting up the symmetry group for a 
 simple tetragonal supercell.


 Subroutine GETGRP returns: Found  1 space group operations
 (whereof  1 operations were pure point group operations)
 out of a pool of 16 trial point group operations.


The static configuration has the point symmetry C_1 .


Analysis of symmetry for dynamics (positions and initial velocities):
=====================================================================
 Subroutine PRICEL returns:
 Original cell was already a primitive cell.
 

 Routine SETGRP: Setting up the symmetry group for a 
 simple tetragonal supercell.


 Subroutine GETGRP returns: Found  1 space group operations
 (whereof  1 operations were pure point group operations)
 out of a pool of 16 trial point group operations.


The dynamic configuration has the point symmetry C_1 .


Analysis of constrained symmetry for selective dynamics:
=====================================================================
 Subroutine PRICEL returns:
 Original cell was already a primitive cell.
 

 Routine SETGRP: Setting up the symmetry group for a 
 simple tetragonal supercell.


 Subroutine GETGRP returns: Found  1 space group operations
 (whereof  1 operations were pure point group operations)
 out of a pool of 16 trial point group operations.


The constrained configuration has the point symmetry C_1 .


 Subroutine INISYM returns: Found  1 space group operations
 (whereof  1 operations are pure point group operations),
 and found     1 'primitive' translations


----------------------------------------------------------------------------------------

                                     Primitive cell                                     

  volume of cell :    9881.6133

  direct lattice vectors                    reciprocal lattice vectors
    21.138852197  0.000000000  0.000000000     0.047306258  0.000000000  0.000000000
     0.000000000 21.138852197  0.000000000     0.000000000  0.047306258  0.000000000
     0.000000000  0.000000000 22.113885220     0.000000000  0.000000000  0.045220457

  length of vectors
    21.138852197 21.138852197 22.113885220     0.047306258  0.047306258  0.045220457

  position of ions in fractional coordinates (direct lattice)
     0.400075541  0.428539559  0.610367047
     0.400239325  0.511504721  0.697317580
     0.400574317  0.641329452  0.712924298
     0.400203530  0.589975707  0.604409927

  ion indices of the primitive-cell ions
   primitive index   ion index
                 1           1
                 2           2
                 3           3
                 4           4

----------------------------------------------------------------------------------------



 KPOINTS: KPOINTS created by Atomic Simulation Env

Automatic generation of k-mesh.
 Grid dimensions read from file:
 generate k-points for:    1    1    1

 Generating k-lattice:

  Cartesian coordinates                     Fractional coordinates (reciprocal lattice)
     0.047306258  0.000000000  0.000000000     1.000000000  0.000000000  0.000000000
     0.000000000  0.047306258  0.000000000     0.000000000  1.000000000  0.000000000
     0.000000000  0.000000000  0.045220457     0.000000000  0.000000000  1.000000000

  Length of vectors
     0.047306258  0.047306258  0.045220457

  Shift w.r.t. Gamma in fractional coordinates (k-lattice)
     0.000000000  0.000000000  0.000000000

 
 Subroutine IBZKPT returns following result:
 ===========================================
 
 Found      1 irreducible k-points:
 
 Following reciprocal coordinates:
            Coordinates               Weight
  0.000000  0.000000  0.000000      1.000000
 
 Following cartesian coordinates:
            Coordinates               Weight
  0.000000  0.000000  0.000000      1.000000
 


--------------------------------------------------------------------------------------------------------




 Dimension of arrays:
   k-points           NKPTS =      1   k-points in BZ     NKDIM =      1   number of bands    NBANDS=     96
   number of dos      NEDOS =    301   number of ions     NIONS =      4
   non local maximal  LDIM  =      6   non local SUM 2l+1 LMDIM =     18
   total plane-waves  NPLWV = ******
   max r-space proj   IRMAX =   5559   max aug-charges    IRDMAX=  21597
   dimension x,y,z NGX =   160 NGY =  160 NGZ =  168
   dimension x,y,z NGXF=   320 NGYF=  320 NGZF=  336
   support grid    NGXF=   320 NGYF=  320 NGZF=  336
   ions per type =               4
   NGX,Y,Z   is equivalent  to a cutoff of  12.58, 12.58, 12.63 a.u.
   NGXF,Y,Z  is equivalent  to a cutoff of  25.17, 25.17, 25.26 a.u.

 SYSTEM =  MgO-rocksalt                            
 POSCAR =  Ag Mg  O                                

 Startparameter for this run:
   NWRITE =      2    write-flag & timer
   PREC   = accura    normal or accurate (medium, high low for compatibility)
   ISTART =      0    job   : 0-new  1-cont  2-samecut
   ICHARG =      2    charge: 1-file 2-atom 10-const
   ISPIN  =      1    spin polarized calculation?
   LNONCOLLINEAR =      F non collinear calculations
   LSORBIT =      F    spin-orbit coupling
   INIWAV =      1    electr: 0-lowe 1-rand  2-diag
   LASPH  =      T    aspherical Exc in radial PAW
 Electronic Relaxation 1
   ENCUT  =  520.0 eV  38.22 Ry    6.18 a.u.  39.30 39.30 41.12*2*pi/ulx,y,z
   ENINI  =  520.0     initial cutoff
   ENAUG  =  412.5 eV  augmentation charge cutoff
   NELM   =    200;   NELMIN=  8; NELMDL= -5     # of ELM steps 
   EDIFF  = 0.1E-05   stopping-criterion for ELM
   LREAL  =      T    real-space projection
   NLSPLINE    = F    spline interpolate recip. space projectors
   LCOMPAT=      F    compatible to vasp.4.4
   GGA_COMPAT  = T    GGA compatible to vasp.4.4-vasp.4.6
   LMAXPAW     = -100 max onsite density
   LMAXMIX     =    2 max onsite mixed and CHGCAR
   VOSKOWN=      0    Vosko Wilk Nusair interpolation
   ROPT   =   -0.00025
 Ionic relaxation
   EDIFFG = 0.1E-04   stopping-criterion for IOM
   NSW    =      0    number of steps for IOM
   NBLOCK =      1;   KBLOCK =      1    inner block; outer block 
   IBRION =     -1    ionic relax: 0-MD 1-quasi-New 2-CG
   NFREE  =      0    steps in history (QN), initial steepest desc. (CG)
   ISIF   =      2    stress and relaxation
   IWAVPR =     10    prediction:  0-non 1-charg 2-wave 3-comb
   ISYM   =      2    0-nonsym 1-usesym 2-fastsym
   LCORR  =      T    Harris-Foulkes like correction to forces

   POTIM  = 0.5000    time-step for ionic-motion
   TEIN   =    0.0    initial temperature
   TEBEG  =    0.0;   TEEND  =   0.0 temperature during run
   SMASS  =  -3.00    Nose mass-parameter (am)
   estimated Nose-frequenzy (Omega)   =  0.10E-29 period in steps = 0.13E+47 mass=  -0.102E-25a.u.
   SCALEE = 1.0000    scale energy and forces
   NPACO  =    256;   APACO  = 10.0  distance and # of slots for P.C.
   PSTRESS=    0.0 pullay stress

  Mass of Ions in am
   POMASS = 107.87
  Ionic Valenz
   ZVAL   =  11.00
  Atomic Wigner-Seitz radii
   RWIGS  =  -1.00
  virtual crystal weights 
   VCA    =   1.00
   NELECT =      44.0000    total number of electrons
   NUPDOWN=      -1.0000    fix difference up-down

 DOS related values:
   EMIN   =  10.00;   EMAX   =-10.00  energy-range for DOS
   EFERMI =   0.00
   ISMEAR =     0;   SIGMA  =   0.05  broadening in eV -4-tet -1-fermi 0-gaus

 Electronic relaxation 2 (details)
   IALGO  =     58    algorithm
   LDIAG  =      T    sub-space diagonalisation (order eigenvalues)
   LSUBROT=      F    optimize rotation matrix (better conditioning)
   TURBO    =      0    0=normal 1=particle mesh
   IRESTART =      0    0=no restart 2=restart with 2 vectors
   NREBOOT  =      0    no. of reboots
   NMIN     =      0    reboot dimension
   EREF     =   0.00    reference energy to select bands
   IMIX   =      4    mixing-type and parameters
     AMIX     =   0.40;   BMIX     =  1.00
     AMIX_MAG =   1.60;   BMIX_MAG =  1.00
     AMIN     =   0.10
     WC   =   100.;   INIMIX=   1;  MIXPRE=   1;  MAXMIX= -45

 Intra band minimization:
   WEIMIN = 0.0000     energy-eigenvalue tresh-hold
   EBREAK =  0.26E-08  absolut break condition
   DEPER  =   0.30     relativ break condition  

   TIME   =   0.40     timestep for ELM

  volume/ion in A,a.u.               =    2470.40     16671.10
  Fermi-wavevector in a.u.,A,eV,Ry     =   0.269329  0.508958  0.986941  0.072538
  Thomas-Fermi vector in A             =   1.106612

 Write flags
   LWAVE        =      F    write WAVECAR
   LDOWNSAMPLE  =      F    k-point downsampling of WAVECAR
   LCHARG       =      F    write CHGCAR
   LVTOT        =      F    write LOCPOT, total local potential
   LVHAR        =      F    write LOCPOT, Hartree potential only
   LELF         =      F    write electronic localiz. function (ELF)
   LORBIT       =      0    0 simple, 1 ext, 2 COOP (PROOUT), +10 PAW based schemes


 Dipole corrections
   LMONO  =      F    monopole corrections only (constant potential shift)
   LDIPOL =      F    correct potential (dipole corrections)
   IDIPOL =      0    1-x, 2-y, 3-z, 4-all directions 
   EPSILON=  1.0000000 bulk dielectric constant

 Exchange correlation treatment:
   GGA     =    --    GGA type
   LEXCH   =     8    internal setting for exchange type
   LIBXC   =     F    Libxc                    
   VOSKOWN =     0    Vosko Wilk Nusair interpolation
   LHFCALC =     F    Hartree Fock is set to
   LHFONE  =     F    Hartree Fock one center treatment
   AEXX    =    0.0000 exact exchange contribution

 vdW DFT:
   LUSE_VDW   =     T    switch on vdW DFT
   Zab_VDW    =-.8491    correlation parameter
   PARAM1     =0.1234
   PARAM2     =1.0000
   PARAM3     =0.0000
   -- rVV10 --
   BPARAM     =15.7000
   CPARAM     = 0.0093

 Linear response parameters
   LEPSILON=     F    determine dielectric tensor
   LRPA    =     F    only Hartree local field effects (RPA)
   LNABLA  =     F    use nabla operator in PAW spheres
   LVEL    =     F    velocity operator in full k-point grid
   CSHIFT  =0.1000    complex shift for real part using Kramers Kronig
   OMEGAMAX=  -1.0    maximum frequency
   DEG_THRESHOLD= 0.2000000E-02 threshold for treating states as degnerate
   RTIME   =   -0.100 relaxation time in fs
  (WPLASMAI=    0.000 imaginary part of plasma frequency in eV, 0.658/RTIME)
   DFIELD  = 0.0000000 0.0000000 0.0000000 field for delta impulse in time

  Optional k-point grid parameters
   LKPOINTS_OPT  =     F    use optional k-point grid
   KPOINTS_OPT_MODE=     1    mode for optional k-point grid

 Orbital magnetization related:
   ORBITALMAG=     F  switch on orbital magnetization
   LCHIMAG   =     F  perturbation theory with respect to B field
   DQ        =  0.001000  dq finite difference perturbation B field
   LLRAUG    =     F  two centre corrections for induced B field



--------------------------------------------------------------------------------------------------------


 Static calculation
 charge density and potential will be updated during run
 non-spin polarized calculation
 Conjugate gradient for all bands (Freysoldt, et al. PRB 79, 241103 (2009))
 preconditioned conjugated gradient                                        
 perform sub-space diagonalisation
    before iterative eigenvector-optimisation
 modified Broyden-mixing scheme, WC =      100.0
 initial mixing is a Kerker type mixing with AMIX =  0.4000 and BMIX =      1.0000
 Hartree-type preconditioning will be used
 using additional bands           74
 real space projection scheme for non local part
 use partial core corrections
 no Harris-corrections to forces 
 use gradient corrections 
 use of overlap-Matrix (Vanderbilt PP)
 Gauss-broadening in eV      SIGMA  =   0.05


--------------------------------------------------------------------------------------------------------


  energy-cutoff  :      520.00
  volume of cell :     9881.61
      direct lattice vectors                 reciprocal lattice vectors
    21.138852197  0.000000000  0.000000000     0.047306258  0.000000000  0.000000000
     0.000000000 21.138852197  0.000000000     0.000000000  0.047306258  0.000000000
     0.000000000  0.000000000 22.113885220     0.000000000  0.000000000  0.045220457

  length of vectors
    21.138852197 21.138852197 22.113885220     0.047306258  0.047306258  0.045220457



 k-points in units of 2pi/SCALE and weight: KPOINTS created by Atomic Simulation Env
   0.00000000  0.00000000  0.00000000       1.000

 k-points in reciprocal lattice and weights: KPOINTS created by Atomic Simulation Env
   0.00000000  0.00000000  0.00000000       1.000

 position of ions in fractional coordinates (direct lattice) 
   0.40007554  0.42853956  0.61036705
   0.40023932  0.51150472  0.69731758
   0.40057432  0.64132945  0.71292430
   0.40020353  0.58997571  0.60440993

 position of ions in cartesian coordinates  (Angst):
   8.45713774  9.05883440 13.49758682
   8.46059993 10.81262269 15.42040092
   8.46768128 13.55696849 15.76552609
   8.45984327 12.47140927 13.36585174



--------------------------------------------------------------------------------------------------------


 k-point   1 :   0.0000 0.0000 0.0000  plane waves:  265979

 maximum and minimum number of plane-waves per node :     66495    66494

 maximum number of plane-waves:    265979
 maximum index in each direction: 
   IXMAX=   39   IYMAX=   39   IZMAX=   41
   IXMIN=  -39   IYMIN=  -39   IZMIN=  -41


 real space projection operators:
  total allocation   :       3005.30 KBytes
  max/ min on nodes  :        758.53        746.86


 parallel 3D FFT for wavefunctions:
    minimum data exchange during FFTs selected (reduces bandwidth)
 parallel 3D FFT for charge:
    minimum data exchange during FFTs selected (reduces bandwidth)


 total amount of memory used by VASP MPI-rank0   153554. kBytes
=======================================================================

   base      :      30000. kBytes
   nonlr-proj:       1308. kBytes
   fftplans  :      35474. kBytes
   grid      :      83562. kBytes
   one-center:         15. kBytes
   wavefun   :       3195. kBytes

     INWAV:  cpu time      0.0002: real time      0.0004
 Broyden mixing: mesh for mixing (old mesh)
   NGX = 79   NGY = 79   NGZ = 83
  (NGX  =320   NGY  =320   NGZ  =336)
  gives a total of 518003 points

 initial charge density was supplied:
 charge density of overlapping atoms calculated
 number of electron      44.0000000 magnetization 
 keeping initial charge density in first step


--------------------------------------------------------------------------------------------------------


 Maximum index for non-local projection operator         1351
 Maximum index for augmentation-charges            0 (set IRDMAX)


--------------------------------------------------------------------------------------------------------


 First call to EWALD:  gamma=   0.083
 Maximum number of real-space cells 3x 3x 3
 Maximum number of reciprocal cells 3x 3x 3

    FEWALD:  cpu time      0.0012: real time      0.0012


--------------------------------------- Iteration      1(   1)  ---------------------------------------


    POTLOK:  cpu time      2.7756: real time      2.7769
    SETDIJ:  cpu time      0.7288: real time      0.7291
    TRIAL :  cpu time      1.6344: real time      1.6350
    CORREC:  cpu time      0.0011: real time      0.0011
    --------------------------------------------
      LOOP:  cpu time      5.1412: real time      5.1434

 eigenvalue-minimisations  :   192
 total energy-change (2. order) : 0.2137486E+03  (-0.8422837E+03)
 number of electron      44.0000000 magnetization 
 augmentation part       44.0000000 magnetization 

 Free energy of the ion-electron system (eV)
  ---------------------------------------------------
  alpha Z        PSCENC =         1.37722947
  Ewald energy   TEWEN  =      1659.89755665
  -Hartree energ DENC   =     -5621.30238949
  -exchange      EXHF   =         0.00000000
  -V(xc)+E(xc)   XCENC  =        -2.83486617
  PAW double counting   =      3953.19649383    -3921.45079787
  entropy T*S    EENTRO =        -0.05277957
  eigenvalues    EBANDS =        -4.13293672
  atomic energy  EATOM  =      4149.05112583
  ---------------------------------------------------
  free energy    TOTEN  =       213.74863597 eV

  energy without entropy =      213.80141554  energy(sigma->0) =      213.77502575


--------------------------------------------------------------------------------------------------------




--------------------------------------- Iteration      1(   2)  ---------------------------------------


    TRIAL :  cpu time      3.5222: real time      3.5231
    CORREC:  cpu time      0.0003: real time      0.0003
    --------------------------------------------
      LOOP:  cpu time      3.5254: real time      3.5309

 eigenvalue-minimisations  :   384
 total energy-change (2. order) :-0.3341001E+03  (-0.3332528E+03)
 number of electron      44.0000000 magnetization 
 augmentation part       44.0000000 magnetization 

 Free energy of the ion-electron system (eV)
  ---------------------------------------------------
  alpha Z        PSCENC =         1.37722947
  Ewald energy   TEWEN  =      1659.89755665
  -Hartree energ DENC   =     -5621.30238949
  -exchange      EXHF   =         0.00000000
  -V(xc)+E(xc)   XCENC  =        -2.83486617
  PAW double counting   =      3953.19649383    -3921.45079787
  entropy T*S    EENTRO =        -0.00000000
  eigenvalues    EBANDS =      -338.28580059
  atomic energy  EATOM  =      4149.05112583
  ---------------------------------------------------
  free energy    TOTEN  =      -120.35144834 eV

  energy without entropy =     -120.35144834  energy(sigma->0) =     -120.35144834


--------------------------------------------------------------------------------------------------------




--------------------------------------- Iteration      1(   3)  ---------------------------------------


    TRIAL :  cpu time      1.5906: real time      1.5910
    CORREC:  cpu time      0.0003: real time      0.0003
    --------------------------------------------
      LOOP:  cpu time      1.5946: real time      1.5990

 eigenvalue-minimisations  :   192
 total energy-change (2. order) :-0.1163406E+02  (-0.1163406E+02)
 number of electron      44.0000000 magnetization 
 augmentation part       44.0000000 magnetization 

 Free energy of the ion-electron system (eV)
  ---------------------------------------------------
  alpha Z        PSCENC =         1.37722947
  Ewald energy   TEWEN  =      1659.89755665
  -Hartree energ DENC   =     -5621.30238949
  -exchange      EXHF   =         0.00000000
  -V(xc)+E(xc)   XCENC  =        -2.83486617
  PAW double counting   =      3953.19649383    -3921.45079787
  entropy T*S    EENTRO =        -0.00000000
  eigenvalues    EBANDS =      -349.91985588
  atomic energy  EATOM  =      4149.05112583
  ---------------------------------------------------
  free energy    TOTEN  =      -131.98550362 eV

  energy without entropy =     -131.98550362  energy(sigma->0) =     -131.98550362


--------------------------------------------------------------------------------------------------------




--------------------------------------- Iteration      1(   4)  ---------------------------------------


    TRIAL :  cpu time      2.3422: real time      2.3439
    CORREC:  cpu time      0.0003: real time      0.0003
    --------------------------------------------
      LOOP:  cpu time      2.3505: real time      2.3527

 eigenvalue-minimisations  :   288
 total energy-change (2. order) :-0.5826312E-01  (-0.5826312E-01)
 number of electron      44.0000000 magnetization 
 augmentation part       44.0000000 magnetization 

 Free energy of the ion-electron system (eV)
  ---------------------------------------------------
  alpha Z        PSCENC =         1.37722947
  Ewald energy   TEWEN  =      1659.89755665
  -Hartree energ DENC   =     -5621.30238949
  -exchange      EXHF   =         0.00000000
  -V(xc)+E(xc)   XCENC  =        -2.83486617
  PAW double counting   =      3953.19649383    -3921.45079787
  entropy T*S    EENTRO =        -0.00000000
  eigenvalues    EBANDS =      -349.97811900
  atomic energy  EATOM  =      4149.05112583
  ---------------------------------------------------
  free energy    TOTEN  =      -132.04376674 eV

  energy without entropy =     -132.04376674  energy(sigma->0) =     -132.04376674


--------------------------------------------------------------------------------------------------------




--------------------------------------- Iteration      1(   5)  ---------------------------------------


    TRIAL :  cpu time      1.5927: real time      1.5933
    CORREC:  cpu time      0.0003: real time      0.0003
    CHARGE:  cpu time      0.3222: real time      0.3226
    --------------------------------------------
      LOOP:  cpu time      1.9176: real time      1.9236

 eigenvalue-minimisations  :   192
 total energy-change (2. order) :-0.5238159E-04  (-0.5238121E-04)
 number of electron      44.0000005 magnetization 
 augmentation part       20.4307660 magnetization 

 Free energy of the ion-electron system (eV)
  ---------------------------------------------------
  alpha Z        PSCENC =         1.37722947
  Ewald energy   TEWEN  =      1659.89755665
  -Hartree energ DENC   =     -5621.30238949
  -exchange      EXHF   =         0.00000000
  -V(xc)+E(xc)   XCENC  =        -2.83486617
  PAW double counting   =      3953.19649383    -3921.45079787
  entropy T*S    EENTRO =        -0.00000000
  eigenvalues    EBANDS =      -349.97817138
  atomic energy  EATOM  =      4149.05112583
  ---------------------------------------------------
  free energy    TOTEN  =      -132.04381912 eV

  energy without entropy =     -132.04381912  energy(sigma->0) =     -132.04381912


--------------------------------------------------------------------------------------------------------




--------------------------------------- Iteration      1(   6)  ---------------------------------------


    POTLOK:  cpu time      2.6234: real time      2.6240
    SETDIJ:  cpu time      0.7279: real time      0.7282
    TRIAL :  cpu time      1.9268: real time      1.9275
    CORREC:  cpu time      4.0144: real time      4.0164
    CHARGE:  cpu time      0.3141: real time      0.3141
    --------------------------------------------
      LOOP:  cpu time      9.6092: real time      9.6175

 eigenvalue-minimisations  :     0
 total energy-change (2. order) : 0.1846495E+02  (-0.2902973E+01)
 number of electron      44.0000006 magnetization 
 augmentation part       21.2949033 magnetization 

 Free energy of the ion-electron system (eV)
  ---------------------------------------------------
  alpha Z        PSCENC =         1.37722947
  Ewald energy   TEWEN  =      1659.89755665
  -Hartree energ DENC   =     -5571.14520979
  -exchange      EXHF   =         0.00000000
  -V(xc)+E(xc)   XCENC  =        13.52315947
  PAW double counting   =      4662.23221818    -4634.93854120
  entropy T*S    EENTRO =        -0.00000000
  eigenvalues    EBANDS =      -393.57640985
  atomic energy  EATOM  =      4149.05112583
  ---------------------------------------------------
  free energy    TOTEN  =      -113.57887124 eV

  energy without entropy =     -113.57887124  energy(sigma->0) =     -113.57887124


--------------------------------------------------------------------------------------------------------




--------------------------------------- Iteration      1(   7)  ---------------------------------------


    POTLOK:  cpu time      2.6246: real time      2.6250
    SETDIJ:  cpu time      0.7225: real time      0.7227
    TRIAL :  cpu time      1.2704: real time      1.2707
    CORREC:  cpu time      4.0143: real time      4.0161
    CHARGE:  cpu time      0.3125: real time      0.3128
    --------------------------------------------
      LOOP:  cpu time      8.9514: real time      8.9546

 eigenvalue-minimisations  :     0
 total energy-change (2. order) :-0.2884668E+01  (-0.3008699E+00)
 number of electron      44.0000006 magnetization 
 augmentation part       21.2912320 magnetization 

 Free energy of the ion-electron system (eV)
  ---------------------------------------------------
  alpha Z        PSCENC =         1.37722947
  Ewald energy   TEWEN  =      1659.89755665
  -Hartree energ DENC   =     -5665.29695333
  -exchange      EXHF   =         0.00000000
  -V(xc)+E(xc)   XCENC  =        14.71624460
  PAW double counting   =      4577.12957493    -4550.25496295
  entropy T*S    EENTRO =        -0.00000000
  eigenvalues    EBANDS =      -303.08335425
  atomic energy  EATOM  =      4149.05112583
  ---------------------------------------------------
  free energy    TOTEN  =      -116.46353904 eV

  energy without entropy =     -116.46353904  energy(sigma->0) =     -116.46353904


--------------------------------------------------------------------------------------------------------




--------------------------------------- Iteration      1(   8)  ---------------------------------------


    POTLOK:  cpu time      2.6249: real time      2.6254
    SETDIJ:  cpu time      0.7196: real time      0.7198
    TRIAL :  cpu time      1.2681: real time      1.2684
    CORREC:  cpu time      4.0151: real time      4.0160
    CHARGE:  cpu time      0.3144: real time      0.3159
    --------------------------------------------
      LOOP:  cpu time      8.9438: real time      8.9528

 eigenvalue-minimisations  :     0
 total energy-change (2. order) :-0.2972864E+00  (-0.7487084E-01)
 number of electron      44.0000006 magnetization 
 augmentation part       21.3467112 magnetization 

 Free energy of the ion-electron system (eV)
  ---------------------------------------------------
  alpha Z        PSCENC =         1.37722947
  Ewald energy   TEWEN  =      1659.89755665
  -Hartree energ DENC   =     -5636.71731008
  -exchange      EXHF   =         0.00000000
  -V(xc)+E(xc)   XCENC  =        13.92673013
  PAW double counting   =      4500.48290049    -4473.72071994
  entropy T*S    EENTRO =        -0.00000000
  eigenvalues    EBANDS =      -331.05833796
  atomic energy  EATOM  =      4149.05112583
  ---------------------------------------------------
  free energy    TOTEN  =      -116.76082541 eV

  energy without entropy =     -116.76082541  energy(sigma->0) =     -116.76082541


--------------------------------------------------------------------------------------------------------




--------------------------------------- Iteration      1(   9)  ---------------------------------------


    POTLOK:  cpu time      2.6277: real time      2.6282
    SETDIJ:  cpu time      0.7212: real time      0.7214
    TRIAL :  cpu time      1.2684: real time      1.2687
    CORREC:  cpu time      4.0106: real time      4.0116
    CHARGE:  cpu time      0.3125: real time      0.3128
    --------------------------------------------
      LOOP:  cpu time      8.9488: real time      8.9513

 eigenvalue-minimisations  :     0
 total energy-change (2. order) :-0.6691445E-01  (-0.1562690E-01)
 number of electron      44.0000006 magnetization 
 augmentation part       21.3289820 magnetization 

 Free energy of the ion-electron system (eV)
  ---------------------------------------------------
  alpha Z        PSCENC =         1.37722947
  Ewald energy   TEWEN  =      1659.89755665
  -Hartree energ DENC   =     -5643.69017109
  -exchange      EXHF   =         0.00000000
  -V(xc)+E(xc)   XCENC  =        13.89954304
  PAW double counting   =      4496.19820538    -4469.43989174
  entropy T*S    EENTRO =        -0.00000000
  eigenvalues    EBANDS =      -324.12133740
  atomic energy  EATOM  =      4149.05112583
  ---------------------------------------------------
  free energy    TOTEN  =      -116.82773986 eV

  energy without entropy =     -116.82773986  energy(sigma->0) =     -116.82773986


--------------------------------------------------------------------------------------------------------




--------------------------------------- Iteration      1(  10)  ---------------------------------------


    POTLOK:  cpu time      2.6292: real time      2.6303
    SETDIJ:  cpu time      0.7321: real time      0.7323
    TRIAL :  cpu time      1.2676: real time      1.2680
    CORREC:  cpu time      4.0089: real time      4.0099
    CHARGE:  cpu time      0.3126: real time      0.3128
    --------------------------------------------
      LOOP:  cpu time      8.9575: real time      8.9605

 eigenvalue-minimisations  :     0
 total energy-change (2. order) :-0.1635664E-01  (-0.5058777E-02)
 number of electron      44.0000006 magnetization 
 augmentation part       21.3313290 magnetization 

 Free energy of the ion-electron system (eV)
  ---------------------------------------------------
  alpha Z        PSCENC =         1.37722947
  Ewald energy   TEWEN  =      1659.89755665
  -Hartree energ DENC   =     -5639.11915523
  -exchange      EXHF   =         0.00000000
  -V(xc)+E(xc)   XCENC  =        13.82366845
  PAW double counting   =      4504.88952520    -4477.96687903
  entropy T*S    EENTRO =        -0.00000000
  eigenvalues    EBANDS =      -328.79716785
  atomic energy  EATOM  =      4149.05112583
  ---------------------------------------------------
  free energy    TOTEN  =      -116.84409650 eV

  energy without entropy =     -116.84409650  energy(sigma->0) =     -116.84409650


--------------------------------------------------------------------------------------------------------




--------------------------------------- Iteration      1(  11)  ---------------------------------------


    POTLOK:  cpu time      2.6248: real time      2.6254
    SETDIJ:  cpu time      0.7265: real time      0.7273
    TRIAL :  cpu time      1.2705: real time      1.2708
    CORREC:  cpu time      4.0150: real time      4.0161
    CHARGE:  cpu time      0.3139: real time      0.3143
    --------------------------------------------
      LOOP:  cpu time      8.9542: real time      8.9611

 eigenvalue-minimisations  :     0
 total energy-change (2. order) :-0.5168992E-02  (-0.1109831E-02)
 number of electron      44.0000006 magnetization 
 augmentation part       21.3336371 magnetization 

 Free energy of the ion-electron system (eV)
  ---------------------------------------------------
  alpha Z        PSCENC =         1.37722947
  Ewald energy   TEWEN  =      1659.89755665
  -Hartree energ DENC   =     -5638.99424364
  -exchange      EXHF   =         0.00000000
  -V(xc)+E(xc)   XCENC  =        13.84986490
  PAW double counting   =      4515.89259853    -4488.87275295
  entropy T*S    EENTRO =        -0.00000000
  eigenvalues    EBANDS =      -329.05064428
  atomic energy  EATOM  =      4149.05112583
  ---------------------------------------------------
  free energy    TOTEN  =      -116.84926549 eV

  energy without entropy =     -116.84926549  energy(sigma->0) =     -116.84926549


--------------------------------------------------------------------------------------------------------




--------------------------------------- Iteration      1(  12)  ---------------------------------------


    POTLOK:  cpu time      2.6205: real time      2.6212
    SETDIJ:  cpu time      0.7333: real time      0.7336
    TRIAL :  cpu time      1.2685: real time      1.2688
    CORREC:  cpu time      4.0119: real time      4.0145
    CHARGE:  cpu time      0.3135: real time      0.3138
    --------------------------------------------
      LOOP:  cpu time      8.9529: real time      8.9602

 eigenvalue-minimisations  :     0
 total energy-change (2. order) :-0.1043499E-02  (-0.2036685E-03)
 number of electron      44.0000006 magnetization 
 augmentation part       21.3326276 magnetization 

 Free energy of the ion-electron system (eV)
  ---------------------------------------------------
  alpha Z        PSCENC =         1.37722947
  Ewald energy   TEWEN  =      1659.89755665
  -Hartree energ DENC   =     -5639.73548877
  -exchange      EXHF   =         0.00000000
  -V(xc)+E(xc)   XCENC  =        13.87453671
  PAW double counting   =      4523.19136785    -4496.13511285
  entropy T*S    EENTRO =        -0.00000000
  eigenvalues    EBANDS =      -328.37152387
  atomic energy  EATOM  =      4149.05112583
  ---------------------------------------------------
  free energy    TOTEN  =      -116.85030899 eV

  energy without entropy =     -116.85030899  energy(sigma->0) =     -116.85030899


--------------------------------------------------------------------------------------------------------




--------------------------------------- Iteration      1(  13)  ---------------------------------------


    POTLOK:  cpu time      2.6215: real time      2.6222
    SETDIJ:  cpu time      0.7238: real time      0.7241
    TRIAL :  cpu time      1.2706: real time      1.2710
    CORREC:  cpu time      4.0153: real time      4.0173
    CHARGE:  cpu time      0.3119: real time      0.3123
    --------------------------------------------
      LOOP:  cpu time      8.9502: real time      8.9542

 eigenvalue-minimisations  :     0
 total energy-change (2. order) :-0.9500550E-04  (-0.1124206E-03)
 number of electron      44.0000006 magnetization 
 augmentation part       21.3324599 magnetization 

 Free energy of the ion-electron system (eV)
  ---------------------------------------------------
  alpha Z        PSCENC =         1.37722947
  Ewald energy   TEWEN  =      1659.89755665
  -Hartree energ DENC   =     -5639.69717050
  -exchange      EXHF   =         0.00000000
  -V(xc)+E(xc)   XCENC  =        13.87424375
  PAW double counting   =      4525.23200110    -4498.16905854
  entropy T*S    EENTRO =        -0.00000000
  eigenvalues    EBANDS =      -328.41633177
  atomic energy  EATOM  =      4149.05112583
  ---------------------------------------------------
  free energy    TOTEN  =      -116.85040400 eV

  energy without entropy =     -116.85040400  energy(sigma->0) =     -116.85040400


--------------------------------------------------------------------------------------------------------




--------------------------------------- Iteration      1(  14)  ---------------------------------------


    POTLOK:  cpu time      2.6255: real time      2.6262
    SETDIJ:  cpu time      0.7236: real time      0.7238
    TRIAL :  cpu time      1.2651: real time      1.2654
    CORREC:  cpu time      4.0112: real time      4.0132
    CHARGE:  cpu time      0.3174: real time      0.3174
    --------------------------------------------
      LOOP:  cpu time      8.9465: real time      8.9531

 eigenvalue-minimisations  :     0
 total energy-change (2. order) :-0.4208508E-04  (-0.7042896E-04)
 number of electron      44.0000006 magnetization 
 augmentation part       21.3325068 magnetization 

 Free energy of the ion-electron system (eV)
  ---------------------------------------------------
  alpha Z        PSCENC =         1.37722947
  Ewald energy   TEWEN  =      1659.89755665
  -Hartree energ DENC   =     -5639.70905398
  -exchange      EXHF   =         0.00000000
  -V(xc)+E(xc)   XCENC  =        13.87490263
  PAW double counting   =      4527.00741173    -4499.93858248
  entropy T*S    EENTRO =        -0.00000000
  eigenvalues    EBANDS =      -328.41103593
  atomic energy  EATOM  =      4149.05112583
  ---------------------------------------------------
  free energy    TOTEN  =      -116.85044608 eV

  energy without entropy =     -116.85044608  energy(sigma->0) =     -116.85044608


--------------------------------------------------------------------------------------------------------




--------------------------------------- Iteration      1(  15)  ---------------------------------------


    POTLOK:  cpu time      2.6287: real time      2.6296
    SETDIJ:  cpu time      0.7218: real time      0.7221
    TRIAL :  cpu time      1.2669: real time      1.2673
    CORREC:  cpu time      4.0115: real time      4.0127
    CHARGE:  cpu time      0.3123: real time      0.3123
    --------------------------------------------
      LOOP:  cpu time      8.9432: real time      8.9514

 eigenvalue-minimisations  :     0
 total energy-change (2. order) :-0.1492967E-04  (-0.4708480E-04)
 number of electron      44.0000006 magnetization 
 augmentation part       21.3326020 magnetization 

 Free energy of the ion-electron system (eV)
  ---------------------------------------------------
  alpha Z        PSCENC =         1.37722947
  Ewald energy   TEWEN  =      1659.89755665
  -Hartree energ DENC   =     -5639.72064658
  -exchange      EXHF   =         0.00000000
  -V(xc)+E(xc)   XCENC  =        13.87544694
  PAW double counting   =      4528.46957443    -4501.39586806
  entropy T*S    EENTRO =        -0.00000000
  eigenvalues    EBANDS =      -328.40487970
  atomic energy  EATOM  =      4149.05112583
  ---------------------------------------------------
  free energy    TOTEN  =      -116.85046101 eV

  energy without entropy =     -116.85046101  energy(sigma->0) =     -116.85046101


--------------------------------------------------------------------------------------------------------




--------------------------------------- Iteration      1(  16)  ---------------------------------------


    POTLOK:  cpu time      2.6210: real time      2.6228
    SETDIJ:  cpu time      0.7231: real time      0.7234
    TRIAL :  cpu time      1.2669: real time      1.2673
    CORREC:  cpu time      4.0205: real time      4.0218
    CHARGE:  cpu time      0.3137: real time      0.3137
    --------------------------------------------
      LOOP:  cpu time      8.9474: real time      8.9564

 eigenvalue-minimisations  :     0
 total energy-change (2. order) :-0.5153070E-06  (-0.3315065E-04)
 number of electron      44.0000006 magnetization 
 augmentation part       21.3327034 magnetization 

 Free energy of the ion-electron system (eV)
  ---------------------------------------------------
  alpha Z        PSCENC =         1.37722947
  Ewald energy   TEWEN  =      1659.89755665
  -Hartree energ DENC   =     -5639.72767338
  -exchange      EXHF   =         0.00000000
  -V(xc)+E(xc)   XCENC  =        13.87580356
  PAW double counting   =      4529.67246678    -4502.59480633
  entropy T*S    EENTRO =        -0.00000000
  eigenvalues    EBANDS =      -328.40216410
  atomic energy  EATOM  =      4149.05112583
  ---------------------------------------------------
  free energy    TOTEN  =      -116.85046153 eV

  energy without entropy =     -116.85046153  energy(sigma->0) =     -116.85046153


--------------------------------------------------------------------------------------------------------




--------------------------------------- Iteration      1(  17)  ---------------------------------------


    POTLOK:  cpu time      2.6228: real time      2.6237
    SETDIJ:  cpu time      0.7240: real time      0.7245
    TRIAL :  cpu time      1.2670: real time      1.2673
    CORREC:  cpu time      4.0120: real time      4.0131
    CHARGE:  cpu time      0.3133: real time      0.3133
    --------------------------------------------
      LOOP:  cpu time      8.9466: real time      8.9499

 eigenvalue-minimisations  :     0
 total energy-change (2. order) : 0.6685405E-05  (-0.2429986E-04)
 number of electron      44.0000006 magnetization 
 augmentation part       21.3327996 magnetization 

 Free energy of the ion-electron system (eV)
  ---------------------------------------------------
  alpha Z        PSCENC =         1.37722947
  Ewald energy   TEWEN  =      1659.89755665
  -Hartree energ DENC   =     -5639.73171073
  -exchange      EXHF   =         0.00000000
  -V(xc)+E(xc)   XCENC  =        13.87602987
  PAW double counting   =      4530.67872240    -4503.59784325
  entropy T*S    EENTRO =        -0.00000000
  eigenvalues    EBANDS =      -328.40156509
  atomic energy  EATOM  =      4149.05112583
  ---------------------------------------------------
  free energy    TOTEN  =      -116.85045484 eV

  energy without entropy =     -116.85045484  energy(sigma->0) =     -116.85045484


--------------------------------------------------------------------------------------------------------




--------------------------------------- Iteration      1(  18)  ---------------------------------------


    POTLOK:  cpu time      2.6198: real time      2.6207
    SETDIJ:  cpu time      0.7281: real time      0.7284
    TRIAL :  cpu time      1.2658: real time      1.2670
    CORREC:  cpu time      4.0140: real time      4.0153
    CHARGE:  cpu time      0.3142: real time      0.3143
    --------------------------------------------
      LOOP:  cpu time      8.9501: real time      8.9541

 eigenvalue-minimisations  :     0
 total energy-change (2. order) : 0.1013485E-04  (-0.1839549E-04)
 number of electron      44.0000006 magnetization 
 augmentation part       21.3328876 magnetization 

 Free energy of the ion-electron system (eV)
  ---------------------------------------------------
  alpha Z        PSCENC =         1.37722947
  Ewald energy   TEWEN  =      1659.89755665
  -Hartree energ DENC   =     -5639.73399824
  -exchange      EXHF   =         0.00000000
  -V(xc)+E(xc)   XCENC  =        13.87617185
  PAW double counting   =      4531.53518273    -4504.45165432
  entropy T*S    EENTRO =        -0.00000000
  eigenvalues    EBANDS =      -328.40205868
  atomic energy  EATOM  =      4149.05112583
  ---------------------------------------------------
  free energy    TOTEN  =      -116.85044471 eV

  energy without entropy =     -116.85044471  energy(sigma->0) =     -116.85044471


--------------------------------------------------------------------------------------------------------




--------------------------------------- Iteration      1(  19)  ---------------------------------------


    POTLOK:  cpu time      2.6294: real time      2.6303
    SETDIJ:  cpu time      0.7209: real time      0.7212
    TRIAL :  cpu time      1.2660: real time      1.2664
    CORREC:  cpu time      4.0162: real time      4.0182
    CHARGE:  cpu time      0.3141: real time      0.3141
    --------------------------------------------
      LOOP:  cpu time      8.9506: real time      8.9575

 eigenvalue-minimisations  :     0
 total energy-change (2. order) : 0.1161854E-04  (-0.1429690E-04)
 number of electron      44.0000006 magnetization 
 augmentation part       21.3329673 magnetization 

 Free energy of the ion-electron system (eV)
  ---------------------------------------------------
  alpha Z        PSCENC =         1.37722947
  Ewald energy   TEWEN  =      1659.89755665
  -Hartree energ DENC   =     -5639.73524774
  -exchange      EXHF   =         0.00000000
  -V(xc)+E(xc)   XCENC  =        13.87625894
  PAW double counting   =      4532.27514217    -4505.18940635
  entropy T*S    EENTRO =        -0.00000000
  eigenvalues    EBANDS =      -328.40309206
  atomic energy  EATOM  =      4149.05112583
  ---------------------------------------------------
  free energy    TOTEN  =      -116.85043309 eV

  energy without entropy =     -116.85043309  energy(sigma->0) =     -116.85043309


--------------------------------------------------------------------------------------------------------




--------------------------------------- Iteration      1(  20)  ---------------------------------------


    POTLOK:  cpu time      2.6269: real time      2.6279
    SETDIJ:  cpu time      0.7235: real time      0.7238
    TRIAL :  cpu time      1.2661: real time      1.2664
    CORREC:  cpu time      4.0187: real time      4.0205
    CHARGE:  cpu time      0.3132: real time      0.3132
    --------------------------------------------
      LOOP:  cpu time      8.9529: real time      8.9595

 eigenvalue-minimisations  :     0
 total energy-change (2. order) : 0.1205740E-04  (-0.1135686E-04)
 number of electron      44.0000006 magnetization 
 augmentation part       21.3330393 magnetization 

 Free energy of the ion-electron system (eV)
  ---------------------------------------------------
  alpha Z        PSCENC =         1.37722947
  Ewald energy   TEWEN  =      1659.89755665
  -Hartree energ DENC   =     -5639.73586261
  -exchange      EXHF   =         0.00000000
  -V(xc)+E(xc)   XCENC  =        13.87630963
  PAW double counting   =      4532.92247385    -4505.83487698
  entropy T*S    EENTRO =        -0.00000000
  eigenvalues    EBANDS =      -328.40437687
  atomic energy  EATOM  =      4149.05112583
  ---------------------------------------------------
  free energy    TOTEN  =      -116.85042103 eV

  energy without entropy =     -116.85042103  energy(sigma->0) =     -116.85042103


--------------------------------------------------------------------------------------------------------




--------------------------------------- Iteration      1(  21)  ---------------------------------------


    POTLOK:  cpu time      2.6279: real time      2.6288
    SETDIJ:  cpu time      0.7200: real time      0.7204
    TRIAL :  cpu time      1.2679: real time      1.2682
    CORREC:  cpu time      4.0106: real time      4.0118
    CHARGE:  cpu time      0.3122: real time      0.3122
    --------------------------------------------
      LOOP:  cpu time      8.9460: real time      8.9490

 eigenvalue-minimisations  :     0
 total energy-change (2. order) : 0.1194028E-04  (-0.9189486E-05)
 number of electron      44.0000006 magnetization 
 augmentation part       21.3331045 magnetization 

 Free energy of the ion-electron system (eV)
  ---------------------------------------------------
  alpha Z        PSCENC =         1.37722947
  Ewald energy   TEWEN  =      1659.89755665
  -Hartree energ DENC   =     -5639.73608384
  -exchange      EXHF   =         0.00000000
  -V(xc)+E(xc)   XCENC  =        13.87633591
  PAW double counting   =      4533.49463087    -4506.40544807
  entropy T*S    EENTRO =        -0.00000000
  eigenvalues    EBANDS =      -328.40575592
  atomic energy  EATOM  =      4149.05112583
  ---------------------------------------------------
  free energy    TOTEN  =      -116.85040909 eV

  energy without entropy =     -116.85040909  energy(sigma->0) =     -116.85040909


--------------------------------------------------------------------------------------------------------




--------------------------------------- Iteration      1(  22)  ---------------------------------------


    POTLOK:  cpu time      2.6332: real time      2.6350
    SETDIJ:  cpu time      0.7116: real time      0.7119
    TRIAL :  cpu time      1.2667: real time      1.2670
    CORREC:  cpu time      4.0132: real time      4.0145
    CHARGE:  cpu time      0.3113: real time      0.3113
    --------------------------------------------
      LOOP:  cpu time      8.9388: real time      8.9481

 eigenvalue-minimisations  :     0
 total energy-change (2. order) : 0.1153085E-04  (-0.7555171E-05)
 number of electron      44.0000006 magnetization 
 augmentation part       21.3331635 magnetization 

 Free energy of the ion-electron system (eV)
  ---------------------------------------------------
  alpha Z        PSCENC =         1.37722947
  Ewald energy   TEWEN  =      1659.89755665
  -Hartree energ DENC   =     -5639.73605402
  -exchange      EXHF   =         0.00000000
  -V(xc)+E(xc)   XCENC  =        13.87634551
  PAW double counting   =      4534.00466795    -4506.91412047
  entropy T*S    EENTRO =        -0.00000000
  eigenvalues    EBANDS =      -328.40714848
  atomic energy  EATOM  =      4149.05112583
  ---------------------------------------------------
  free energy    TOTEN  =      -116.85039756 eV

  energy without entropy =     -116.85039756  energy(sigma->0) =     -116.85039756


--------------------------------------------------------------------------------------------------------




--------------------------------------- Iteration      1(  23)  ---------------------------------------


    POTLOK:  cpu time      2.6261: real time      2.6281
    SETDIJ:  cpu time      0.7188: real time      0.7188
    TRIAL :  cpu time      1.2657: real time      1.2663
    CORREC:  cpu time      4.0189: real time      4.0202
    CHARGE:  cpu time      0.3154: real time      0.3154
    --------------------------------------------
      LOOP:  cpu time      8.9501: real time      8.9566

 eigenvalue-minimisations  :     0
 total energy-change (2. order) : 0.1097643E-04  (-0.6296990E-05)
 number of electron      44.0000006 magnetization 
 augmentation part       21.3332172 magnetization 

 Free energy of the ion-electron system (eV)
  ---------------------------------------------------
  alpha Z        PSCENC =         1.37722947
  Ewald energy   TEWEN  =      1659.89755665
  -Hartree energ DENC   =     -5639.73586640
  -exchange      EXHF   =         0.00000000
  -V(xc)+E(xc)   XCENC  =        13.87634382
  PAW double counting   =      4534.46261545    -4507.37088341
  entropy T*S    EENTRO =        -0.00000000
  eigenvalues    EBANDS =      -328.40850800
  atomic energy  EATOM  =      4149.05112583
  ---------------------------------------------------
  free energy    TOTEN  =      -116.85038658 eV

  energy without entropy =     -116.85038658  energy(sigma->0) =     -116.85038658


--------------------------------------------------------------------------------------------------------




--------------------------------------- Iteration      1(  24)  ---------------------------------------


    POTLOK:  cpu time      2.6301: real time      2.6310
    SETDIJ:  cpu time      0.7187: real time      0.7187
    TRIAL :  cpu time      1.2653: real time      1.2670
    CORREC:  cpu time      4.0135: real time      4.0148
    CHARGE:  cpu time      0.3174: real time      0.3174
    --------------------------------------------
      LOOP:  cpu time      8.9478: real time      8.9561

 eigenvalue-minimisations  :     0
 total energy-change (2. order) : 0.1036040E-04  (-0.5311905E-05)
 number of electron      44.0000006 magnetization 
 augmentation part       21.3332662 magnetization 

 Free energy of the ion-electron system (eV)
  ---------------------------------------------------
  alpha Z        PSCENC =         1.37722947
  Ewald energy   TEWEN  =      1659.89755665
  -Hartree energ DENC   =     -5639.73557894
  -exchange      EXHF   =         0.00000000
  -V(xc)+E(xc)   XCENC  =        13.87633437
  PAW double counting   =      4534.87625963    -4507.78349131
  entropy T*S    EENTRO =        -0.00000000
  eigenvalues    EBANDS =      -328.40981193
  atomic energy  EATOM  =      4149.05112583
  ---------------------------------------------------
  free energy    TOTEN  =      -116.85037622 eV

  energy without entropy =     -116.85037622  energy(sigma->0) =     -116.85037622


--------------------------------------------------------------------------------------------------------




--------------------------------------- Iteration      1(  25)  ---------------------------------------


    POTLOK:  cpu time      2.6249: real time      2.6259
    SETDIJ:  cpu time      0.7238: real time      0.7239
    TRIAL :  cpu time      1.2682: real time      1.2689
    CORREC:  cpu time      4.0109: real time      4.0130
    CHARGE:  cpu time      0.3140: real time      0.3140
    --------------------------------------------
      LOOP:  cpu time      8.9465: real time      8.9536

 eigenvalue-minimisations  :     0
 total energy-change (2. order) : 0.9728763E-05  (-0.4528388E-05)
 number of electron      44.0000006 magnetization 
 augmentation part       21.3333111 magnetization 

 Free energy of the ion-electron system (eV)
  ---------------------------------------------------
  alpha Z        PSCENC =         1.37722947
  Ewald energy   TEWEN  =      1659.89755665
  -Hartree energ DENC   =     -5639.73522941
  -exchange      EXHF   =         0.00000000
  -V(xc)+E(xc)   XCENC  =        13.87631967
  PAW double counting   =      4535.25181074    -4508.15812940
  entropy T*S    EENTRO =        -0.00000000
  eigenvalues    EBANDS =      -328.41105004
  atomic energy  EATOM  =      4149.05112583
  ---------------------------------------------------
  free energy    TOTEN  =      -116.85036649 eV

  energy without entropy =     -116.85036649  energy(sigma->0) =     -116.85036649


--------------------------------------------------------------------------------------------------------




--------------------------------------- Iteration      1(  26)  ---------------------------------------


    POTLOK:  cpu time      2.6231: real time      2.6241
    SETDIJ:  cpu time      0.7270: real time      0.7270
    TRIAL :  cpu time      1.2659: real time      1.2666
    CORREC:  cpu time      4.0131: real time      4.0153
    CHARGE:  cpu time      0.3132: real time      0.3132
    --------------------------------------------
      LOOP:  cpu time      8.9491: real time      8.9530

 eigenvalue-minimisations  :     0
 total energy-change (2. order) : 0.9108383E-05  (-0.3896988E-05)
 number of electron      44.0000006 magnetization 
 augmentation part       21.3333523 magnetization 

 Free energy of the ion-electron system (eV)
  ---------------------------------------------------
  alpha Z        PSCENC =         1.37722947
  Ewald energy   TEWEN  =      1659.89755665
  -Hartree energ DENC   =     -5639.73484267
  -exchange      EXHF   =         0.00000000
  -V(xc)+E(xc)   XCENC  =        13.87630140
  PAW double counting   =      4535.59426257    -4508.49977162
  entropy T*S    EENTRO =        -0.00000000
  eigenvalues    EBANDS =      -328.41221902
  atomic energy  EATOM  =      4149.05112583
  ---------------------------------------------------
  free energy    TOTEN  =      -116.85035738 eV

  energy without entropy =     -116.85035738  energy(sigma->0) =     -116.85035738


--------------------------------------------------------------------------------------------------------




--------------------------------------- Iteration      1(  27)  ---------------------------------------


    POTLOK:  cpu time      2.6224: real time      2.6234
    SETDIJ:  cpu time      0.7285: real time      0.7285
    TRIAL :  cpu time      1.2856: real time      1.2863
    CORREC:  cpu time      4.0189: real time      4.0202
    CHARGE:  cpu time      0.3159: real time      0.3159
    --------------------------------------------
      LOOP:  cpu time      8.9751: real time      8.9814

 eigenvalue-minimisations  :     0
 total energy-change (2. order) : 0.8512943E-05  (-0.3381360E-05)
 number of electron      44.0000006 magnetization 
 augmentation part       21.3333901 magnetization 

 Free energy of the ion-electron system (eV)
  ---------------------------------------------------
  alpha Z        PSCENC =         1.37722947
  Ewald energy   TEWEN  =      1659.89755665
  -Hartree energ DENC   =     -5639.73443850
  -exchange      EXHF   =         0.00000000
  -V(xc)+E(xc)   XCENC  =        13.87628097
  PAW double counting   =      4535.90773781    -4508.81252488
  entropy T*S    EENTRO =        -0.00000000
  eigenvalues    EBANDS =      -328.41331622
  atomic energy  EATOM  =      4149.05112583
  ---------------------------------------------------
  free energy    TOTEN  =      -116.85034887 eV

  energy without entropy =     -116.85034887  energy(sigma->0) =     -116.85034887


--------------------------------------------------------------------------------------------------------




--------------------------------------- Iteration      1(  28)  ---------------------------------------


    POTLOK:  cpu time      2.6306: real time      2.6323
    SETDIJ:  cpu time      0.7225: real time      0.7226
    TRIAL :  cpu time      1.2694: real time      1.2701
    CORREC:  cpu time      4.0130: real time      4.0142
    CHARGE:  cpu time      0.3131: real time      0.3131
    --------------------------------------------
      LOOP:  cpu time      8.9509: real time      8.9595

 eigenvalue-minimisations  :     0
 total energy-change (2. order) : 0.7950167E-05  (-0.2956241E-05)
 number of electron      44.0000006 magnetization 
 augmentation part       21.3334251 magnetization 

 Free energy of the ion-electron system (eV)
  ---------------------------------------------------
  alpha Z        PSCENC =         1.37722947
  Ewald energy   TEWEN  =      1659.89755665
  -Hartree energ DENC   =     -5639.73402614
  -exchange      EXHF   =         0.00000000
  -V(xc)+E(xc)   XCENC  =        13.87625910
  PAW double counting   =      4536.19561529    -4509.09975504
  entropy T*S    EENTRO =        -0.00000000
  eigenvalues    EBANDS =      -328.41434607
  atomic energy  EATOM  =      4149.05112583
  ---------------------------------------------------
  free energy    TOTEN  =      -116.85034092 eV

  energy without entropy =     -116.85034092  energy(sigma->0) =     -116.85034092


--------------------------------------------------------------------------------------------------------




--------------------------------------- Iteration      1(  29)  ---------------------------------------


    POTLOK:  cpu time      2.6252: real time      2.6268
    SETDIJ:  cpu time      0.7229: real time      0.7229
    TRIAL :  cpu time      1.2678: real time      1.2682
    CORREC:  cpu time      4.0210: real time      4.0225
    CHARGE:  cpu time      0.3166: real time      0.3166
    --------------------------------------------
      LOOP:  cpu time      8.9615: real time      8.9653

 eigenvalue-minimisations  :     0
 total energy-change (2. order) : 0.7422049E-05  (-0.2601862E-05)
 number of electron      44.0000006 magnetization 
 augmentation part       21.3334575 magnetization 

 Free energy of the ion-electron system (eV)
  ---------------------------------------------------
  alpha Z        PSCENC =         1.37722947
  Ewald energy   TEWEN  =      1659.89755665
  -Hartree energ DENC   =     -5639.73361490
  -exchange      EXHF   =         0.00000000
  -V(xc)+E(xc)   XCENC  =        13.87623651
  PAW double counting   =      4536.46076770    -4509.36432436
  entropy T*S    EENTRO =        -0.00000000
  eigenvalues    EBANDS =      -328.41531040
  atomic energy  EATOM  =      4149.05112583
  ---------------------------------------------------
  free energy    TOTEN  =      -116.85033350 eV

  energy without entropy =     -116.85033350  energy(sigma->0) =     -116.85033350


--------------------------------------------------------------------------------------------------------




--------------------------------------- Iteration      1(  30)  ---------------------------------------


    POTLOK:  cpu time      2.6298: real time      2.6305
    SETDIJ:  cpu time      0.7217: real time      0.7219
    TRIAL :  cpu time      1.2668: real time      1.2685
    CORREC:  cpu time      4.0195: real time      4.0207
    CHARGE:  cpu time      0.3119: real time      0.3123
    --------------------------------------------
      LOOP:  cpu time      8.9517: real time      8.9610

 eigenvalue-minimisations  :     0
 total energy-change (2. order) : 0.6930085E-05  (-0.2303734E-05)
 number of electron      44.0000006 magnetization 
 augmentation part       21.3334874 magnetization 

 Free energy of the ion-electron system (eV)
  ---------------------------------------------------
  alpha Z        PSCENC =         1.37722947
  Ewald energy   TEWEN  =      1659.89755665
  -Hartree energ DENC   =     -5639.73320886
  -exchange      EXHF   =         0.00000000
  -V(xc)+E(xc)   XCENC  =        13.87621360
  PAW double counting   =      4536.70560474    -4509.60863382
  entropy T*S    EENTRO =        -0.00000000
  eigenvalues    EBANDS =      -328.41621418
  atomic energy  EATOM  =      4149.05112583
  ---------------------------------------------------
  free energy    TOTEN  =      -116.85032657 eV

  energy without entropy =     -116.85032657  energy(sigma->0) =     -116.85032657


--------------------------------------------------------------------------------------------------------




--------------------------------------- Iteration      1(  31)  ---------------------------------------


    POTLOK:  cpu time      2.6260: real time      2.6267
    SETDIJ:  cpu time      0.7228: real time      0.7231
    TRIAL :  cpu time      1.2680: real time      1.2684
    CORREC:  cpu time      4.0187: real time      4.0199
    CHARGE:  cpu time      0.3126: real time      0.3130
    --------------------------------------------
      LOOP:  cpu time      8.9517: real time      8.9592

 eigenvalue-minimisations  :     0
 total energy-change (2. order) : 0.6472247E-05  (-0.2051215E-05)
 number of electron      44.0000006 magnetization 
 augmentation part       21.3335153 magnetization 

 Free energy of the ion-electron system (eV)
  ---------------------------------------------------
  alpha Z        PSCENC =         1.37722947
  Ewald energy   TEWEN  =      1659.89755665
  -Hartree energ DENC   =     -5639.73281222
  -exchange      EXHF   =         0.00000000
  -V(xc)+E(xc)   XCENC  =        13.87619071
  PAW double counting   =      4536.93218944    -4509.83473927
  entropy T*S    EENTRO =        -0.00000000
  eigenvalues    EBANDS =      -328.41706072
  atomic energy  EATOM  =      4149.05112583
  ---------------------------------------------------
  free energy    TOTEN  =      -116.85032010 eV

  energy without entropy =     -116.85032010  energy(sigma->0) =     -116.85032010


--------------------------------------------------------------------------------------------------------




--------------------------------------- Iteration      1(  32)  ---------------------------------------


    POTLOK:  cpu time      2.6302: real time      2.6309
    SETDIJ:  cpu time      0.7256: real time      0.7259
    TRIAL :  cpu time      1.2677: real time      1.2681
    CORREC:  cpu time      4.0217: real time      4.0237
    CHARGE:  cpu time      0.3117: real time      0.3122
    --------------------------------------------
      LOOP:  cpu time      8.9638: real time      8.9678

 eigenvalue-minimisations  :     0
 total energy-change (2. order) : 0.6048180E-05  (-0.1835356E-05)
 number of electron      44.0000006 magnetization 
 augmentation part       21.3335412 magnetization 

 Free energy of the ion-electron system (eV)
  ---------------------------------------------------
  alpha Z        PSCENC =         1.37722947
  Ewald energy   TEWEN  =      1659.89755665
  -Hartree energ DENC   =     -5639.73242813
  -exchange      EXHF   =         0.00000000
  -V(xc)+E(xc)   XCENC  =        13.87616814
  PAW double counting   =      4537.14232771    -4510.04444065
  entropy T*S    EENTRO =        -0.00000000
  eigenvalues    EBANDS =      -328.41785308
  atomic energy  EATOM  =      4149.05112583
  ---------------------------------------------------
  free energy    TOTEN  =      -116.85031405 eV

  energy without entropy =     -116.85031405  energy(sigma->0) =     -116.85031405


--------------------------------------------------------------------------------------------------------




--------------------------------------- Iteration      1(  33)  ---------------------------------------


    POTLOK:  cpu time      2.6284: real time      2.6291
    SETDIJ:  cpu time      0.7235: real time      0.7239
    TRIAL :  cpu time      1.2656: real time      1.2661
    CORREC:  cpu time      4.0123: real time      4.0135
    CHARGE:  cpu time      0.3133: real time      0.3136
    --------------------------------------------
      LOOP:  cpu time      8.9460: real time      8.9536

 eigenvalue-minimisations  :     0
 total energy-change (2. order) : 0.5654853E-05  (-0.1649753E-05)
 number of electron      44.0000006 magnetization 
 augmentation part       21.3335653 magnetization 

 Free energy of the ion-electron system (eV)
  ---------------------------------------------------
  alpha Z        PSCENC =         1.37722947
  Ewald energy   TEWEN  =      1659.89755665
  -Hartree energ DENC   =     -5639.73205665
  -exchange      EXHF   =         0.00000000
  -V(xc)+E(xc)   XCENC  =        13.87614598
  PAW double counting   =      4537.33756589    -4510.23927920
  entropy T*S    EENTRO =        -0.00000000
  eigenvalues    EBANDS =      -328.41859638
  atomic energy  EATOM  =      4149.05112583
  ---------------------------------------------------
  free energy    TOTEN  =      -116.85030839 eV

  energy without entropy =     -116.85030839  energy(sigma->0) =     -116.85030839


--------------------------------------------------------------------------------------------------------




--------------------------------------- Iteration      1(  34)  ---------------------------------------


    POTLOK:  cpu time      2.6156: real time      2.6315
    SETDIJ:  cpu time      0.7218: real time      0.7220
    TRIAL :  cpu time      1.2670: real time      1.2673
    CORREC:  cpu time      4.0160: real time      4.0168
    CHARGE:  cpu time      0.3127: real time      0.3130
    --------------------------------------------
      LOOP:  cpu time      8.9369: real time      8.9580

 eigenvalue-minimisations  :     0
 total energy-change (2. order) : 0.5291594E-05  (-0.1489166E-05)
 number of electron      44.0000006 magnetization 
 augmentation part       21.3335879 magnetization 

 Free energy of the ion-electron system (eV)
  ---------------------------------------------------
  alpha Z        PSCENC =         1.37722947
  Ewald energy   TEWEN  =      1659.89755665
  -Hartree energ DENC   =     -5639.73169854
  -exchange      EXHF   =         0.00000000
  -V(xc)+E(xc)   XCENC  =        13.87612437
  PAW double counting   =      4537.51926809    -4510.42061474
  entropy T*S    EENTRO =        -0.00000000
  eigenvalues    EBANDS =      -328.41929423
  atomic energy  EATOM  =      4149.05112583
  ---------------------------------------------------
  free energy    TOTEN  =      -116.85030310 eV

  energy without entropy =     -116.85030310  energy(sigma->0) =     -116.85030310


--------------------------------------------------------------------------------------------------------




--------------------------------------- Iteration      1(  35)  ---------------------------------------


    POTLOK:  cpu time      2.6281: real time      2.6293
    SETDIJ:  cpu time      0.7188: real time      0.7190
    TRIAL :  cpu time      1.2661: real time      1.2664
    CORREC:  cpu time      4.0132: real time      4.0142
    CHARGE:  cpu time      0.3128: real time      0.3130
    --------------------------------------------
      LOOP:  cpu time      8.9427: real time      8.9491

 eigenvalue-minimisations  :     0
 total energy-change (2. order) : 0.4954448E-05  (-0.1349299E-05)
 number of electron      44.0000006 magnetization 
 augmentation part       21.3336089 magnetization 

 Free energy of the ion-electron system (eV)
  ---------------------------------------------------
  alpha Z        PSCENC =         1.37722947
  Ewald energy   TEWEN  =      1659.89755665
  -Hartree energ DENC   =     -5639.73135465
  -exchange      EXHF   =         0.00000000
  -V(xc)+E(xc)   XCENC  =        13.87610339
  PAW double counting   =      4537.68863535    -4510.58964467
  entropy T*S    EENTRO =        -0.00000000
  eigenvalues    EBANDS =      -328.41994953
  atomic energy  EATOM  =      4149.05112583
  ---------------------------------------------------
  free energy    TOTEN  =      -116.85029815 eV

  energy without entropy =     -116.85029815  energy(sigma->0) =     -116.85029815


--------------------------------------------------------------------------------------------------------




--------------------------------------- Iteration      1(  36)  ---------------------------------------


    POTLOK:  cpu time      2.6286: real time      2.6292
    SETDIJ:  cpu time      0.7243: real time      0.7252
    TRIAL :  cpu time      1.2685: real time      1.2688
    CORREC:  cpu time      4.0192: real time      4.0201
    CHARGE:  cpu time      0.3153: real time      0.3155
    --------------------------------------------
      LOOP:  cpu time      8.9590: real time      8.9658

 eigenvalue-minimisations  :     0
 total energy-change (2. order) : 0.4642394E-05  (-0.1226850E-05)
 number of electron      44.0000006 magnetization 
 augmentation part       21.3336287 magnetization 

 Free energy of the ion-electron system (eV)
  ---------------------------------------------------
  alpha Z        PSCENC =         1.37722947
  Ewald energy   TEWEN  =      1659.89755665
  -Hartree energ DENC   =     -5639.73102465
  -exchange      EXHF   =         0.00000000
  -V(xc)+E(xc)   XCENC  =        13.87608307
  PAW double counting   =      4537.84672544    -4510.74742357
  entropy T*S    EENTRO =        -0.00000000
  eigenvalues    EBANDS =      -328.42056574
  atomic energy  EATOM  =      4149.05112583
  ---------------------------------------------------
  free energy    TOTEN  =      -116.85029351 eV

  energy without entropy =     -116.85029351  energy(sigma->0) =     -116.85029351


--------------------------------------------------------------------------------------------------------




--------------------------------------- Iteration      1(  37)  ---------------------------------------


[...]
  ---------------------------------------------------
  alpha Z        PSCENC =         1.37722947
  Ewald energy   TEWEN  =      1659.89755665
  -Hartree energ DENC   =     -5639.72634050
  -exchange      EXHF   =         0.00000000
  -V(xc)+E(xc)   XCENC  =        13.87578284
  PAW double counting   =      4539.76660574    -4512.66375026
  entropy T*S    EENTRO =        -0.00000000
  eigenvalues    EBANDS =      -328.42844594
  atomic energy  EATOM  =      4149.05112583
  ---------------------------------------------------
  free energy    TOTEN  =      -116.85023617 eV

  energy without entropy =     -116.85023617  energy(sigma->0) =     -116.85023617


--------------------------------------------------------------------------------------------------------




--------------------------------------- Iteration      1(  61)  ---------------------------------------


    POTLOK:  cpu time      2.6267: real time      2.6274
    SETDIJ:  cpu time      0.7229: real time      0.7238
    TRIAL :  cpu time      1.2673: real time      1.2676
    CORREC:  cpu time      4.0106: real time      4.0118
    CHARGE:  cpu time      0.3102: real time      0.3106
    --------------------------------------------
      LOOP:  cpu time      8.9448: real time      8.9487

 eigenvalue-minimisations  :     0
 total energy-change (2. order) : 0.1116113E-05  (-0.2137876E-06)
 number of electron      44.0000006 magnetization 
 augmentation part       21.3338784 magnetization 

 Free energy of the ion-electron system (eV)
  ---------------------------------------------------
  alpha Z        PSCENC =         1.37722947
  Ewald energy   TEWEN  =      1659.89755665
  -Hartree energ DENC   =     -5639.72623742
  -exchange      EXHF   =         0.00000000
  -V(xc)+E(xc)   XCENC  =        13.87577608
  PAW double counting   =      4539.80361218    -4512.70069111
  entropy T*S    EENTRO =        -0.00000000
  eigenvalues    EBANDS =      -328.42860675
  atomic energy  EATOM  =      4149.05112583
  ---------------------------------------------------
  free energy    TOTEN  =      -116.85023506 eV

  energy without entropy =     -116.85023506  energy(sigma->0) =     -116.85023506


--------------------------------------------------------------------------------------------------------




--------------------------------------- Iteration      1(  62)  ---------------------------------------


    POTLOK:  cpu time      2.6297: real time      2.6304
    SETDIJ:  cpu time      0.7187: real time      0.7189
    TRIAL :  cpu time      1.2670: real time      1.2674
    CORREC:  cpu time      4.0119: real time      4.0137
    CHARGE:  cpu time      0.3123: real time      0.3127
    --------------------------------------------
      LOOP:  cpu time      8.9435: real time      8.9520

 eigenvalue-minimisations  :     0
 total energy-change (2. order) : 0.1060221E-05  (-0.2021539E-06)
 number of electron      44.0000006 magnetization 
 augmentation part       21.3338831 magnetization 

 Free energy of the ion-electron system (eV)
  ---------------------------------------------------
  alpha Z        PSCENC =         1.37722947
  Ewald energy   TEWEN  =      1659.89755665
  -Hartree energ DENC   =     -5639.72613903
  -exchange      EXHF   =         0.00000000
  -V(xc)+E(xc)   XCENC  =        13.87576962
  PAW double counting   =      4539.83876236    -4512.73577903
  entropy T*S    EENTRO =        -0.00000000
  eigenvalues    EBANDS =      -328.42875987
  atomic energy  EATOM  =      4149.05112583
  ---------------------------------------------------
  free energy    TOTEN  =      -116.85023400 eV

  energy without entropy =     -116.85023400  energy(sigma->0) =     -116.85023400


--------------------------------------------------------------------------------------------------------




--------------------------------------- Iteration      1(  63)  ---------------------------------------


    POTLOK:  cpu time      2.6290: real time      2.6297
    SETDIJ:  cpu time      0.7177: real time      0.7180
    TRIAL :  cpu time      1.2685: real time      1.2689
    CORREC:  cpu time      4.0182: real time      4.0200
    CHARGE:  cpu time      0.3132: real time      0.3132
    --------------------------------------------
      LOOP:  cpu time      8.9511: real time      8.9569

 eigenvalue-minimisations  :     0
 total energy-change (2. order) : 0.1007793E-05  (-0.1912583E-06)
 number of electron      44.0000006 magnetization 
 augmentation part       21.3338875 magnetization 

 Free energy of the ion-electron system (eV)
  ---------------------------------------------------
  alpha Z        PSCENC =         1.37722947
  Ewald energy   TEWEN  =      1659.89755665
  -Hartree energ DENC   =     -5639.72604512
  -exchange      EXHF   =         0.00000000
  -V(xc)+E(xc)   XCENC  =        13.87576345
  PAW double counting   =      4539.87216366    -4512.76912123
  entropy T*S    EENTRO =        -0.00000000
  eigenvalues    EBANDS =      -328.42890570
  atomic energy  EATOM  =      4149.05112583
  ---------------------------------------------------
  free energy    TOTEN  =      -116.85023299 eV

  energy without entropy =     -116.85023299  energy(sigma->0) =     -116.85023299


--------------------------------------------------------------------------------------------------------




--------------------------------------- Iteration      1(  64)  ---------------------------------------


    POTLOK:  cpu time      2.6281: real time      2.6291
    SETDIJ:  cpu time      0.7201: real time      0.7204
    TRIAL :  cpu time      1.2663: real time      1.2667
    CORREC:  cpu time      4.0114: real time      4.0132
    EDDIAG:  cpu time      0.3485: real time      0.3485
    CHARGE:  cpu time      0.3101: real time      0.3106
    --------------------------------------------
      LOOP:  cpu time      9.2912: real time      9.2954

 eigenvalue-minimisations  :     0
 total energy-change (2. order) : 0.9578457E-06  (-0.1810200E-06)
 number of electron      44.0000006 magnetization 
 augmentation part       21.3338916 magnetization 

 Free energy of the ion-electron system (eV)
  ---------------------------------------------------
  alpha Z        PSCENC =         1.37722947
  Ewald energy   TEWEN  =      1659.89755665
  -Hartree energ DENC   =     -5639.72595552
  -exchange      EXHF   =         0.00000000
  -V(xc)+E(xc)   XCENC  =        13.87575756
  PAW double counting   =      4539.90391111    -4512.80081255
  entropy T*S    EENTRO =        -0.00000000
  eigenvalues    EBANDS =      -328.42904458
  atomic energy  EATOM  =      4149.05112583
  ---------------------------------------------------
  free energy    TOTEN  =      -116.85023203 eV

  energy without entropy =     -116.85023203  energy(sigma->0) =     -116.85023203


--------------------------------------------------------------------------------------------------------


  average scaling for gradient   5.4903


 average (electrostatic) potential at core
  the test charge radii are     1.1249
  (the norm of the test charge is              1.0000)
       1 -86.6934       2 -87.4578       3 -87.2222       4 -87.6708



 E-fermi :  -4.2487     XC(G=0):  -0.1656     alpha+bet : -0.0929

 Fermi energy:        -4.2486638374

 k-point     1 :       0.0000    0.0000    0.0000
  band No.  band energies     occupation 
      1      -9.1540      2.00000
      2      -8.8364      2.00000
      3      -8.6424      2.00000
      4      -8.5342      2.00000
      5      -8.4663      2.00000
      6      -8.2127      2.00000
      7      -8.0095      2.00000
      8      -7.7941      2.00000
      9      -7.4977      2.00000
     10      -7.4754      2.00000
     11      -7.4135      2.00000
     12      -7.3961      2.00000
     13      -7.3811      2.00000
     14      -7.2888      2.00000
     15      -7.1756      2.00000
     16      -6.9534      2.00000
     17      -6.9456      2.00000
     18      -6.8552      2.00000
     19      -6.8040      2.00000
     20      -6.6082      2.00000
     21      -6.3026      2.00000
     22      -4.4682      2.00000
     23      -3.3416      0.00000
     24      -2.2947      0.00000
     25      -1.5314      0.00000
     26      -0.8800      0.00000
     27      -0.5841      0.00000
     28      -0.2596      0.00000
     29      -0.0177      0.00000
     30       0.1481      0.00000
     31       0.4025      0.00000
     32       0.4244      0.00000
     33       0.4472      0.00000
     34       0.4591      0.00000
     35       0.4846      0.00000
     36       0.5312      0.00000
     37       0.5429      0.00000
     38       0.7014      0.00000
     39       0.7483      0.00000
     40       0.7493      0.00000
     41       0.7532      0.00000
     42       0.7584      0.00000
     43       0.7647      0.00000
     44       0.7754      0.00000
     45       0.8160      0.00000
     46       0.8355      0.00000
     47       0.8622      0.00000
     48       0.8774      0.00000
     49       0.9314      0.00000
     50       1.0230      0.00000
     51       1.0376      0.00000
     52       1.0825      0.00000
     53       1.0912      0.00000
     54       1.1315      0.00000
     55       1.1676      0.00000
     56       1.1900      0.00000
     57       1.2010      0.00000
     58       1.2554      0.00000
     59       1.3408      0.00000
     60       1.3695      0.00000
     61       1.4104      0.00000
     62       1.4551      0.00000
     63       1.4895      0.00000
     64       1.5391      0.00000
     65       1.5410      0.00000
     66       1.6549      0.00000
     67       1.6562      0.00000
     68       1.6634      0.00000
     69       1.6715      0.00000
     70       1.6782      0.00000
     71       1.6962      0.00000
     72       1.7033      0.00000
     73       1.7169      0.00000
     74       1.7366      0.00000
     75       1.7607      0.00000
     76       1.7647      0.00000
     77       1.7673      0.00000
     78       1.7741      0.00000
     79       1.7765      0.00000
     80       1.7791      0.00000
     81       1.7894      0.00000
     82       1.8004      0.00000
     83       1.8023      0.00000
     84       1.8227      0.00000
     85       1.8239      0.00000
     86       1.8412      0.00000
     87       1.8675      0.00000
     88       1.9065      0.00000
     89       1.9556      0.00000
     90       1.9988      0.00000
     91       1.9989      0.00000
     92       2.0155      0.00000
     93       2.0240      0.00000
     94       2.0364      0.00000
     95       2.0471      0.00000
     96       2.0580      0.00000


--------------------------------------------------------------------------------------------------------


 soft charge-density along one line, spin component           1
         0         1         2         3         4         5         6         7         8         9
 total charge-density along one line

 pseudopotential strength for first ion, spin component:           1
-10.473  -0.000   0.000  -0.016   0.000 -10.469  -0.000   0.000
 -0.000 -10.503  -0.009  -0.000   0.019  -0.000 -10.498  -0.008
  0.000  -0.009 -10.492  -0.000  -0.014   0.000  -0.008 -10.487
 -0.016  -0.000  -0.000 -10.475  -0.000  -0.015  -0.000  -0.000
  0.000   0.019  -0.014  -0.000 -10.473   0.000   0.018  -0.013
-10.469  -0.000   0.000  -0.015   0.000 -10.440  -0.000   0.000
 -0.000 -10.498  -0.008  -0.000   0.018  -0.000 -10.468  -0.008
  0.000  -0.008 -10.487  -0.000  -0.013   0.000  -0.008 -10.458
 -0.015  -0.000  -0.000 -10.471  -0.000  -0.014  -0.000  -0.000
  0.000   0.018  -0.013  -0.000 -10.469   0.000   0.017  -0.012
  0.000   0.010   0.005   0.000  -0.008   0.000   0.010   0.005
  0.000   0.016   0.008   0.000  -0.013   0.000   0.016   0.008
 -0.000  -0.024   0.016   0.000   0.026  -0.000  -0.021   0.015
  0.000  -0.027  -0.031  -0.000  -0.002   0.000  -0.024  -0.029
 -0.028   0.000  -0.000  -0.027   0.000  -0.027   0.000  -0.000
 -0.000  -0.033   0.020  -0.000   0.036  -0.000  -0.030   0.019
 -0.000  -0.038  -0.042  -0.000  -0.001  -0.000  -0.035  -0.039
 -0.037  -0.000  -0.000  -0.035   0.000  -0.034  -0.000  -0.000
 total augmentation occupancy for first ion, spin component:           1
  2.290   0.000  -0.000   0.053  -0.000  -0.213  -0.001   0.000  -0.082   0.000  -0.002   0.001  -0.000  -0.000   0.000  -0.000
  0.000   2.461   0.024   0.000  -0.195  -0.001  -0.511  -0.096  -0.001   0.234  -0.985   0.310  -0.083  -0.057  -0.000  -0.006
 -0.000   0.024   2.349   0.000   0.012   0.000  -0.096  -0.321  -0.000  -0.028  -0.455   0.128  -0.008  -0.021   0.000   0.011
  0.053   0.000   0.000   2.309  -0.000  -0.082  -0.001  -0.000  -0.228   0.000  -0.002   0.001  -0.000  -0.000  -0.005   0.000
 -0.000  -0.195   0.012  -0.000   2.395   0.000   0.233  -0.028   0.000  -0.334   0.660  -0.212   0.060   0.042   0.000   0.011
 -0.213  -0.001   0.000  -0.082   0.000   0.122   0.001  -0.000   0.108  -0.000   0.001  -0.000   0.000   0.000   0.023  -0.000
 -0.001  -0.511  -0.096  -0.001   0.233   0.001   0.532   0.157   0.001  -0.270   0.761  -0.210   0.103   0.098   0.000  -0.006
  0.000  -0.096  -0.321  -0.000  -0.028  -0.000   0.157   0.272   0.000   0.039   0.359  -0.088   0.002   0.055   0.000  -0.000
 -0.082  -0.001  -0.000  -0.228   0.000   0.108   0.001   0.000   0.135  -0.000   0.002  -0.000   0.000   0.000   0.024  -0.000
  0.000   0.234  -0.028   0.000  -0.334  -0.000  -0.270   0.039  -0.000   0.257  -0.494   0.140  -0.083  -0.041  -0.000   0.005
 -0.002  -0.985  -0.455  -0.002   0.660   0.001   0.761   0.359   0.002  -0.494   3.826  -0.947   0.226   0.206   0.000  -0.009
  0.001   0.310   0.128   0.001  -0.212  -0.000  -0.210  -0.088  -0.000   0.140  -0.947   0.239  -0.061  -0.053  -0.000   0.002
 -0.000  -0.083  -0.008  -0.000   0.060   0.000   0.103   0.002   0.000  -0.083   0.226  -0.061   0.032   0.019   0.000  -0.002
 -0.000  -0.057  -0.021  -0.000   0.042   0.000   0.098   0.055   0.000  -0.041   0.206  -0.053   0.019   0.024   0.000  -0.001
  0.000  -0.000   0.000  -0.005   0.000   0.023   0.000   0.000   0.024  -0.000   0.000  -0.000   0.000   0.000   0.006  -0.000
 -0.000  -0.006   0.011   0.000   0.011  -0.000  -0.006  -0.000  -0.000   0.005  -0.009   0.002  -0.002  -0.001  -0.000   0.000
  0.000  -0.009  -0.015  -0.000  -0.004  -0.000  -0.006  -0.003  -0.000   0.003  -0.007   0.001  -0.001  -0.002  -0.000   0.000
 -0.017   0.000  -0.000  -0.015   0.000  -0.001  -0.000   0.000  -0.001  -0.000   0.000  -0.000  -0.000  -0.000  -0.001   0.000


------------------------ aborting loop because EDIFF is reached ----------------------------------------


    FORLOC:  cpu time      0.0027: real time      0.0027
    FORNL :  cpu time      0.1335: real time      0.1335
    STRESS:  cpu time      4.3244: real time      4.3261
    FORCOR:  cpu time      1.6406: real time      1.6412
    OFIELD:  cpu time      0.0004: real time      0.0004

  FORCE on cell =-STRESS in cart. coord.  units (eV):
  Direction    XX          YY          ZZ          XY          YZ          ZX
  --------------------------------------------------------------------------------------
  Alpha Z     1.37723     1.37723     1.37723
  Ewald    -597.83777  1525.39640   732.33852     3.84128   442.14920     3.05781
  Hartree   978.92641  2703.87421  1956.92524     3.07024   358.69454     2.32577
  E(xc)    -256.68100  -256.01385  -256.12148     0.00097     0.23917     0.00078
  Local   -1026.10783 -4864.15387 -3317.64465    -6.89165  -799.03334    -5.35311
  n-local   -44.99324   -45.94116   -48.53008     0.00057     0.20428    -0.00399
  augment   388.79781   385.90995   385.29756    -0.00828    -0.57019    -0.00993
  Kinetic   556.45375   547.86537   545.26633    -0.01635    -1.62250    -0.02093
  Fock        0.00000     0.00000     0.00000     0.00000     0.00000     0.00000
  -------------------------------------------------------------------------------------
  Total      -0.06464    -1.68571    -1.09134    -0.00322     0.06117    -0.00361
  in kB      -0.01048    -0.27332    -0.17695    -0.00052     0.00992    -0.00059
  external pressure =       -0.15 kB  Pullay stress =        0.00 kB


 VOLUME and BASIS-vectors are now :
 -----------------------------------------------------------------------------
  energy-cutoff  :      520.00
  volume of cell :     9881.61
      direct lattice vectors                 reciprocal lattice vectors
    21.138852197  0.000000000  0.000000000     0.047306258  0.000000000  0.000000000
     0.000000000 21.138852197  0.000000000     0.000000000  0.047306258  0.000000000
     0.000000000  0.000000000 22.113885220     0.000000000  0.000000000  0.045220457

  length of vectors
    21.138852197 21.138852197 22.113885220     0.047306258  0.047306258  0.045220457


 FORCES acting on ions:
    Electron-Ion                     Ewald-Force                    Non-Local-Force
 -----------------------------------------------------------------------------------------------
   0.601E+00 0.382E+03 0.218E+03   -.594E+00 -.376E+03 -.213E+03   -.447E-02 -.567E+01 -.539E+01
   0.163E+00 0.208E+03 -.362E+03   -.167E+00 -.207E+03 0.354E+03   0.145E-01 -.306E+00 0.774E+01
   -.149E+01 -.389E+03 -.291E+03   0.146E+01 0.384E+03 0.285E+03   0.429E-01 0.531E+01 0.578E+01
   0.716E+00 -.200E+03 0.436E+03   -.696E+00 0.199E+03 -.426E+03   -.119E-01 0.301E+00 -.938E+01
 -----------------------------------------------------------------------------------------------
   -.754E-02 0.376E+00 0.124E+01   0.111E-15 0.284E-13 0.284E-13   0.410E-01 -.366E+00 -.125E+01


 POSITION                                       TOTAL-FORCE (eV/Angst)
 -----------------------------------------------------------------------------------
      8.45714      9.05883     13.49759        -0.005376      0.345727      0.085768
      8.46060     10.81262     15.42040         0.001493      0.171361     -0.320513
      8.46768     13.55697     15.76553         0.004859     -0.126500     -0.153964
      8.45984     12.47141     13.36585        -0.000976     -0.390588      0.388709
 -----------------------------------------------------------------------------------
    total drift:                                0.033485      0.010031     -0.009277


--------------------------------------------------------------------------------------------------------



  FREE ENERGIE OF THE ION-ELECTRON SYSTEM (eV)
  ---------------------------------------------------
  free  energy   TOTEN  =      -116.85023203 eV

  energy  without entropy=     -116.85023203  energy(sigma->0) =     -116.85023203



--------------------------------------------------------------------------------------------------------


    POTLOK:  cpu time      2.4635: real time      2.4642


--------------------------------------------------------------------------------------------------------


     LOOP+:  cpu time    552.9783: real time    553.4130
    4ORBIT:  cpu time      0.0000: real time      0.0000

 total amount of memory used by VASP MPI-rank0   153554. kBytes
=======================================================================

   base      :      30000. kBytes
   nonlr-proj:       1308. kBytes
   fftplans  :      35474. kBytes
   grid      :      83562. kBytes
   one-center:         15. kBytes
   wavefun   :       3195. kBytes

  
  
 General timing and accounting informations for this job:
 ========================================================
  
                  Total CPU time used (sec):      576.321
                            User time (sec):      574.590
                          System time (sec):        1.731
                         Elapsed time (sec):      578.341
  
                   Maximum memory used (kb):      523584.
                   Average memory used (kb):          N/A
  
                          Minor page faults:        32179
                          Major page faults:            0
                 Voluntary context switches:        10717
