 vasp.6.3.0 20Jan22 (build Apr  1 2022 16:44:48) complex                         
 executed on        HPECrayEX_GCC date 2023.01.06  18:27:09
 running  768 mpi-ranks, with    1 threads/rank
 distrk:  each k-point on  384 cores,    2 groups
 distr:  one band on NCORE=   4 cores,   96 groups


--------------------------------------------------------------------------------------------------------


 INCAR:
   SYSTEM = MgO-rocksalt
   ISMEAR = 0
   SIGMA = 0.05
   EDIFF = 1E-6
   ALGO = ALL
   ISTART = 0
   IBRION = -1
   NSW = 0
   ISYM = 2
   GGA = PE
   IVDW = 263
   ENCUT = 520
   PREC = Accurate
   LASPH = .TRUE.
   LREAL = Auto
   ISPIN = 1
   NELM = 200
   NELMIN = 8
   NCORE = 4
   KPAR = 2
   LWAVE = .FALSE.
   LCHARG = .FALSE.

 POTCAR:    PAW_PBE Ag 02Apr2005                  
 POTCAR:    PAW_PBE Ag 02Apr2005                  
   SHA256 =  6550cfa3543261e132c169e1b98a529204624d72be14e2da2e0242bcb74a174d Ag/POTCAR             
   COPYR  = (c) Copyright 02Apr2005 Georg Kresse                                                    
   COPYR  = This file is part of the software VASP. Any use, copying, and all other rights are regul
   COPYR  = If you do not have a valid VASP license, you may not use, copy or distribute this file. 
   VRHFIN =Ag : s1 d10                                                                              
   LEXCH  = PE                                                                                      
   EATOM  =  1037.2675 eV,   76.2370 Ry                                                             
                                                                                                    
   TITEL  = PAW_PBE Ag 02Apr2005                                                                    
   LULTRA =        F    use ultrasoft PP ?                                                          
   IUNSCR =        1    unscreen: 0-lin 1-nonlin 2-no                                               
   RPACOR =    2.000    partial core radius                                                         
   POMASS =  107.868; ZVAL   =   11.000    mass and valenz                                          
   RCORE  =    2.500    outmost cutoff radius                                                       
   RWIGS  =    2.840; RWIGS  =    1.503    wigner-seitz radius (au A)                               
   ENMAX  =  249.844; ENMIN  =  187.383 eV                                                          
   ICORE  =        3    local potential                                                             
   LCOR   =        T    correct aug charges                                                         
   LPAW   =        T    paw PP                                                                      
   EAUG   =  412.496                                                                                
   DEXC   =    0.000                                                                                
   RMAX   =    2.560    core radius for proj-oper                                                   
   RAUG   =    1.300    factor for augmentation sphere                                              
   RDEP   =    2.576    radius for radial grids                                                     
   RDEPT  =    2.072    core radius for aug-charge                                                  
                                                                                                    
   Atomic configuration                                                                             
   12 entries                                                                                       
     n  l   j            E        occ.                                                              
     1  0  0.50    -25324.9161   2.0000                                                             
     2  0  0.50     -3728.5341   2.0000                                                             
     2  1  1.50     -3344.0404   6.0000                                                             
     3  0  0.50      -683.5581   2.0000                                                             
     3  1  1.50      -557.3225   6.0000                                                             
     3  2  2.50      -358.3853  10.0000                                                             
     4  0  0.50       -95.0341   2.0000                                                             
     4  1  1.50       -58.5511   6.0000                                                             
     4  2  2.50        -7.4440  10.0000                                                             
     5  0  0.50        -4.4045   1.0000                                                             
     5  1  0.50        -1.3606   0.0000                                                             
     4  3  2.50        -1.3606   0.0000                                                             
   Description                                                                                      
     l       E           TYP  RCUT    TYP  RCUT                                                     
     2     -7.4439781     23  2.400                                                                 
     2     -8.8045607     23  2.400                                                                 
     0     -4.4044681     23  2.400                                                                 
     0      1.9520038     23  2.400                                                                 
     1     -1.3605826     23  2.500                                                                 
     1     27.2116520     23  2.500                                                                 
     3     -4.0817478     23  2.400                                                                 
  local pseudopotential read in
  partial core-charges read in
  partial kinetic energy density read in
  atomic valenz-charges read in
  non local Contribution for L=           2  read in
    real space projection operators read in
  non local Contribution for L=           2  read in
    real space projection operators read in
  non local Contribution for L=           0  read in
    real space projection operators read in
  non local Contribution for L=           0  read in
    real space projection operators read in
  non local Contribution for L=           1  read in
    real space projection operators read in
  non local Contribution for L=           1  read in
    real space projection operators read in
    PAW grid and wavefunctions read in

   number of l-projection  operators is LMAX  =           6
   number of lm-projection operators is LMMAX =          18

 -----------------------------------------------------------------------------
|                                                                             |
|               ----> ADVICE to this user running VASP <----                  |
|                                                                             |
|     You have a (more or less) 'small supercell' and for smaller cells       |
|     it is recommended to use the reciprocal-space projection scheme!        |
|     The real-space optimization is not efficient for small cells and it     |
|     is also less accurate ...                                               |
|     Therefore, set LREAL=.FALSE. in the INCAR file.                         |
|                                                                             |
 -----------------------------------------------------------------------------

 Optimization of the real space projectors (new method)

 maximal supplied QI-value         = 15.12
 optimisation between [QCUT,QGAM] = [ 11.64, 23.28] = [ 37.95,151.78] Ry 
 Optimized for a Real-space Cutoff    1.45 Angstroem

   l    n(q)    QCUT    max X(q) W(low)/X(q) W(high)/X(q)  e(spline) 
   2      9    11.641    53.897    0.22E-03    0.42E-04    0.28E-06
   2      9    11.641    52.416    0.23E-03    0.44E-04    0.29E-06
   0     10    11.641   122.045    0.51E-04    0.25E-04    0.16E-06
   0     10    11.641    73.629    0.49E-04    0.24E-04    0.16E-06
   1     10    11.641    15.255    0.99E-04    0.55E-04    0.11E-06
   1     10    11.641     9.562    0.81E-04    0.47E-04    0.95E-07
  PAW_PBE Ag 02Apr2005                  :
 energy of atom  1       EATOM=-1037.2675
 kinetic energy error for atom=    0.0047 (will be added to EATOM!!)


 POSCAR: ag4
  positions in direct lattice
  velocities in cartesian coordinates
 exchange correlation table for  LEXCH =        8
   RHO(1)=    0.500       N(1)  =     2000
   RHO(2)=  100.500       N(2)  =     4000



--------------------------------------------------------------------------------------------------------


 ion  position               nearest neighbor table
   1  0.035  0.010  0.069-   3 2.54   2 3.13   4 3.15
   2  0.964  0.984  0.931-   4 2.54   1 3.13   3 3.14
   3  0.943  0.922  0.074-   1 2.54   4 3.13   2 3.14
   4  0.896  0.057  0.010-   2 2.54   3 3.13   1 3.15

  LATTYP: Found a simple cubic cell.
 ALAT       =    20.0000000000
  
  Lattice vectors:
  
 A1 = (  20.0000000000,   0.0000000000,   0.0000000000)
 A2 = (   0.0000000000,  20.0000000000,   0.0000000000)
 A3 = (   0.0000000000,   0.0000000000,  20.0000000000)


Analysis of symmetry for initial positions (statically):
=====================================================================
 Subroutine PRICEL returns:
 Original cell was already a primitive cell.
 

 Routine SETGRP: Setting up the symmetry group for a 
 simple cubic supercell.


 Subroutine GETGRP returns: Found  1 space group operations
 (whereof  1 operations were pure point group operations)
 out of a pool of 48 trial point group operations.


The static configuration has the point symmetry C_1 .


Analysis of symmetry for dynamics (positions and initial velocities):
=====================================================================
 Subroutine PRICEL returns:
 Original cell was already a primitive cell.
 

 Routine SETGRP: Setting up the symmetry group for a 
 simple cubic supercell.


 Subroutine GETGRP returns: Found  1 space group operations
 (whereof  1 operations were pure point group operations)
 out of a pool of 48 trial point group operations.


The dynamic configuration has the point symmetry C_1 .


 Subroutine INISYM returns: Found  1 space group operations
 (whereof  1 operations are pure point group operations),
 and found     1 'primitive' translations


----------------------------------------------------------------------------------------

                                     Primitive cell                                     

  volume of cell :    8000.0000

  direct lattice vectors                    reciprocal lattice vectors
    20.000000000  0.000000000  0.000000000     0.050000000  0.000000000  0.000000000
     0.000000000 20.000000000  0.000000000     0.000000000  0.050000000  0.000000000
     0.000000000  0.000000000 20.000000000     0.000000000  0.000000000  0.050000000

  length of vectors
    20.000000000 20.000000000 20.000000000     0.050000000  0.050000000  0.050000000

  position of ions in fractional coordinates (direct lattice)
     0.034646438  0.009917534  0.068709416
     0.964401642  0.983614304  0.931448023
     0.943109585  0.921907135  0.074160645
     0.896411985  0.056806727  0.010030815

  ion indices of the primitive-cell ions
   primitive index   ion index
                 1           1
                 2           2
                 3           3
                 4           4

----------------------------------------------------------------------------------------



 KPOINTS: KPOINTS created by Atomic Simulation Env

Automatic generation of k-mesh.
 Grid dimensions read from file:
 generate k-points for:    1    1    1

 Generating k-lattice:

  Cartesian coordinates                     Fractional coordinates (reciprocal lattice)
     0.050000000  0.000000000  0.000000000     1.000000000  0.000000000  0.000000000
     0.000000000  0.050000000  0.000000000     0.000000000  1.000000000  0.000000000
     0.000000000  0.000000000  0.050000000     0.000000000  0.000000000  1.000000000

  Length of vectors
     0.050000000  0.050000000  0.050000000

  Shift w.r.t. Gamma in fractional coordinates (k-lattice)
     0.000000000  0.000000000  0.000000000

 
 Subroutine IBZKPT returns following result:
 ===========================================
 
 Found      1 irreducible k-points:
 
 Following reciprocal coordinates:
            Coordinates               Weight
  0.000000  0.000000  0.000000      1.000000
 
 Following cartesian coordinates:
            Coordinates               Weight
  0.000000  0.000000  0.000000      1.000000
 


--------------------------------------------------------------------------------------------------------




 Dimension of arrays:
   k-points           NKPTS =      1   k-points in BZ     NKDIM =      1   number of bands    NBANDS=     96
   number of dos      NEDOS =    301   number of ions     NIONS =      4
   non local maximal  LDIM  =      6   non local SUM 2l+1 LMDIM =     18
   total plane-waves  NPLWV = ******
   max r-space proj   IRMAX =   5390   max aug-charges    IRDMAX=  20940
   dimension x,y,z NGX =   150 NGY =  150 NGZ =  150
   dimension x,y,z NGXF=   300 NGYF=  300 NGZF=  300
   support grid    NGXF=   300 NGYF=  300 NGZF=  300
   ions per type =               4
   NGX,Y,Z   is equivalent  to a cutoff of  12.47, 12.47, 12.47 a.u.
   NGXF,Y,Z  is equivalent  to a cutoff of  24.94, 24.94, 24.94 a.u.

 SYSTEM =  MgO-rocksalt                            
 POSCAR =  ag4                                     

 Startparameter for this run:
   NWRITE =      2    write-flag & timer
   PREC   = accura    normal or accurate (medium, high low for compatibility)
   ISTART =      0    job   : 0-new  1-cont  2-samecut
   ICHARG =      2    charge: 1-file 2-atom 10-const
   ISPIN  =      1    spin polarized calculation?
   LNONCOLLINEAR =      F non collinear calculations
   LSORBIT =      F    spin-orbit coupling
   INIWAV =      1    electr: 0-lowe 1-rand  2-diag
   LASPH  =      T    aspherical Exc in radial PAW
 Electronic Relaxation 1
   ENCUT  =  520.0 eV  38.22 Ry    6.18 a.u.  37.19 37.19 37.19*2*pi/ulx,y,z
   ENINI  =  520.0     initial cutoff
   ENAUG  =  412.5 eV  augmentation charge cutoff
   NELM   =    200;   NELMIN=  8; NELMDL= -5     # of ELM steps 
   EDIFF  = 0.1E-05   stopping-criterion for ELM
   LREAL  =      T    real-space projection
   NLSPLINE    = F    spline interpolate recip. space projectors
   LCOMPAT=      F    compatible to vasp.4.4
   GGA_COMPAT  = T    GGA compatible to vasp.4.4-vasp.4.6
   LMAXPAW     = -100 max onsite density
   LMAXMIX     =    2 max onsite mixed and CHGCAR
   VOSKOWN=      0    Vosko Wilk Nusair interpolation
   ROPT   =   -0.00025
 Ionic relaxation
   EDIFFG = 0.1E-04   stopping-criterion for IOM
   NSW    =      0    number of steps for IOM
   NBLOCK =      1;   KBLOCK =      1    inner block; outer block 
   IBRION =     -1    ionic relax: 0-MD 1-quasi-New 2-CG
   NFREE  =      0    steps in history (QN), initial steepest desc. (CG)
   ISIF   =      2    stress and relaxation
   IWAVPR =     10    prediction:  0-non 1-charg 2-wave 3-comb
   ISYM   =      2    0-nonsym 1-usesym 2-fastsym
   LCORR  =      T    Harris-Foulkes like correction to forces

   POTIM  = 0.5000    time-step for ionic-motion
   TEIN   =    0.0    initial temperature
   TEBEG  =    0.0;   TEEND  =   0.0 temperature during run
   SMASS  =  -3.00    Nose mass-parameter (am)
   estimated Nose-frequenzy (Omega)   =  0.10E-29 period in steps = 0.13E+47 mass=  -0.914E-26a.u.
   SCALEE = 1.0000    scale energy and forces
   NPACO  =    256;   APACO  = 10.0  distance and # of slots for P.C.
   PSTRESS=    0.0 pullay stress

  Mass of Ions in am
   POMASS = 107.87
  Ionic Valenz
   ZVAL   =  11.00
  Atomic Wigner-Seitz radii
   RWIGS  =  -1.00
  virtual crystal weights 
   VCA    =   1.00
   NELECT =      44.0000    total number of electrons
   NUPDOWN=      -1.0000    fix difference up-down

 DOS related values:
   EMIN   =  10.00;   EMAX   =-10.00  energy-range for DOS
   EFERMI =   0.00
   ISMEAR =     0;   SIGMA  =   0.05  broadening in eV -4-tet -1-fermi 0-gaus

 Electronic relaxation 2 (details)
   IALGO  =     58    algorithm
   LDIAG  =      T    sub-space diagonalisation (order eigenvalues)
   LSUBROT=      F    optimize rotation matrix (better conditioning)
   TURBO    =      0    0=normal 1=particle mesh
   IRESTART =      0    0=no restart 2=restart with 2 vectors
   NREBOOT  =      0    no. of reboots
   NMIN     =      0    reboot dimension
   EREF     =   0.00    reference energy to select bands
   IMIX   =      4    mixing-type and parameters
     AMIX     =   0.40;   BMIX     =  1.00
     AMIX_MAG =   1.60;   BMIX_MAG =  1.00
     AMIN     =   0.10
     WC   =   100.;   INIMIX=   1;  MIXPRE=   1;  MAXMIX= -45

 Intra band minimization:
   WEIMIN = 0.0000     energy-eigenvalue tresh-hold
   EBREAK =  0.26E-08  absolut break condition
   DEPER  =   0.30     relativ break condition  

   TIME   =   0.40     timestep for ELM

  volume/ion in A,a.u.               =    2000.00     13496.67
  Fermi-wavevector in a.u.,A,eV,Ry     =   0.288976  0.546086  1.136187  0.083507
  Thomas-Fermi vector in A             =   1.146265

 Write flags
   LWAVE        =      F    write WAVECAR
   LDOWNSAMPLE  =      F    k-point downsampling of WAVECAR
   LCHARG       =      F    write CHGCAR
   LVTOT        =      F    write LOCPOT, total local potential
   LVHAR        =      F    write LOCPOT, Hartree potential only
   LELF         =      F    write electronic localiz. function (ELF)
   LORBIT       =      0    0 simple, 1 ext, 2 COOP (PROOUT), +10 PAW based schemes


 Dipole corrections
   LMONO  =      F    monopole corrections only (constant potential shift)
   LDIPOL =      F    correct potential (dipole corrections)
   IDIPOL =      0    1-x, 2-y, 3-z, 4-all directions 
   EPSILON=  1.0000000 bulk dielectric constant

 Exchange correlation treatment:
   GGA     =    PE    GGA type
   LEXCH   =     8    internal setting for exchange type
   LIBXC   =     F    Libxc                    
   VOSKOWN =     0    Vosko Wilk Nusair interpolation
   LHFCALC =     F    Hartree Fock is set to
   LHFONE  =     F    Hartree Fock one center treatment
   AEXX    =    0.0000 exact exchange contribution

 Linear response parameters
   LEPSILON=     F    determine dielectric tensor
   LRPA    =     F    only Hartree local field effects (RPA)
   LNABLA  =     F    use nabla operator in PAW spheres
   LVEL    =     F    velocity operator in full k-point grid
   CSHIFT  =0.1000    complex shift for real part using Kramers Kronig
   OMEGAMAX=  -1.0    maximum frequency
   DEG_THRESHOLD= 0.2000000E-02 threshold for treating states as degnerate
   RTIME   =   -0.100 relaxation time in fs
  (WPLASMAI=    0.000 imaginary part of plasma frequency in eV, 0.658/RTIME)
   DFIELD  = 0.0000000 0.0000000 0.0000000 field for delta impulse in time

  Optional k-point grid parameters
   LKPOINTS_OPT  =     F    use optional k-point grid
   KPOINTS_OPT_MODE=     1    mode for optional k-point grid

 Orbital magnetization related:
   ORBITALMAG=     F  switch on orbital magnetization
   LCHIMAG   =     F  perturbation theory with respect to B field
   DQ        =  0.001000  dq finite difference perturbation B field
   LLRAUG    =     F  two centre corrections for induced B field



--------------------------------------------------------------------------------------------------------


 Static calculation
 charge density and potential will be updated during run
 non-spin polarized calculation
 Conjugate gradient for all bands (Freysoldt, et al. PRB 79, 241103 (2009))
 preconditioned conjugated gradient                                        
 perform sub-space diagonalisation
    before iterative eigenvector-optimisation
 modified Broyden-mixing scheme, WC =      100.0
 initial mixing is a Kerker type mixing with AMIX =  0.4000 and BMIX =      1.0000
 Hartree-type preconditioning will be used
 using additional bands           74
 real space projection scheme for non local part
 use partial core corrections
 no Harris-corrections to forces 
 use gradient corrections 
 use of overlap-Matrix (Vanderbilt PP)
 Gauss-broadening in eV      SIGMA  =   0.05


--------------------------------------------------------------------------------------------------------


  energy-cutoff  :      520.00
  volume of cell :     8000.00
      direct lattice vectors                 reciprocal lattice vectors
    20.000000000  0.000000000  0.000000000     0.050000000  0.000000000  0.000000000
     0.000000000 20.000000000  0.000000000     0.000000000  0.050000000  0.000000000
     0.000000000  0.000000000 20.000000000     0.000000000  0.000000000  0.050000000

  length of vectors
    20.000000000 20.000000000 20.000000000     0.050000000  0.050000000  0.050000000



 k-points in units of 2pi/SCALE and weight: KPOINTS created by Atomic Simulation Env
   0.00000000  0.00000000  0.00000000       1.000

 k-points in reciprocal lattice and weights: KPOINTS created by Atomic Simulation Env
   0.00000000  0.00000000  0.00000000       1.000

 position of ions in fractional coordinates (direct lattice) 
   0.03464644  0.00991753  0.06870942
   0.96440164  0.98361430  0.93144802
   0.94310959  0.92190714  0.07416065
   0.89641199  0.05680673  0.01003082

 position of ions in cartesian coordinates  (Angst):
   0.69292875  0.19835069  1.37418833
  19.28803284 19.67228608 18.62896046
  18.86219170 18.43814270  1.48321290
  17.92823970  1.13613453  0.20061631



--------------------------------------------------------------------------------------------------------


 k-point   1 :   0.0000 0.0000 0.0000  plane waves:  215503

 maximum and minimum number of plane-waves per node :     53900    53857

 maximum number of plane-waves:    215503
 maximum index in each direction: 
   IXMAX=   37   IYMAX=   37   IZMAX=   37
   IXMIN=  -37   IYMIN=  -37   IZMIN=  -37


 real space projection operators:
  total allocation   :       2912.20 KBytes
  max/ min on nodes  :        776.39        675.70


 parallel 3D FFT for wavefunctions:
    minimum data exchange during FFTs selected (reduces bandwidth)
 parallel 3D FFT for charge:
    minimum data exchange during FFTs selected (reduces bandwidth)


 total amount of memory used by VASP MPI-rank0   100908. kBytes
=======================================================================

   base      :      30000. kBytes
   nonlr-proj:       1317. kBytes
   fftplans  :      28354. kBytes
   grid      :      38630. kBytes
   one-center:         15. kBytes
   wavefun   :       2592. kBytes

     INWAV:  cpu time      0.0002: real time      0.0003
 Broyden mixing: mesh for mixing (old mesh)
   NGX = 75   NGY = 75   NGZ = 75
  (NGX  =300   NGY  =300   NGZ  =300)
  gives a total of 421875 points

 initial charge density was supplied:
 charge density of overlapping atoms calculated
 number of electron      44.0000000 magnetization 
 keeping initial charge density in first step


--------------------------------------------------------------------------------------------------------


 Maximum index for non-local projection operator         1457
 Maximum index for augmentation-charges          559 (set IRDMAX)


--------------------------------------------------------------------------------------------------------


 First call to EWALD:  gamma=   0.089
 Maximum number of real-space cells 3x 3x 3
 Maximum number of reciprocal cells 3x 3x 3

    FEWALD:  cpu time      0.0013: real time      0.0013


--------------------------------------- Iteration      1(   1)  ---------------------------------------


    POTLOK:  cpu time      0.1141: real time      0.1144
    SETDIJ:  cpu time      0.1791: real time      0.1791
    TRIAL :  cpu time      0.5416: real time      0.5418
    CORREC:  cpu time      0.0011: real time      0.0011
    --------------------------------------------
      LOOP:  cpu time      0.8370: real time      0.8376

 eigenvalue-minimisations  :   192
 total energy-change (2. order) : 0.3116728E+03  (-0.9645119E+03)
 number of electron      44.0000000 magnetization 
 augmentation part       44.0000000 magnetization 

 Free energy of the ion-electron system (eV)
  ---------------------------------------------------
  alpha Z        PSCENC =         1.70115614
  Ewald energy   TEWEN  =      1639.76480008
  -Hartree energ DENC   =     -5603.35729384
  -exchange      EXHF   =         0.00000000
  -V(xc)+E(xc)   XCENC  =       -46.72429316
  PAW double counting   =      4013.84859731    -3829.39709692
  entropy T*S    EENTRO =        -0.03959524
  eigenvalues    EBANDS =       -13.17457036
  atomic energy  EATOM  =      4149.05112583
  ---------------------------------------------------
  free energy    TOTEN  =       311.67282982 eV

  energy without entropy =      311.71242506  energy(sigma->0) =      311.69262744


--------------------------------------------------------------------------------------------------------




--------------------------------------- Iteration      1(   2)  ---------------------------------------


    TRIAL :  cpu time      1.9150: real time      1.9151
    CORREC:  cpu time      0.0004: real time      0.0004
    --------------------------------------------
      LOOP:  cpu time      1.9186: real time      1.9229

 eigenvalue-minimisations  :   384
 total energy-change (2. order) :-0.3082504E+03  (-0.3079555E+03)
 number of electron      44.0000000 magnetization 
 augmentation part       44.0000000 magnetization 

 Free energy of the ion-electron system (eV)
  ---------------------------------------------------
  alpha Z        PSCENC =         1.70115614
  Ewald energy   TEWEN  =      1639.76480008
  -Hartree energ DENC   =     -5603.35729384
  -exchange      EXHF   =         0.00000000
  -V(xc)+E(xc)   XCENC  =       -46.72429316
  PAW double counting   =      4013.84859731    -3829.39709692
  entropy T*S    EENTRO =        -0.00000000
  eigenvalues    EBANDS =      -321.46460585
  atomic energy  EATOM  =      4149.05112583
  ---------------------------------------------------
  free energy    TOTEN  =         3.42238957 eV

  energy without entropy =        3.42238957  energy(sigma->0) =        3.42238957


--------------------------------------------------------------------------------------------------------




--------------------------------------- Iteration      1(   3)  ---------------------------------------


    TRIAL :  cpu time      0.5330: real time      0.5330
    CORREC:  cpu time      0.0003: real time      0.0003
    --------------------------------------------
      LOOP:  cpu time      0.5375: real time      0.5403

 eigenvalue-minimisations  :   192
 total energy-change (2. order) :-0.8497334E+01  (-0.8497334E+01)
 number of electron      44.0000000 magnetization 
 augmentation part       44.0000000 magnetization 

 Free energy of the ion-electron system (eV)
  ---------------------------------------------------
  alpha Z        PSCENC =         1.70115614
  Ewald energy   TEWEN  =      1639.76480008
  -Hartree energ DENC   =     -5603.35729384
  -exchange      EXHF   =         0.00000000
  -V(xc)+E(xc)   XCENC  =       -46.72429316
  PAW double counting   =      4013.84859731    -3829.39709692
  entropy T*S    EENTRO =        -0.00000000
  eigenvalues    EBANDS =      -329.96193952
  atomic energy  EATOM  =      4149.05112583
  ---------------------------------------------------
  free energy    TOTEN  =        -5.07494409 eV

  energy without entropy =       -5.07494409  energy(sigma->0) =       -5.07494409


--------------------------------------------------------------------------------------------------------




--------------------------------------- Iteration      1(   4)  ---------------------------------------


    TRIAL :  cpu time      1.8194: real time      1.8195
    CORREC:  cpu time      0.0003: real time      0.0003
    --------------------------------------------
      LOOP:  cpu time      1.8265: real time      1.8270

 eigenvalue-minimisations  :   384
 total energy-change (2. order) :-0.4139030E-01  (-0.4139030E-01)
 number of electron      44.0000000 magnetization 
 augmentation part       44.0000000 magnetization 

 Free energy of the ion-electron system (eV)
  ---------------------------------------------------
  alpha Z        PSCENC =         1.70115614
  Ewald energy   TEWEN  =      1639.76480008
  -Hartree energ DENC   =     -5603.35729384
  -exchange      EXHF   =         0.00000000
  -V(xc)+E(xc)   XCENC  =       -46.72429316
  PAW double counting   =      4013.84859731    -3829.39709692
  entropy T*S    EENTRO =        -0.00000000
  eigenvalues    EBANDS =      -330.00332982
  atomic energy  EATOM  =      4149.05112583
  ---------------------------------------------------
  free energy    TOTEN  =        -5.11633439 eV

  energy without entropy =       -5.11633439  energy(sigma->0) =       -5.11633439


--------------------------------------------------------------------------------------------------------




--------------------------------------- Iteration      1(   5)  ---------------------------------------


    TRIAL :  cpu time      0.5327: real time      0.5327
    CORREC:  cpu time      0.0003: real time      0.0003
    CHARGE:  cpu time      0.0977: real time      0.0979
    --------------------------------------------
      LOOP:  cpu time      0.6371: real time      0.6386

 eigenvalue-minimisations  :   192
 total energy-change (2. order) :-0.2566451E-05  (-0.2565993E-05)
 number of electron      43.9999998 magnetization 
 augmentation part       21.0993860 magnetization 

 Free energy of the ion-electron system (eV)
  ---------------------------------------------------
  alpha Z        PSCENC =         1.70115614
  Ewald energy   TEWEN  =      1639.76480008
  -Hartree energ DENC   =     -5603.35729384
  -exchange      EXHF   =         0.00000000
  -V(xc)+E(xc)   XCENC  =       -46.72429316
  PAW double counting   =      4013.84859731    -3829.39709692
  entropy T*S    EENTRO =        -0.00000000
  eigenvalues    EBANDS =      -330.00333238
  atomic energy  EATOM  =      4149.05112583
  ---------------------------------------------------
  free energy    TOTEN  =        -5.11633696 eV

  energy without entropy =       -5.11633696  energy(sigma->0) =       -5.11633696


--------------------------------------------------------------------------------------------------------




--------------------------------------- Iteration      1(   6)  ---------------------------------------


    POTLOK:  cpu time      0.1016: real time      0.1017
    SETDIJ:  cpu time      0.1773: real time      0.1773
    TRIAL :  cpu time      1.3666: real time      1.3668
    CORREC:  cpu time      0.4511: real time      0.4517
    CHARGE:  cpu time      0.0948: real time      0.0948
    --------------------------------------------
      LOOP:  cpu time      2.1960: real time      2.1998

 eigenvalue-minimisations  :     0
 total energy-change (2. order) : 0.1420958E+01  (-0.7033844E+00)
 number of electron      43.9999998 magnetization 
 augmentation part       21.3005522 magnetization 

 Free energy of the ion-electron system (eV)
  ---------------------------------------------------
  alpha Z        PSCENC =         1.70115614
  Ewald energy   TEWEN  =      1639.76480008
  -Hartree energ DENC   =     -5623.29038137
  -exchange      EXHF   =         0.00000000
  -V(xc)+E(xc)   XCENC  =       -47.24972670
  PAW double counting   =      4219.76732368    -4039.34898616
  entropy T*S    EENTRO =        -0.00000000
  eigenvalues    EBANDS =      -304.09069093
  atomic energy  EATOM  =      4149.05112583
  ---------------------------------------------------
  free energy    TOTEN  =        -3.69537944 eV

  energy without entropy =       -3.69537944  energy(sigma->0) =       -3.69537944


--------------------------------------------------------------------------------------------------------




--------------------------------------- Iteration      1(   7)  ---------------------------------------


    POTLOK:  cpu time      0.0981: real time      0.0981
    SETDIJ:  cpu time      0.1822: real time      0.1822
    TRIAL :  cpu time      0.2034: real time      0.2034
    CORREC:  cpu time      0.4452: real time      0.4453
    CHARGE:  cpu time      0.0948: real time      0.0948
    --------------------------------------------
      LOOP:  cpu time      1.0314: real time      1.0317

 eigenvalue-minimisations  :     0
 total energy-change (2. order) :-0.7039356E+00  (-0.7811797E-01)
 number of electron      43.9999998 magnetization 
 augmentation part       21.2398648 magnetization 

 Free energy of the ion-electron system (eV)
  ---------------------------------------------------
  alpha Z        PSCENC =         1.70115614
  Ewald energy   TEWEN  =      1639.76480008
  -Hartree energ DENC   =     -5617.48070432
  -exchange      EXHF   =         0.00000000
  -V(xc)+E(xc)   XCENC  =       -46.88374466
  PAW double counting   =      4208.83220531    -4028.52091370
  entropy T*S    EENTRO =        -0.00000000
  eigenvalues    EBANDS =      -310.86323970
  atomic energy  EATOM  =      4149.05112583
  ---------------------------------------------------
  free energy    TOTEN  =        -4.39931502 eV

  energy without entropy =       -4.39931502  energy(sigma->0) =       -4.39931502


--------------------------------------------------------------------------------------------------------




--------------------------------------- Iteration      1(   8)  ---------------------------------------


    POTLOK:  cpu time      0.0988: real time      0.0988
    SETDIJ:  cpu time      0.1812: real time      0.1812
    TRIAL :  cpu time      0.2031: real time      0.2032
    CORREC:  cpu time      0.4486: real time      0.4487
    CHARGE:  cpu time      0.0938: real time      0.0938
    --------------------------------------------
      LOOP:  cpu time      1.0274: real time      1.0339

 eigenvalue-minimisations  :     0
 total energy-change (2. order) :-0.7770044E-01  (-0.2475768E-01)
 number of electron      43.9999998 magnetization 
 augmentation part       21.2914538 magnetization 

 Free energy of the ion-electron system (eV)
  ---------------------------------------------------
  alpha Z        PSCENC =         1.70115614
  Ewald energy   TEWEN  =      1639.76480008
  -Hartree energ DENC   =     -5604.45074229
  -exchange      EXHF   =         0.00000000
  -V(xc)+E(xc)   XCENC  =       -47.19580615
  PAW double counting   =      4191.10118851    -4010.58120639
  entropy T*S    EENTRO =        -0.00000000
  eigenvalues    EBANDS =      -323.86753119
  atomic energy  EATOM  =      4149.05112583
  ---------------------------------------------------
  free energy    TOTEN  =        -4.47701547 eV

  energy without entropy =       -4.47701547  energy(sigma->0) =       -4.47701547


--------------------------------------------------------------------------------------------------------




--------------------------------------- Iteration      1(   9)  ---------------------------------------


    POTLOK:  cpu time      0.0987: real time      0.0988
    SETDIJ:  cpu time      0.1798: real time      0.1798
    TRIAL :  cpu time      0.2033: real time      0.2033
    CORREC:  cpu time      0.4479: real time      0.4480
    CHARGE:  cpu time      0.0941: real time      0.0941
    --------------------------------------------
      LOOP:  cpu time      1.0284: real time      1.0313

 eigenvalue-minimisations  :     0
 total energy-change (2. order) :-0.2475523E-01  (-0.7995407E-02)
 number of electron      43.9999998 magnetization 
 augmentation part       21.2797951 magnetization 

 Free energy of the ion-electron system (eV)
  ---------------------------------------------------
  alpha Z        PSCENC =         1.70115614
  Ewald energy   TEWEN  =      1639.76480008
  -Hartree energ DENC   =     -5611.77607159
  -exchange      EXHF   =         0.00000000
  -V(xc)+E(xc)   XCENC  =       -46.98802367
  PAW double counting   =      4197.98660478    -4017.50914337
  entropy T*S    EENTRO =        -0.00000000
  eigenvalues    EBANDS =      -316.73221889
  atomic energy  EATOM  =      4149.05112583
  ---------------------------------------------------
  free energy    TOTEN  =        -4.50177070 eV

  energy without entropy =       -4.50177070  energy(sigma->0) =       -4.50177070


--------------------------------------------------------------------------------------------------------




--------------------------------------- Iteration      1(  10)  ---------------------------------------


    POTLOK:  cpu time      0.0981: real time      0.0982
    SETDIJ:  cpu time      0.1784: real time      0.1784
    TRIAL :  cpu time      0.2028: real time      0.2028
    CORREC:  cpu time      0.4491: real time      0.4492
    CHARGE:  cpu time      0.0945: real time      0.0946
    --------------------------------------------
      LOOP:  cpu time      1.0300: real time      1.0303

 eigenvalue-minimisations  :     0
 total energy-change (2. order) :-0.7995904E-02  (-0.1824615E-02)
 number of electron      43.9999998 magnetization 
 augmentation part       21.2811273 magnetization 

 Free energy of the ion-electron system (eV)
  ---------------------------------------------------
  alpha Z        PSCENC =         1.70115614
  Ewald energy   TEWEN  =      1639.76480008
  -Hartree energ DENC   =     -5608.04772168
  -exchange      EXHF   =         0.00000000
  -V(xc)+E(xc)   XCENC  =       -47.06167954
  PAW double counting   =      4195.43013909    -4014.83167740
  entropy T*S    EENTRO =        -0.00000000
  eigenvalues    EBANDS =      -320.51590913
  atomic energy  EATOM  =      4149.05112583
  ---------------------------------------------------
  free energy    TOTEN  =        -4.50976661 eV

  energy without entropy =       -4.50976661  energy(sigma->0) =       -4.50976661


--------------------------------------------------------------------------------------------------------




--------------------------------------- Iteration      1(  11)  ---------------------------------------


    POTLOK:  cpu time      0.0973: real time      0.0973
    SETDIJ:  cpu time      0.1813: real time      0.1813
    TRIAL :  cpu time      0.2027: real time      0.2027
    CORREC:  cpu time      0.4472: real time      0.4472
    CHARGE:  cpu time      0.0945: real time      0.0945
    --------------------------------------------
      LOOP:  cpu time      1.0247: real time      1.0304

 eigenvalue-minimisations  :     0
 total energy-change (2. order) :-0.1825043E-02  (-0.3029462E-03)
 number of electron      43.9999998 magnetization 
 augmentation part       21.2832101 magnetization 

 Free energy of the ion-electron system (eV)
  ---------------------------------------------------
  alpha Z        PSCENC =         1.70115614
  Ewald energy   TEWEN  =      1639.76480008
  -Hartree energ DENC   =     -5608.40487247
  -exchange      EXHF   =         0.00000000
  -V(xc)+E(xc)   XCENC  =       -47.05911438
  PAW double counting   =      4194.91495106    -4014.28877193
  entropy T*S    EENTRO =        -0.00000000
  eigenvalues    EBANDS =      -320.19086598
  atomic energy  EATOM  =      4149.05112583
  ---------------------------------------------------
  free energy    TOTEN  =        -4.51159165 eV

  energy without entropy =       -4.51159165  energy(sigma->0) =       -4.51159165


--------------------------------------------------------------------------------------------------------




--------------------------------------- Iteration      1(  12)  ---------------------------------------


    POTLOK:  cpu time      0.1001: real time      0.1001
    SETDIJ:  cpu time      0.1803: real time      0.1803
    TRIAL :  cpu time      0.2079: real time      0.2079
    CORREC:  cpu time      0.4445: real time      0.4446
    CHARGE:  cpu time      0.0947: real time      0.0947
    --------------------------------------------
      LOOP:  cpu time      1.0348: real time      1.0351

 eigenvalue-minimisations  :     0
 total energy-change (2. order) :-0.3011960E-03  (-0.4118072E-04)
 number of electron      43.9999998 magnetization 
 augmentation part       21.2821639 magnetization 

 Free energy of the ion-electron system (eV)
  ---------------------------------------------------
  alpha Z        PSCENC =         1.70115614
  Ewald energy   TEWEN  =      1639.76480008
  -Hartree energ DENC   =     -5608.61474267
  -exchange      EXHF   =         0.00000000
  -V(xc)+E(xc)   XCENC  =       -47.05178674
  PAW double counting   =      4194.59956129    -4013.97294434
  entropy T*S    EENTRO =        -0.00000000
  eigenvalues    EBANDS =      -319.98906243
  atomic energy  EATOM  =      4149.05112583
  ---------------------------------------------------
  free energy    TOTEN  =        -4.51189284 eV

  energy without entropy =       -4.51189284  energy(sigma->0) =       -4.51189284


--------------------------------------------------------------------------------------------------------




--------------------------------------- Iteration      1(  13)  ---------------------------------------


    POTLOK:  cpu time      0.1000: real time      0.1001
    SETDIJ:  cpu time      0.1759: real time      0.1759
    TRIAL :  cpu time      0.2025: real time      0.2026
    CORREC:  cpu time      0.4438: real time      0.4439
    CHARGE:  cpu time      0.0955: real time      0.0955
    --------------------------------------------
      LOOP:  cpu time      1.0249: real time      1.0251

 eigenvalue-minimisations  :     0
 total energy-change (2. order) :-0.4119047E-04  (-0.1594758E-04)
 number of electron      43.9999998 magnetization 
 augmentation part       21.2822624 magnetization 

 Free energy of the ion-electron system (eV)
  ---------------------------------------------------
  alpha Z        PSCENC =         1.70115614
  Ewald energy   TEWEN  =      1639.76480008
  -Hartree energ DENC   =     -5608.42360420
  -exchange      EXHF   =         0.00000000
  -V(xc)+E(xc)   XCENC  =       -47.05662600
  PAW double counting   =      4194.27925692    -4013.64875852
  entropy T*S    EENTRO =        -0.00000000
  eigenvalues    EBANDS =      -320.17928427
  atomic energy  EATOM  =      4149.05112583
  ---------------------------------------------------
  free energy    TOTEN  =        -4.51193404 eV

  energy without entropy =       -4.51193404  energy(sigma->0) =       -4.51193404


--------------------------------------------------------------------------------------------------------




--------------------------------------- Iteration      1(  14)  ---------------------------------------


    POTLOK:  cpu time      0.0974: real time      0.0974
    SETDIJ:  cpu time      0.1813: real time      0.1813
    TRIAL :  cpu time      0.2027: real time      0.2028
    CORREC:  cpu time      0.4469: real time      0.4470
    CHARGE:  cpu time      0.0952: real time      0.0952
    --------------------------------------------
      LOOP:  cpu time      1.0260: real time      1.0310

 eigenvalue-minimisations  :     0
 total energy-change (2. order) :-0.1592899E-04  (-0.4213968E-05)
 number of electron      43.9999998 magnetization 
 augmentation part       21.2828361 magnetization 

 Free energy of the ion-electron system (eV)
  ---------------------------------------------------
  alpha Z        PSCENC =         1.70115614
  Ewald energy   TEWEN  =      1639.76480008
  -Hartree energ DENC   =     -5608.47091269
  -exchange      EXHF   =         0.00000000
  -V(xc)+E(xc)   XCENC  =       -47.05586457
  PAW double counting   =      4194.21384943    -4013.58274822
  entropy T*S    EENTRO =        -0.00000000
  eigenvalues    EBANDS =      -320.13335595
  atomic energy  EATOM  =      4149.05112583
  ---------------------------------------------------
  free energy    TOTEN  =        -4.51194996 eV

  energy without entropy =       -4.51194996  energy(sigma->0) =       -4.51194996


--------------------------------------------------------------------------------------------------------




--------------------------------------- Iteration      1(  15)  ---------------------------------------


    POTLOK:  cpu time      0.0979: real time      0.0979
    SETDIJ:  cpu time      0.1781: real time      0.1781
    TRIAL :  cpu time      0.2026: real time      0.2027
    CORREC:  cpu time      0.4460: real time      0.4460
    CHARGE:  cpu time      0.0951: real time      0.0951
    --------------------------------------------
      LOOP:  cpu time      1.0236: real time      1.0273

 eigenvalue-minimisations  :     0
 total energy-change (2. order) :-0.3294420E-05  (-0.5694674E-06)
 number of electron      43.9999998 magnetization 
 augmentation part       21.2826425 magnetization 

 Free energy of the ion-electron system (eV)
  ---------------------------------------------------
  alpha Z        PSCENC =         1.70115614
  Ewald energy   TEWEN  =      1639.76480008
  -Hartree energ DENC   =     -5608.59676770
  -exchange      EXHF   =         0.00000000
  -V(xc)+E(xc)   XCENC  =       -47.05280925
  PAW double counting   =      4194.22912945    -4013.59902589
  entropy T*S    EENTRO =        -0.00000000
  eigenvalues    EBANDS =      -320.00956191
  atomic energy  EATOM  =      4149.05112583
  ---------------------------------------------------
  free energy    TOTEN  =        -4.51195326 eV

  energy without entropy =       -4.51195326  energy(sigma->0) =       -4.51195326


--------------------------------------------------------------------------------------------------------




--------------------------------------- Iteration      1(  16)  ---------------------------------------


    POTLOK:  cpu time      0.0967: real time      0.0968
    SETDIJ:  cpu time      0.1823: real time      0.1823
    TRIAL :  cpu time      0.2022: real time      0.2029
    CORREC:  cpu time      0.4439: real time      0.4439
    EDDIAG:  cpu time      0.0937: real time      0.0938
    CHARGE:  cpu time      0.0950: real time      0.0950
    --------------------------------------------
      LOOP:  cpu time      1.1167: real time      1.1216

 eigenvalue-minimisations  :     0
 total energy-change (2. order) :-0.4468948E-06  (-0.3398758E-06)
 number of electron      43.9999998 magnetization 
 augmentation part       21.2824695 magnetization 

 Free energy of the ion-electron system (eV)
  ---------------------------------------------------
  alpha Z        PSCENC =         1.70115614
  Ewald energy   TEWEN  =      1639.76480008
  -Hartree energ DENC   =     -5608.56953628
  -exchange      EXHF   =         0.00000000
  -V(xc)+E(xc)   XCENC  =       -47.05352682
  PAW double counting   =      4194.16156698    -4013.53090175
  entropy T*S    EENTRO =        -0.00000000
  eigenvalues    EBANDS =      -320.03663788
  atomic energy  EATOM  =      4149.05112583
  ---------------------------------------------------
  free energy    TOTEN  =        -4.51195371 eV

  energy without entropy =       -4.51195371  energy(sigma->0) =       -4.51195371


--------------------------------------------------------------------------------------------------------


  average scaling for gradient   1.5313


 average (electrostatic) potential at core
  the test charge radii are     1.1249
  (the norm of the test charge is              1.0000)
       1 -82.2675       2 -82.2732       3 -82.2720       4 -82.2660



 E-fermi :  -3.6195     XC(G=0):  -0.3169     alpha+bet : -0.1148

 Fermi energy:        -3.6195481998

 k-point     1 :       0.0000    0.0000    0.0000
  band No.  band energies     occupation 
      1      -8.6841      2.00000
      2      -8.5097      2.00000
      3      -8.3817      2.00000
      4      -8.1071      2.00000
      5      -8.1062      2.00000
      6      -7.8519      2.00000
      7      -7.6135      2.00000
      8      -7.6026      2.00000
      9      -7.5558      2.00000
     10      -7.3696      2.00000
     11      -7.3505      2.00000
     12      -7.1893      2.00000
     13      -7.1851      2.00000
     14      -6.9918      2.00000
     15      -6.9850      2.00000
     16      -6.9478      2.00000
     17      -6.9467      2.00000
     18      -6.9452      2.00000
     19      -6.7076      2.00000
     20      -6.7005      2.00000
     21      -6.4324      2.00000
     22      -3.8860      2.00000
     23      -3.3327      0.00000
     24      -3.3091      0.00000
     25      -1.2582      0.00000
     26      -0.8560      0.00000
     27      -0.8435      0.00000
     28      -0.6068      0.00000
     29      -0.5947      0.00000
     30      -0.1343      0.00000
     31       0.1177      0.00000
     32       0.2717      0.00000
     33       0.3324      0.00000
     34       0.3367      0.00000
     35       0.4469      0.00000
     36       0.4694      0.00000
     37       0.5661      0.00000
     38       0.6807      0.00000
     39       0.7045      0.00000
     40       0.7105      0.00000
     41       0.7662      0.00000
     42       0.7742      0.00000
     43       0.7839      0.00000
     44       0.8021      0.00000
     45       0.8061      0.00000
     46       0.8087      0.00000
     47       0.8162      0.00000
     48       0.8518      0.00000
     49       1.0275      0.00000
     50       1.0476      0.00000
     51       1.0800      0.00000
     52       1.1145      0.00000
     53       1.1365      0.00000
     54       1.1760      0.00000
     55       1.1806      0.00000
     56       1.1869      0.00000
     57       1.3070      0.00000
     58       1.3257      0.00000
     59       1.4080      0.00000
     60       1.4309      0.00000
     61       1.4419      0.00000
     62       1.5491      0.00000
     63       1.5519      0.00000
     64       1.5717      0.00000
     65       1.6253      0.00000
     66       1.6953      0.00000
     67       1.7241      0.00000
     68       1.7553      0.00000
     69       1.7823      0.00000
     70       1.8353      0.00000
     71       1.8482      0.00000
     72       1.8564      0.00000
     73       1.8685      0.00000
     74       1.8880      0.00000
     75       1.8955      0.00000
     76       1.9125      0.00000
     77       1.9231      0.00000
     78       1.9242      0.00000
     79       1.9391      0.00000
     80       1.9405      0.00000
     81       1.9422      0.00000
     82       1.9472      0.00000
     83       1.9534      0.00000
     84       1.9568      0.00000
     85       1.9621      0.00000
     86       1.9671      0.00000
     87       2.0222      0.00000
     88       2.1203      0.00000
     89       2.1345      0.00000
     90       2.1671      0.00000
     91       2.1793      0.00000
     92       2.1900      0.00000
     93       2.2234      0.00000
     94       2.2270      0.00000
     95       2.2412      0.00000
     96       2.2447      0.00000


--------------------------------------------------------------------------------------------------------


 soft charge-density along one line, spin component           1
         0         1         2         3         4         5         6         7         8         9
 total charge-density along one line

 pseudopotential strength for first ion, spin component:           1
-10.379   0.002   0.018  -0.006   0.000 -10.352   0.002   0.017
  0.002 -10.352  -0.005  -0.013   0.007   0.002 -10.326  -0.005
  0.018  -0.005 -10.355   0.001   0.005   0.017  -0.005 -10.328
 -0.006  -0.013   0.001 -10.358   0.003  -0.006  -0.013   0.001
  0.000   0.007   0.005   0.003 -10.371   0.000   0.007   0.005
-10.352   0.002   0.017  -0.006   0.000 -10.301   0.002   0.017
  0.002 -10.326  -0.005  -0.013   0.007   0.002 -10.275  -0.005
  0.017  -0.005 -10.328   0.001   0.005   0.017  -0.005 -10.278
 -0.006  -0.013   0.001 -10.331   0.003  -0.005  -0.012   0.001
  0.000   0.007   0.005   0.003 -10.344   0.000   0.006   0.005
  0.010   0.002  -0.006   0.000   0.002   0.010   0.002  -0.006
  0.016   0.002  -0.010   0.001   0.003   0.016   0.002  -0.009
  0.025  -0.008  -0.018  -0.000  -0.033   0.024  -0.008  -0.017
 -0.000   0.033  -0.009   0.027   0.000  -0.000   0.031  -0.009
  0.031  -0.000  -0.014  -0.008   0.027   0.030  -0.000  -0.014
  0.030  -0.010  -0.022   0.000  -0.039   0.029  -0.010  -0.021
  0.000   0.039  -0.011   0.032  -0.000   0.000   0.038  -0.011
  0.037   0.000  -0.017  -0.010   0.032   0.036   0.000  -0.017
 total augmentation occupancy for first ion, spin component:           1
  2.633   0.011  -0.260  -0.084  -0.012  -0.719  -0.017   0.329   0.087   0.019  -0.808   0.098   0.114  -0.034   0.073   0.006
  0.011   2.304  -0.014   0.084   0.019  -0.017  -0.256  -0.007  -0.119  -0.008  -0.024   0.021   0.007   0.014   0.002  -0.005
 -0.260  -0.014   2.374   0.079   0.019   0.329  -0.007  -0.379  -0.088   0.005   0.457  -0.053  -0.063   0.041  -0.041  -0.006
 -0.084   0.084   0.079   2.517   0.123   0.087  -0.119  -0.088  -0.467  -0.117  -0.067   0.048  -0.029   0.094   0.061   0.001
 -0.012   0.019   0.019   0.123   2.448   0.019  -0.008   0.005  -0.117  -0.436  -0.137   0.050  -0.019   0.041   0.061  -0.020
 -0.719  -0.017   0.329   0.087   0.019   0.780   0.019  -0.393  -0.088  -0.024   0.689  -0.076  -0.152   0.031  -0.106   0.012
 -0.017  -0.256  -0.007  -0.119  -0.008   0.019   0.197   0.024   0.151  -0.001  -0.001  -0.003  -0.006  -0.036   0.002   0.001
  0.329  -0.007  -0.379  -0.088   0.005  -0.393   0.024   0.363   0.094  -0.023  -0.382   0.035   0.077  -0.044   0.067  -0.006
  0.087  -0.119  -0.088  -0.467  -0.117  -0.088   0.151   0.094   0.407   0.112   0.072  -0.055   0.026  -0.108  -0.053  -0.001
  0.019  -0.008   0.005  -0.117  -0.436  -0.024  -0.001  -0.023   0.112   0.410   0.114  -0.042   0.039  -0.034  -0.079  -0.001
 -0.808  -0.024   0.457  -0.067  -0.137   0.689  -0.001  -0.382   0.072   0.114   1.582  -0.159  -0.165  -0.010  -0.193   0.013
  0.098   0.021  -0.053   0.048   0.050  -0.076  -0.003   0.035  -0.055  -0.042  -0.159   0.031   0.012   0.019   0.036  -0.001
  0.114   0.007  -0.063  -0.029  -0.019  -0.152  -0.006   0.077   0.026   0.039  -0.165   0.012   0.036  -0.010   0.016  -0.003
 -0.034   0.014   0.041   0.094   0.041   0.031  -0.036  -0.044  -0.108  -0.034  -0.010   0.019  -0.010   0.036   0.017   0.000
  0.073   0.002  -0.041   0.061   0.061  -0.106   0.002   0.067  -0.053  -0.079  -0.193   0.036   0.016   0.017   0.049  -0.002
  0.006  -0.005  -0.006   0.001  -0.020   0.012   0.001  -0.006  -0.001  -0.001   0.013  -0.001  -0.003   0.000  -0.002   0.001
  0.001   0.019  -0.007   0.013  -0.002  -0.001   0.002   0.003   0.006   0.002   0.001  -0.001   0.000  -0.002  -0.001  -0.000
  0.010  -0.000  -0.004  -0.008   0.013   0.010  -0.000  -0.006   0.003   0.005   0.016  -0.002  -0.002  -0.001  -0.004   0.000


------------------------ aborting loop because EDIFF is reached ----------------------------------------


    FORLOC:  cpu time      0.0022: real time      0.0022
    FORNL :  cpu time      0.0990: real time      0.0992
    STRESS:  cpu time      0.2922: real time      0.2924
    FORCOR:  cpu time      0.0689: real time      0.0689
    OFIELD:  cpu time      0.0002: real time      0.0002

  Hirshfeld charges:
            ion         q(e)     
   ------------------------------
      1     Ag         -0.000
      2     Ag          0.001
      3     Ag          0.000
      4     Ag         -0.001

  Hirshfeld-I charges:
            ion         q(e)        dq(e)    
   ------------------------------------------
      1     Ag         -0.001      0.239E-04
      2     Ag          0.002     -0.496E-04
      3     Ag          0.001     -0.240E-04
      4     Ag         -0.002      0.497E-04

   Hirshfeld-I converged in   4 cycles. Convergence criterion |dq|< 0.500E-04 e

  Tkatchenko/Scheffler method for vdW energy calculation
  ---------------------------------------------------------------------------------------------

  Parameters of vdW forcefield:
            C6ts              R0ts          ALPHAts         R0scs        ALPHAscs        RELVOL 
            (au)              (au)           (au)            (au)          (au)                 
   ---------------------------------------------------------------------------------------------
   Ag        335.900          3.808         45.844          3.727         43.004          0.992
   Ag        335.176          3.806         45.785          3.726         42.946          0.992
   Ag        335.518          3.807         45.814          3.726         42.974          0.992
   Ag        336.053          3.808         45.854          3.728         43.016          0.992

  vdW correction parametrized for the method pbe       

  IVDW = 263
  VDW_RADIUS =    50.000 A
  VDW_SR =     0.830
  VDW_D =     6.000
  SCSRAD =   120.000 A
  LVDWSCS = T
  LSCSGRAD = T
  LSCALER0 = T
  ITIM =  1
  Edisp (eV):   -0.20655
    FORVDW:  cpu time     35.8277: real time     35.8303

  FORCE on cell =-STRESS in cart. coord.  units (eV):
  Direction    XX          YY          ZZ          XY          YZ          ZX
  --------------------------------------------------------------------------------------
  Alpha Z     1.70116     1.70116     1.70116
  Ewald     498.35848   466.67555   674.72994   -82.28575  -144.70030   146.25527
  Hartree  1817.45306  1789.50799  2001.58050   -84.53501  -147.71821   151.84440
  E(xc)    -231.51766  -231.52825  -231.57768     0.02514     0.04000    -0.05164
  Local   -2951.70168 -2891.91686 -3317.55349   169.30434   296.64424  -302.77691
  n-local   -50.00078   -50.06951   -48.05300    -0.90374    -1.54533     1.70682
  augment   366.72193   366.70961   367.50064    -0.35977    -0.60842     0.68106
  Kinetic   549.22373   549.15183   551.87014    -1.23267    -2.08965     2.32263
  Fock        0.00000     0.00000     0.00000     0.00000     0.00000     0.00000
  vdW         0.00511     0.00542     0.01052    -0.00377    -0.00649     0.00703
  -------------------------------------------------------------------------------------
  Total       0.24335     0.23693     0.20874     0.00877     0.01584    -0.01134
  in kB       0.04874     0.04745     0.04180     0.00176     0.00317    -0.00227
  external pressure =        0.05 kB  Pullay stress =        0.00 kB


 VOLUME and BASIS-vectors are now :
 -----------------------------------------------------------------------------
  energy-cutoff  :      520.00
  volume of cell :     8000.00
      direct lattice vectors                 reciprocal lattice vectors
    20.000000000  0.000000000  0.000000000     0.050000000  0.000000000  0.000000000
     0.000000000 20.000000000  0.000000000     0.000000000  0.050000000  0.000000000
     0.000000000  0.000000000 20.000000000     0.000000000  0.000000000  0.050000000

  length of vectors
    20.000000000 20.000000000 20.000000000     0.050000000  0.050000000  0.050000000


 FORCES acting on ions:
    Electron-Ion                     Ewald-Force                    Non-Local-Force
 -----------------------------------------------------------------------------------------------
   -.428E+03 -.168E+03 -.206E+03   0.423E+03 0.163E+03 0.207E+03   0.494E+01 0.563E+01 -.109E+01
   -.923E+02 0.120E+03 0.481E+03   0.879E+02 -.115E+03 -.477E+03   0.446E+01 -.474E+01 -.389E+01
   0.170E+03 0.409E+03 -.241E+03   -.164E+03 -.404E+03 0.241E+03   -.586E+01 -.479E+01 -.444E+00
   0.351E+03 -.360E+03 -.342E+02   -.347E+03 0.356E+03 0.288E+02   -.354E+01 0.390E+01 0.542E+01
 -----------------------------------------------------------------------------------------------
   0.827E-03 -.775E-02 -.319E-02   -.568E-13 0.000E+00 -.568E-13   0.225E-02 0.387E-02 -.160E-02


 POSITION                                       TOTAL-FORCE (eV/Angst)
 -----------------------------------------------------------------------------------
      0.69293      0.19835      1.37419         0.100140      0.054657      0.032776
     19.28803     19.67229     18.62896         0.033803     -0.043113     -0.101487
     18.86219     18.43814      1.48321        -0.057521     -0.091643      0.038839
     17.92824      1.13613      0.20062        -0.076422      0.080098      0.029872
 -----------------------------------------------------------------------------------
    total drift:                                0.003078     -0.003878     -0.004787


--------------------------------------------------------------------------------------------------------



  FREE ENERGIE OF THE ION-ELECTRON SYSTEM (eV)
  ---------------------------------------------------
  free  energy   TOTEN  =        -4.71850261 eV

  energy  without entropy=       -4.71850261  energy(sigma->0) =       -4.71850261



--------------------------------------------------------------------------------------------------------


    POTLOK:  cpu time      0.3995: real time      0.3995


--------------------------------------------------------------------------------------------------------


     LOOP+:  cpu time     55.1993: real time     55.2485
    4ORBIT:  cpu time      0.0000: real time      0.0000

 total amount of memory used by VASP MPI-rank0   100908. kBytes
=======================================================================

   base      :      30000. kBytes
   nonlr-proj:       1317. kBytes
   fftplans  :      28354. kBytes
   grid      :      38630. kBytes
   one-center:         15. kBytes
   wavefun   :       2592. kBytes

  
  
 General timing and accounting informations for this job:
 ========================================================
  
                  Total CPU time used (sec):       76.541
                            User time (sec):       75.295
                          System time (sec):        1.246
                         Elapsed time (sec):       78.199
  
                   Maximum memory used (kb):      210536.
                   Average memory used (kb):          N/A
  
                          Minor page faults:        27129
                          Major page faults:            0
                 Voluntary context switches:         9818
