 **********************************************************************
                          MRCC program system
 **********************************************************************
 
                              Written by
     Mihaly Kallay, Peter R. Nagy, David Mester, Laszlo Gyevi-Nagy,
        Jozsef Csoka, P. Bernat Szabo, Zoltan Rolik, Gyula Samu,
     Jozsef Csontos, Bence Hegely, Adam Ganyecz, Istvan Ladjanszki,
       Lorant Szegedy, Bence Ladoczki, Klara Petrov, Mate Farkas,
                    Pal D. Mezei, and Reka A. Horvath
 
        Department of Physical Chemistry and Materials Science
            Budapest University of Technology and Economics
                  Budapest P.O.Box 91, H-1521 Hungary
 
                              www.mrcc.hu
 
                      Release date: March 18, 2022

 ************************ 2023-01-11 22:38:04 *************************
 Executing minp...

 Reading input from MINP...
 
 Input file:
 
calc=LMP2
scftype=rhf
verbosity=3
mem=220GB
symm=off
unit=angs
scfiguess=small
scfmaxit=1000
scfalg=locfit1


lcorthr=tight
bpedo=0.99999

charge=-8
core=6

basis=special
bse_ACVTZ
bse_ACVTZ
bse_ACVTZ
bse_ACVTZ
aug-cc-pVTZ
bse_CVTZ
aug-cc-pVTZ
aug-cc-pVTZ
aug-cc-pVTZ
aug-cc-pVTZ
nothing
nothing
nothing
nothing
nothing
nothing
nothing
nothing
nothing
nothing
nothing
nothing
nothing
nothing
nothing
nothing
nothing
nothing
nothing
nothing

basis_sm=special
def2-SVP
def2-SVP
def2-SVP
def2-SVP
def2-SVP
def2-SVP
def2-SVP
def2-SVP
def2-SVP
def2-SVP
nothing
nothing
nothing
nothing
nothing
nothing
nothing
nothing
nothing
nothing
nothing
nothing
nothing
nothing
nothing
nothing
nothing
nothing
nothing
nothing

dfbasis_scf=special
def2-QZVPP-RI-JK
def2-QZVPP-RI-JK
def2-QZVPP-RI-JK
def2-QZVPP-RI-JK
def2-QZVPP-RI-JK
def2-QZVPP-RI-JK
def2-QZVPP-RI-JK
def2-QZVPP-RI-JK
def2-QZVPP-RI-JK
def2-QZVPP-RI-JK
nothing
nothing
nothing
nothing
nothing
nothing
nothing
nothing
nothing
nothing
nothing
nothing
nothing
nothing
nothing
nothing
nothing
nothing
nothing
nothing

dfbasis_cor=special
bse_ACVTZ_autoaux
bse_ACVTZ_autoaux
bse_ACVTZ_autoaux
bse_ACVTZ_autoaux
aug-cc-pVTZ-RI
bse_CVTZ_mp2fit
aug-cc-pVTZ-RI
aug-cc-pVTZ-RI
aug-cc-pVTZ-RI
aug-cc-pVTZ-RI
nothing
nothing
nothing
nothing
nothing
nothing
nothing
nothing
nothing
nothing
nothing
nothing
nothing
nothing
nothing
nothing
nothing
nothing
nothing
nothing

ecp=special
MCDHF-ECP-10
MCDHF-ECP-10
MCDHF-ECP-10
MCDHF-ECP-10
none
none
none
none
none
none
ECP-12
ECP-12
ECP-12
ECP-12
ECP-12
ECP-12
ECP-12
ECP-12
ECP-12
ECP-12
ECP-12
ECP-12
ECP-12
ECP-12
ECP-12
ECP-12
ECP-12
ECP-12
ECP-12
ECP-12

unit=angs
geom=xyz
30
Cu4 Mg1 O5 ECP20
Cu   -2.11813194949    1.21979652890    2.10622676206
Cu   -2.12115610797   -0.01772039088    6.35398845453
Cu   -2.12236055741   -0.02188602512    4.09942152487
Cu   -2.11826879923   -1.24607835525    2.09061400763
O     0.00000000000    0.00000000000    0.00000000000
Mg   -2.11388582115    0.00000000000    0.00000000000
O    -2.11388582115    2.11388582115    0.00000000000
O    -2.11388582115   -2.11388582115    0.00000000000
O    -2.11388582115    0.00000000000   -2.11388582115
O    -4.22777164231    0.00000000000    0.00000000000
Mg    0.00000000000    2.11388582115    0.00000000000
Mg    2.11388582115    0.00000000000    0.00000000000
Mg    0.00000000000   -2.11388582115    0.00000000000
Mg    0.00000000000    0.00000000000   -2.11388582115
Mg   -2.11388582115    2.11388582115   -2.11388582115
Mg    2.11388582115    2.11388582115   -2.11388582115
Mg    2.11388582115   -2.11388582115   -2.11388582115
Mg   -2.11388582115   -2.11388582115   -2.11388582115
Mg   -4.22777164231    2.11388582115    0.00000000000
Mg   -2.11388582115    4.22777164231    0.00000000000
Mg   -2.11388582115   -4.22777164231    0.00000000000
Mg   -4.22777164231   -2.11388582115    0.00000000000
Mg   -4.22777164231    0.00000000000   -2.11388582115
Mg    0.00000000000    4.22777164231   -2.11388582115
Mg    0.00000000000   -4.22777164231   -2.11388582115
Mg   -6.34165746346    0.00000000000    0.00000000000
Mg   -4.22777164231    4.22777164231   -2.11388582115
Mg   -4.22777164231   -4.22777164231   -2.11388582115
Mg   -6.34165746346    2.11388582115   -2.11388582115
Mg   -6.34165746346   -2.11388582115   -2.11388582115


ghost=serialno


qmmm=Amber
pointcharges
9043
      0.00000000000    2.11388582115    0.00000000000    2.00000000000
      2.11388582115    0.00000000000    0.00000000000    2.00000000000
      0.00000000000   -2.11388582115    0.00000000000    2.00000000000
      0.00000000000    0.00000000000   -2.11388582115    2.00000000000
      2.11388582115    2.11388582115    0.00000000000   -2.00000000000
      2.11388582115   -2.11388582115    0.00000000000   -2.00000000000
      0.00000000000    2.11388582115   -2.11388582115   -2.00000000000
      2.11388582115    0.00000000000   -2.11388582115   -2.00000000000
      0.00000000000   -2.11388582115   -2.11388582115   -2.00000000000
     -2.11388582115    2.11388582115   -2.11388582115    2.00000000000
      2.11388582115    2.11388582115   -2.11388582115    2.00000000000
      2.11388582115   -2.11388582115   -2.11388582115    2.00000000000
     -2.11388582115   -2.11388582115   -2.11388582115    2.00000000000
      0.00000000000    4.22777164231    0.00000000000   -2.00000000000
      0.00000000000   -4.22777164231    0.00000000000   -2.00000000000
     -4.22777164231    2.11388582115    0.00000000000    2.00000000000
     -2.11388582115    4.22777164231    0.00000000000    2.00000000000
     -2.11388582115   -4.22777164231    0.00000000000    2.00000000000
     -4.22777164231   -2.11388582115    0.00000000000    2.00000000000
     -4.22777164231    0.00000000000   -2.11388582115    2.00000000000
      0.00000000000    4.22777164231   -2.11388582115    2.00000000000
      0.00000000000   -4.22777164231   -2.11388582115    2.00000000000
     -4.22777164231    2.11388582115   -2.11388582115   -2.00000000000
     -2.11388582115    4.22777164231   -2.11388582115   -2.00000000000
     -2.11388582115   -4.22777164231   -2.11388582115   -2.00000000000
     -4.22777164231   -2.11388582115   -2.11388582115   -2.00000000000
     -4.22777164231    4.22777164231    0.00000000000   -2.00000000000
     -4.22777164231   -4.22777164231    0.00000000000   -2.00000000000
     -6.34165746346    0.00000000000    0.00000000000    2.00000000000
     -4.22777164231    4.22777164231   -2.11388582115    2.00000000000
     -4.22777164231   -4.22777164231   -2.11388582115    2.00000000000
     -6.34165746346    2.11388582115    0.00000000000   -2.00000000000
     -6.34165746346   -2.11388582115    0.00000000000   -2.00000000000
     -6.34165746346    0.00000000000   -2.11388582115   -2.00000000000
     -6.34165746346    2.11388582115   -2.11388582115    2.00000000000
     -6.34165746346   -2.11388582115   -2.11388582115    2.00000000000
      4.22777164231    0.00000000000    0.00000000000   -2.00000000000
      2.11388582115    4.22777164231    0.00000000000    2.00000000000
      4.22777164231    2.11388582115    0.00000000000    2.00000000000
      4.22777164231   -2.11388582115    0.00000000000    2.00000000000
      2.11388582115   -4.22777164231    0.00000000000    2.00000000000
      4.22777164231    0.00000000000   -2.11388582115    2.00000000000
      2.11388582115    4.22777164231   -2.11388582115   -2.00000000000
      4.22777164231    2.11388582115   -2.11388582115   -2.00000000000
      4.22777164231   -2.11388582115   -2.11388582115   -2.00000000000
      2.11388582115   -4.22777164231   -2.11388582115   -2.00000000000
      4.22777164231    4.22777164231    0.00000000000   -2.00000000000
      4.22777164231   -4.22777164231    0.00000000000   -2.00000000000
      0.00000000000    6.34165746346    0.00000000000    2.00000000000
      6.34165746346    0.00000000000    0.00000000000    2.00000000000
      0.00000000000   -6.34165746346    0.00000000000    2.00000000000
      4.22777164231    4.22777164231   -2.11388582115    2.00000000000
      4.22777164231   -4.22777164231   -2.11388582115    2.00000000000
     -2.11388582115    6.34165746346    0.00000000000   -2.00000000000
      2.11388582115    6.34165746346    0.00000000000   -2.00000000000
      6.34165746346    2.11388582115    0.00000000000   -2.00000000000
      6.34165746346   -2.11388582115    0.00000000000   -2.00000000000
      2.11388582115   -6.34165746346    0.00000000000   -2.00000000000
     -2.11388582115   -6.34165746346    0.00000000000   -2.00000000000
      0.00000000000    6.34165746346   -2.11388582115   -2.00000000000
      6.34165746346    0.00000000000   -2.11388582115   -2.00000000000
      0.00000000000   -6.34165746346   -2.11388582115   -2.00000000000
     -2.11388582115    6.34165746346   -2.11388582115    2.00000000000
      2.11388582115    6.34165746346   -2.11388582115    2.00000000000
      6.34165746346    2.11388582115   -2.11388582115    2.00000000000
      6.34165746346   -2.11388582115   -2.11388582115    2.00000000000
      2.11388582115   -6.34165746346   -2.11388582115    2.00000000000
     -2.11388582115   -6.34165746346   -2.11388582115    2.00000000000
     -6.34165746346    4.22777164231    0.00000000000    2.00000000000
     -4.22777164231    6.34165746346    0.00000000000    2.00000000000
      4.22777164231    6.34165746346    0.00000000000    2.00000000000
      6.34165746346    4.22777164231    0.00000000000    2.00000000000
      6.34165746346   -4.22777164231    0.00000000000    2.00000000000
      4.22777164231   -6.34165746346    0.00000000000    2.00000000000
     -4.22777164231   -6.34165746346    0.00000000000    2.00000000000
     -6.34165746346   -4.22777164231    0.00000000000    2.00000000000
     -6.34165746346    4.22777164231   -2.11388582115   -2.00000000000
     -4.22777164231    6.34165746346   -2.11388582115   -2.00000000000
      4.22777164231    6.34165746346   -2.11388582115   -2.00000000000
      6.34165746346    4.22777164231   -2.11388582115   -2.00000000000
      6.34165746346   -4.22777164231   -2.11388582115   -2.00000000000
      4.22777164231   -6.34165746346   -2.11388582115   -2.00000000000
     -4.22777164231   -6.34165746346   -2.11388582115   -2.00000000000
     -6.34165746346   -4.22777164231   -2.11388582115   -2.00000000000
     -8.45554328461    0.00000000000    0.00000000000   -2.00000000000
      0.00000000000    8.45554328461    0.00000000000   -2.00000000000
      8.45554328461    0.00000000000    0.00000000000   -2.00000000000
      0.00000000000   -8.45554328461    0.00000000000   -2.00000000000
     -8.45554328461    2.11388582115    0.00000000000    2.00000000000
     -2.11388582115    8.45554328461    0.00000000000    2.00000000000
      2.11388582115    8.45554328461    0.00000000000    2.00000000000
      8.45554328461    2.11388582115    0.00000000000    2.00000000000
      8.45554328461   -2.11388582115    0.00000000000    2.00000000000
      2.11388582115   -8.45554328461    0.00000000000    2.00000000000
     -2.11388582115   -8.45554328461    0.00000000000    2.00000000000
     -8.45554328461   -2.11388582115    0.00000000000    2.00000000000
     -8.45554328461    0.00000000000   -2.11388582115    2.00000000000
      0.00000000000    8.45554328461   -2.11388582115    2.00000000000
      8.45554328461    0.00000000000   -2.11388582115    2.00000000000
      0.00000000000   -8.45554328461   -2.11388582115    2.00000000000
     -6.34165746346    6.34165746346    0.00000000000   -2.00000000000
      6.34165746346    6.34165746346    0.00000000000   -2.00000000000
      6.34165746346   -6.34165746346    0.00000000000   -2.00000000000
     -6.34165746346   -6.34165746346    0.00000000000   -2.00000000000
     -8.45554328461    2.11388582115   -2.11388582115   -2.00000000000
     -2.11388582115    8.45554328461   -2.11388582115   -2.00000000000
      2.11388582115    8.45554328461   -2.11388582115   -2.00000000000
      8.45554328461    2.11388582115   -2.11388582115   -2.00000000000
      8.45554328461   -2.11388582115   -2.11388582115   -2.00000000000
      2.11388582115   -8.45554328461   -2.11388582115   -2.00000000000
     -2.11388582115   -8.45554328461   -2.11388582115   -2.00000000000
     -8.45554328461   -2.11388582115   -2.11388582115   -2.00000000000
     -6.34165746346    6.34165746346   -2.11388582115    2.00000000000
      6.34165746346    6.34165746346   -2.11388582115    2.00000000000
      6.34165746346   -6.34165746346   -2.11388582115    2.00000000000
     -6.34165746346   -6.34165746346   -2.11388582115    2.00000000000
     -8.45554328461    4.22777164231    0.00000000000   -2.00000000000
     -4.22777164231    8.45554328461    0.00000000000   -2.00000000000
      4.22777164231    8.45554328461    0.00000000000   -2.00000000000
      8.45554328461    4.22777164231    0.00000000000   -2.00000000000
      8.45554328461   -4.22777164231    0.00000000000   -2.00000000000
      4.22777164231   -8.45554328461    0.00000000000   -2.00000000000
     -4.22777164231   -8.45554328461    0.00000000000   -2.00000000000
     -8.45554328461   -4.22777164231    0.00000000000   -2.00000000000
     -8.45554328461    4.22777164231   -2.11388582115    2.00000000000
     -4.22777164231    8.45554328461   -2.11388582115    2.00000000000
      4.22777164231    8.45554328461   -2.11388582115    2.00000000000
      8.45554328461    4.22777164231   -2.11388582115    2.00000000000
      8.45554328461   -4.22777164231   -2.11388582115    2.00000000000
      4.22777164231   -8.45554328461   -2.11388582115    2.00000000000
     -4.22777164231   -8.45554328461   -2.11388582115    2.00000000000
     -8.45554328461   -4.22777164231   -2.11388582115    2.00000000000
    -10.56942910577    0.00000000000    0.00000000000    2.00000000000
     -8.45554328461    6.34165746346    0.00000000000    2.00000000000
     -6.34165746346    8.45554328461    0.00000000000    2.00000000000
      0.00000000000   10.56942910577    0.00000000000    2.00000000000
      6.34165746346    8.45554328461    0.00000000000    2.00000000000
      8.45554328461    6.34165746346    0.00000000000    2.00000000000
     10.56942910577    0.00000000000    0.00000000000    2.00000000000
      8.45554328461   -6.34165746346    0.00000000000    2.00000000000
      6.34165746346   -8.45554328461    0.00000000000    2.00000000000
      0.00000000000  -10.56942910577    0.00000000000    2.00000000000
     -6.34165746346   -8.45554328461    0.00000000000    2.00000000000
     -8.45554328461   -6.34165746346    0.00000000000    2.00000000000
    -10.56942910577    2.11388582115    0.00000000000   -2.00000000000
     -2.11388582115   10.56942910577    0.00000000000   -2.00000000000
      2.11388582115   10.56942910577    0.00000000000   -2.00000000000
     10.56942910577    2.11388582115    0.00000000000   -2.00000000000
     10.56942910577   -2.11388582115    0.00000000000   -2.00000000000
      2.11388582115  -10.56942910577    0.00000000000   -2.00000000000
     -2.11388582115  -10.56942910577    0.00000000000   -2.00000000000
    -10.56942910577   -2.11388582115    0.00000000000   -2.00000000000
    -10.56942910577    0.00000000000   -2.11388582115   -2.00000000000
     -8.45554328461    6.34165746346   -2.11388582115   -2.00000000000
     -6.34165746346    8.45554328461   -2.11388582115   -2.00000000000
      0.00000000000   10.56942910577   -2.11388582115   -2.00000000000
      6.34165746346    8.45554328461   -2.11388582115   -2.00000000000
      8.45554328461    6.34165746346   -2.11388582115   -2.00000000000
     10.56942910577    0.00000000000   -2.11388582115   -2.00000000000
      8.45554328461   -6.34165746346   -2.11388582115   -2.00000000000
      6.34165746346   -8.45554328461   -2.11388582115   -2.00000000000
      0.00000000000  -10.56942910577   -2.11388582115   -2.00000000000
     -6.34165746346   -8.45554328461   -2.11388582115   -2.00000000000
     -8.45554328461   -6.34165746346   -2.11388582115   -2.00000000000
    -10.56942910577    2.11388582115   -2.11388582115    2.00000000000
     -2.11388582115   10.56942910577   -2.11388582115    2.00000000000
      2.11388582115   10.56942910577   -2.11388582115    2.00000000000
     10.56942910577    2.11388582115   -2.11388582115    2.00000000000
     10.56942910577   -2.11388582115   -2.11388582115    2.00000000000
      2.11388582115  -10.56942910577   -2.11388582115    2.00000000000
     -2.11388582115  -10.56942910577   -2.11388582115    2.00000000000
    -10.56942910577   -2.11388582115   -2.11388582115    2.00000000000
    -10.56942910577    4.22777164231    0.00000000000    2.00000000000
     -4.22777164231   10.56942910577    0.00000000000    2.00000000000
      4.22777164231   10.56942910577    0.00000000000    2.00000000000
     10.56942910577    4.22777164231    0.00000000000    2.00000000000
     10.56942910577   -4.22777164231    0.00000000000    2.00000000000
      4.22777164231  -10.56942910577    0.00000000000    2.00000000000
     -4.22777164231  -10.56942910577    0.00000000000    2.00000000000
    -10.56942910577   -4.22777164231    0.00000000000    2.00000000000
    -10.56942910577    4.22777164231   -2.11388582115   -2.00000000000
     -4.22777164231   10.56942910577   -2.11388582115   -2.00000000000
      4.22777164231   10.56942910577   -2.11388582115   -2.00000000000
     10.56942910577    4.22777164231   -2.11388582115   -2.00000000000
     10.56942910577   -4.22777164231   -2.11388582115   -2.00000000000
      4.22777164231  -10.56942910577   -2.11388582115   -2.00000000000
     -4.22777164231  -10.56942910577   -2.11388582115   -2.00000000000
    -10.56942910577   -4.22777164231   -2.11388582115   -2.00000000000
     -8.45554328461    8.45554328461    0.00000000000   -2.00000000000
      8.45554328461    8.45554328461    0.00000000000   -2.00000000000
      8.45554328461   -8.45554328461    0.00000000000   -2.00000000000
     -8.45554328461   -8.45554328461    0.00000000000   -2.00000000000
     -8.45554328461    8.45554328461   -2.11388582115    2.00000000000
      8.45554328461    8.45554328461   -2.11388582115    2.00000000000
      8.45554328461   -8.45554328461   -2.11388582115    2.00000000000
     -8.45554328461   -8.45554328461   -2.11388582115    2.00000000000
    -10.56942910577    6.34165746346    0.00000000000   -2.00000000000
     -6.34165746346   10.56942910577    0.00000000000   -2.00000000000
      6.34165746346   10.56942910577    0.00000000000   -2.00000000000
     10.56942910577    6.34165746346    0.00000000000   -2.00000000000
     10.56942910577   -6.34165746346    0.00000000000   -2.00000000000
      6.34165746346  -10.56942910577    0.00000000000   -2.00000000000
     -6.34165746346  -10.56942910577    0.00000000000   -2.00000000000
    -10.56942910577   -6.34165746346    0.00000000000   -2.00000000000
    -10.56942910577    6.34165746346   -2.11388582115    2.00000000000
     -6.34165746346   10.56942910577   -2.11388582115    2.00000000000
      6.34165746346   10.56942910577   -2.11388582115    2.00000000000
     10.56942910577    6.34165746346   -2.11388582115    2.00000000000
     10.56942910577   -6.34165746346   -2.11388582115    2.00000000000
      6.34165746346  -10.56942910577   -2.11388582115    2.00000000000
     -6.34165746346  -10.56942910577   -2.11388582115    2.00000000000
    -10.56942910577   -6.34165746346   -2.11388582115    2.00000000000
    -12.68331492692    0.00000000000    0.00000000000   -2.00000000000
      0.00000000000   12.68331492692    0.00000000000   -2.00000000000
     12.68331492692    0.00000000000    0.00000000000   -2.00000000000
      0.00000000000  -12.68331492692    0.00000000000   -2.00000000000
    -12.68331492692    2.11388582115    0.00000000000    2.00000000000
     -2.11388582115   12.68331492692    0.00000000000    2.00000000000
      2.11388582115   12.68331492692    0.00000000000    2.00000000000
     12.68331492692    2.11388582115    0.00000000000    2.00000000000
     12.68331492692   -2.11388582115    0.00000000000    2.00000000000
      2.11388582115  -12.68331492692    0.00000000000    2.00000000000
     -2.11388582115  -12.68331492692    0.00000000000    2.00000000000
    -12.68331492692   -2.11388582115    0.00000000000    2.00000000000
    -12.68331492692    0.00000000000   -2.11388582115    2.00000000000
      0.00000000000   12.68331492692   -2.11388582115    2.00000000000
     12.68331492692    0.00000000000   -2.11388582115    2.00000000000
      0.00000000000  -12.68331492692   -2.11388582115    2.00000000000
    -12.68331492692    2.11388582115   -2.11388582115   -2.00000000000
     -2.11388582115   12.68331492692   -2.11388582115   -2.00000000000
      2.11388582115   12.68331492692   -2.11388582115   -2.00000000000
     12.68331492692    2.11388582115   -2.11388582115   -2.00000000000
     12.68331492692   -2.11388582115   -2.11388582115   -2.00000000000
      2.11388582115  -12.68331492692   -2.11388582115   -2.00000000000
     -2.11388582115  -12.68331492692   -2.11388582115   -2.00000000000
    -12.68331492692   -2.11388582115   -2.11388582115   -2.00000000000
    -12.68331492692    4.22777164231    0.00000000000   -2.00000000000
     -4.22777164231   12.68331492692    0.00000000000   -2.00000000000
      4.22777164231   12.68331492692    0.00000000000   -2.00000000000
     12.68331492692    4.22777164231    0.00000000000   -2.00000000000
     12.68331492692   -4.22777164231    0.00000000000   -2.00000000000
      4.22777164231  -12.68331492692    0.00000000000   -2.00000000000
     -4.22777164231  -12.68331492692    0.00000000000   -2.00000000000
    -12.68331492692   -4.22777164231    0.00000000000   -2.00000000000
    -10.56942910577    8.45554328461    0.00000000000    2.00000000000
     -8.45554328461   10.56942910577    0.00000000000    2.00000000000
      8.45554328461   10.56942910577    0.00000000000    2.00000000000
     10.56942910577    8.45554328461    0.00000000000    2.00000000000
     10.56942910577   -8.45554328461    0.00000000000    2.00000000000
      8.45554328461  -10.56942910577    0.00000000000    2.00000000000
     -8.45554328461  -10.56942910577    0.00000000000    2.00000000000
    -10.56942910577   -8.45554328461    0.00000000000    2.00000000000
    -12.68331492692    4.22777164231   -2.11388582115    2.00000000000
     -4.22777164231   12.68331492692   -2.11388582115    2.00000000000
      4.22777164231   12.68331492692   -2.11388582115    2.00000000000
     12.68331492692    4.22777164231   -2.11388582115    2.00000000000
     12.68331492692   -4.22777164231   -2.11388582115    2.00000000000
      4.22777164231  -12.68331492692   -2.11388582115    2.00000000000
     -4.22777164231  -12.68331492692   -2.11388582115    2.00000000000
    -12.68331492692   -4.22777164231   -2.11388582115    2.00000000000
    -10.56942910577    8.45554328461   -2.11388582115   -2.00000000000
     -8.45554328461   10.56942910577   -2.11388582115   -2.00000000000
      8.45554328461   10.56942910577   -2.11388582115   -2.00000000000
     10.56942910577    8.45554328461   -2.11388582115   -2.00000000000
     10.56942910577   -8.45554328461   -2.11388582115   -2.00000000000
      8.45554328461  -10.56942910577   -2.11388582115   -2.00000000000
     -8.45554328461  -10.56942910577   -2.11388582115   -2.00000000000
    -10.56942910577   -8.45554328461   -2.11388582115   -2.00000000000
    -12.68331492692    6.34165746346    0.00000000000    2.00000000000
     -6.34165746346   12.68331492692    0.00000000000    2.00000000000
      6.34165746346   12.68331492692    0.00000000000    2.00000000000
     12.68331492692    6.34165746346    0.00000000000    2.00000000000
     12.68331492692   -6.34165746346    0.00000000000    2.00000000000
      6.34165746346  -12.68331492692    0.00000000000    2.00000000000
     -6.34165746346  -12.68331492692    0.00000000000    2.00000000000
    -12.68331492692   -6.34165746346    0.00000000000    2.00000000000
    -12.68331492692    6.34165746346   -2.11388582115   -2.00000000000
     -6.34165746346   12.68331492692   -2.11388582115   -2.00000000000
      6.34165746346   12.68331492692   -2.11388582115   -2.00000000000
     12.68331492692    6.34165746346   -2.11388582115   -2.00000000000
     12.68331492692   -6.34165746346   -2.11388582115   -2.00000000000
      6.34165746346  -12.68331492692   -2.11388582115   -2.00000000000
     -6.34165746346  -12.68331492692   -2.11388582115   -2.00000000000
    -12.68331492692   -6.34165746346   -2.11388582115   -2.00000000000
    -14.79720074808    0.00000000000    0.00000000000    2.00000000000
      0.00000000000   14.79720074808    0.00000000000    2.00000000000
     14.79720074808    0.00000000000    0.00000000000    2.00000000000
      0.00000000000  -14.79720074808    0.00000000000    2.00000000000
    -14.79720074808    2.11388582115    0.00000000000   -2.00000000000
    -10.56942910577   10.56942910577    0.00000000000   -2.00000000000
     -2.11388582115   14.79720074808    0.00000000000   -2.00000000000
      2.11388582115   14.79720074808    0.00000000000   -2.00000000000
     10.56942910577   10.56942910577    0.00000000000   -2.00000000000
     14.79720074808    2.11388582115    0.00000000000   -2.00000000000
     14.79720074808   -2.11388582115    0.00000000000   -2.00000000000
     10.56942910577  -10.56942910577    0.00000000000   -2.00000000000
      2.11388582115  -14.79720074808    0.00000000000   -2.00000000000
     -2.11388582115  -14.79720074808    0.00000000000   -2.00000000000
    -10.56942910577  -10.56942910577    0.00000000000   -2.00000000000
    -14.79720074808   -2.11388582115    0.00000000000   -2.00000000000
    -14.79720074808    0.00000000000   -2.11388582115   -2.00000000000
      0.00000000000   14.79720074808   -2.11388582115   -2.00000000000
     14.79720074808    0.00000000000   -2.11388582115   -2.00000000000
      0.00000000000  -14.79720074808   -2.11388582115   -2.00000000000
    -14.79720074808    2.11388582115   -2.11388582115    2.00000000000
    -10.56942910577   10.56942910577   -2.11388582115    2.00000000000
     -2.11388582115   14.79720074808   -2.11388582115    2.00000000000
      2.11388582115   14.79720074808   -2.11388582115    2.00000000000
     10.56942910577   10.56942910577   -2.11388582115    2.00000000000
     14.79720074808    2.11388582115   -2.11388582115    2.00000000000
     14.79720074808   -2.11388582115   -2.11388582115    2.00000000000
     10.56942910577  -10.56942910577   -2.11388582115    2.00000000000
      2.11388582115  -14.79720074808   -2.11388582115    2.00000000000
     -2.11388582115  -14.79720074808   -2.11388582115    2.00000000000
    -10.56942910577  -10.56942910577   -2.11388582115    2.00000000000
    -14.79720074808   -2.11388582115   -2.11388582115    2.00000000000
    -12.68331492692    8.45554328461    0.00000000000   -2.00000000000
     -8.45554328461   12.68331492692    0.00000000000   -2.00000000000
      8.45554328461   12.68331492692    0.00000000000   -2.00000000000
     12.68331492692    8.45554328461    0.00000000000   -2.00000000000
     12.68331492692   -8.45554328461    0.00000000000   -2.00000000000
      8.45554328461  -12.68331492692    0.00000000000   -2.00000000000
     -8.45554328461  -12.68331492692    0.00000000000   -2.00000000000
    -12.68331492692   -8.45554328461    0.00000000000   -2.00000000000
    -14.79720074808    4.22777164231    0.00000000000    2.00000000000
     -4.22777164231   14.79720074808    0.00000000000    2.00000000000
      4.22777164231   14.79720074808    0.00000000000    2.00000000000
     14.79720074808    4.22777164231    0.00000000000    2.00000000000
     14.79720074808   -4.22777164231    0.00000000000    2.00000000000
      4.22777164231  -14.79720074808    0.00000000000    2.00000000000
     -4.22777164231  -14.79720074808    0.00000000000    2.00000000000
    -14.79720074808   -4.22777164231    0.00000000000    2.00000000000
    -12.68331492692    8.45554328461   -2.11388582115    2.00000000000
     -8.45554328461   12.68331492692   -2.11388582115    2.00000000000
      8.45554328461   12.68331492692   -2.11388582115    2.00000000000
     12.68331492692    8.45554328461   -2.11388582115    2.00000000000
     12.68331492692   -8.45554328461   -2.11388582115    2.00000000000
      8.45554328461  -12.68331492692   -2.11388582115    2.00000000000
     -8.45554328461  -12.68331492692   -2.11388582115    2.00000000000
    -12.68331492692   -8.45554328461   -2.11388582115    2.00000000000
    -14.79720074808    4.22777164231   -2.11388582115   -2.00000000000
     -4.22777164231   14.79720074808   -2.11388582115   -2.00000000000
      4.22777164231   14.79720074808   -2.11388582115   -2.00000000000
     14.79720074808    4.22777164231   -2.11388582115   -2.00000000000
     14.79720074808   -4.22777164231   -2.11388582115   -2.00000000000
      4.22777164231  -14.79720074808   -2.11388582115   -2.00000000000
     -4.22777164231  -14.79720074808   -2.11388582115   -2.00000000000
    -14.79720074808   -4.22777164231   -2.11388582115   -2.00000000000
    -14.79720074808    6.34165746346    0.00000000000   -2.00000000000
     -6.34165746346   14.79720074808    0.00000000000   -2.00000000000
      6.34165746346   14.79720074808    0.00000000000   -2.00000000000
     14.79720074808    6.34165746346    0.00000000000   -2.00000000000
     14.79720074808   -6.34165746346    0.00000000000   -2.00000000000
      6.34165746346  -14.79720074808    0.00000000000   -2.00000000000
     -6.34165746346  -14.79720074808    0.00000000000   -2.00000000000
    -14.79720074808   -6.34165746346    0.00000000000   -2.00000000000
    -14.79720074808    6.34165746346   -2.11388582115    2.00000000000
     -6.34165746346   14.79720074808   -2.11388582115    2.00000000000
      6.34165746346   14.79720074808   -2.11388582115    2.00000000000
     14.79720074808    6.34165746346   -2.11388582115    2.00000000000
     14.79720074808   -6.34165746346   -2.11388582115    2.00000000000
      6.34165746346  -14.79720074808   -2.11388582115    2.00000000000
     -6.34165746346  -14.79720074808   -2.11388582115    2.00000000000
    -14.79720074808   -6.34165746346   -2.11388582115    2.00000000000
    -12.68331492692   10.56942910577    0.00000000000    2.00000000000
    -10.56942910577   12.68331492692    0.00000000000    2.00000000000
     10.56942910577   12.68331492692    0.00000000000    2.00000000000
     12.68331492692   10.56942910577    0.00000000000    2.00000000000
     12.68331492692  -10.56942910577    0.00000000000    2.00000000000
     10.56942910577  -12.68331492692    0.00000000000    2.00000000000
    -10.56942910577  -12.68331492692    0.00000000000    2.00000000000
    -12.68331492692  -10.56942910577    0.00000000000    2.00000000000
    -12.68331492692   10.56942910577   -2.11388582115   -2.00000000000
    -10.56942910577   12.68331492692   -2.11388582115   -2.00000000000
     10.56942910577   12.68331492692   -2.11388582115   -2.00000000000
     12.68331492692   10.56942910577   -2.11388582115   -2.00000000000
     12.68331492692  -10.56942910577   -2.11388582115   -2.00000000000
     10.56942910577  -12.68331492692   -2.11388582115   -2.00000000000
    -10.56942910577  -12.68331492692   -2.11388582115   -2.00000000000
    -12.68331492692  -10.56942910577   -2.11388582115   -2.00000000000
    -16.91108656923    0.00000000000    0.00000000000   -2.00000000000
      0.00000000000   16.91108656923    0.00000000000   -2.00000000000
     16.91108656923    0.00000000000    0.00000000000   -2.00000000000
      0.00000000000  -16.91108656923    0.00000000000   -2.00000000000
    -16.91108656923    2.11388582115    0.00000000000    2.00000000000
    -14.79720074808    8.45554328461    0.00000000000    2.00000000000
     -8.45554328461   14.79720074808    0.00000000000    2.00000000000
     -2.11388582115   16.91108656923    0.00000000000    2.00000000000
      2.11388582115   16.91108656923    0.00000000000    2.00000000000
      8.45554328461   14.79720074808    0.00000000000    2.00000000000
     14.79720074808    8.45554328461    0.00000000000    2.00000000000
     16.91108656923    2.11388582115    0.00000000000    2.00000000000
     16.91108656923   -2.11388582115    0.00000000000    2.00000000000
     14.79720074808   -8.45554328461    0.00000000000    2.00000000000
      8.45554328461  -14.79720074808    0.00000000000    2.00000000000
      2.11388582115  -16.91108656923    0.00000000000    2.00000000000
     -2.11388582115  -16.91108656923    0.00000000000    2.00000000000
     -8.45554328461  -14.79720074808    0.00000000000    2.00000000000
    -14.79720074808   -8.45554328461    0.00000000000    2.00000000000
    -16.91108656923   -2.11388582115    0.00000000000    2.00000000000
    -16.91108656923    0.00000000000   -2.11388582115    2.00000000000
      0.00000000000   16.91108656923   -2.11388582115    2.00000000000
     16.91108656923    0.00000000000   -2.11388582115    2.00000000000
      0.00000000000  -16.91108656923   -2.11388582115    2.00000000000
    -16.91108656923    2.11388582115   -2.11388582115   -2.00000000000
    -14.79720074808    8.45554328461   -2.11388582115   -2.00000000000
     -8.45554328461   14.79720074808   -2.11388582115   -2.00000000000
     -2.11388582115   16.91108656923   -2.11388582115   -2.00000000000
      2.11388582115   16.91108656923   -2.11388582115   -2.00000000000
      8.45554328461   14.79720074808   -2.11388582115   -2.00000000000
     14.79720074808    8.45554328461   -2.11388582115   -2.00000000000
     16.91108656923    2.11388582115   -2.11388582115   -2.00000000000
     16.91108656923   -2.11388582115   -2.11388582115   -2.00000000000
     14.79720074808   -8.45554328461   -2.11388582115   -2.00000000000
      8.45554328461  -14.79720074808   -2.11388582115   -2.00000000000
      2.11388582115  -16.91108656923   -2.11388582115   -2.00000000000
     -2.11388582115  -16.91108656923   -2.11388582115   -2.00000000000
     -8.45554328461  -14.79720074808   -2.11388582115   -2.00000000000
    -14.79720074808   -8.45554328461   -2.11388582115   -2.00000000000
    -16.91108656923   -2.11388582115   -2.11388582115   -2.00000000000
    -16.91108656923    4.22777164231    0.00000000000   -2.00000000000
     -4.22777164231   16.91108656923    0.00000000000   -2.00000000000
      4.22777164231   16.91108656923    0.00000000000   -2.00000000000
     16.91108656923    4.22777164231    0.00000000000   -2.00000000000
     16.91108656923   -4.22777164231    0.00000000000   -2.00000000000
      4.22777164231  -16.91108656923    0.00000000000   -2.00000000000
     -4.22777164231  -16.91108656923    0.00000000000   -2.00000000000
    -16.91108656923   -4.22777164231    0.00000000000   -2.00000000000
    -16.91108656923    4.22777164231   -2.11388582115    2.00000000000
     -4.22777164231   16.91108656923   -2.11388582115    2.00000000000
      4.22777164231   16.91108656923   -2.11388582115    2.00000000000
     16.91108656923    4.22777164231   -2.11388582115    2.00000000000
     16.91108656923   -4.22777164231   -2.11388582115    2.00000000000
      4.22777164231  -16.91108656923   -2.11388582115    2.00000000000
     -4.22777164231  -16.91108656923   -2.11388582115    2.00000000000
    -16.91108656923   -4.22777164231   -2.11388582115    2.00000000000
    -12.68331492692   12.68331492692    0.00000000000   -2.00000000000
     12.68331492692   12.68331492692    0.00000000000   -2.00000000000
     12.68331492692  -12.68331492692    0.00000000000   -2.00000000000
    -12.68331492692  -12.68331492692    0.00000000000   -2.00000000000
    -16.91108656923    6.34165746346    0.00000000000    2.00000000000
     -6.34165746346   16.91108656923    0.00000000000    2.00000000000
      6.34165746346   16.91108656923    0.00000000000    2.00000000000
     16.91108656923    6.34165746346    0.00000000000    2.00000000000
     16.91108656923   -6.34165746346    0.00000000000    2.00000000000
      6.34165746346  -16.91108656923    0.00000000000    2.00000000000
     -6.34165746346  -16.91108656923    0.00000000000    2.00000000000
    -16.91108656923   -6.34165746346    0.00000000000    2.00000000000
    -12.68331492692   12.68331492692   -2.11388582115    2.00000000000
     12.68331492692   12.68331492692   -2.11388582115    2.00000000000
     12.68331492692  -12.68331492692   -2.11388582115    2.00000000000
    -12.68331492692  -12.68331492692   -2.11388582115    2.00000000000
    -14.79720074808   10.56942910577    0.00000000000   -2.00000000000
    -10.56942910577   14.79720074808    0.00000000000   -2.00000000000
     10.56942910577   14.79720074808    0.00000000000   -2.00000000000
     14.79720074808   10.56942910577    0.00000000000   -2.00000000000
     14.79720074808  -10.56942910577    0.00000000000   -2.00000000000
     10.56942910577  -14.79720074808    0.00000000000   -2.00000000000
    -10.56942910577  -14.79720074808    0.00000000000   -2.00000000000
    -14.79720074808  -10.56942910577    0.00000000000   -2.00000000000
    -16.91108656923    6.34165746346   -2.11388582115   -2.00000000000
     -6.34165746346   16.91108656923   -2.11388582115   -2.00000000000
      6.34165746346   16.91108656923   -2.11388582115   -2.00000000000
     16.91108656923    6.34165746346   -2.11388582115   -2.00000000000
     16.91108656923   -6.34165746346   -2.11388582115   -2.00000000000
      6.34165746346  -16.91108656923   -2.11388582115   -2.00000000000
     -6.34165746346  -16.91108656923   -2.11388582115   -2.00000000000
    -16.91108656923   -6.34165746346   -2.11388582115   -2.00000000000
    -14.79720074808   10.56942910577   -2.11388582115    2.00000000000
    -10.56942910577   14.79720074808   -2.11388582115    2.00000000000
     10.56942910577   14.79720074808   -2.11388582115    2.00000000000
     14.79720074808   10.56942910577   -2.11388582115    2.00000000000
     14.79720074808  -10.56942910577   -2.11388582115    2.00000000000
     10.56942910577  -14.79720074808   -2.11388582115    2.00000000000
    -10.56942910577  -14.79720074808   -2.11388582115    2.00000000000
    -14.79720074808  -10.56942910577   -2.11388582115    2.00000000000
    -16.91108656923    8.45554328461    0.00000000000   -2.00000000000
     -8.45554328461   16.91108656923    0.00000000000   -2.00000000000
      8.45554328461   16.91108656923    0.00000000000   -2.00000000000
     16.91108656923    8.45554328461    0.00000000000   -2.00000000000
     16.91108656923   -8.45554328461    0.00000000000   -2.00000000000
      8.45554328461  -16.91108656923    0.00000000000   -2.00000000000
     -8.45554328461  -16.91108656923    0.00000000000   -2.00000000000
    -16.91108656923   -8.45554328461    0.00000000000   -2.00000000000
    -19.02497239038    0.00000000000    0.00000000000    2.00000000000
      0.00000000000   19.02497239038    0.00000000000    2.00000000000
     19.02497239038    0.00000000000    0.00000000000    2.00000000000
      0.00000000000  -19.02497239038    0.00000000000    2.00000000000
    -16.91108656923    8.45554328461   -2.11388582115    2.00000000000
     -8.45554328461   16.91108656923   -2.11388582115    2.00000000000
      8.45554328461   16.91108656923   -2.11388582115    2.00000000000
     16.91108656923    8.45554328461   -2.11388582115    2.00000000000
     16.91108656923   -8.45554328461   -2.11388582115    2.00000000000
      8.45554328461  -16.91108656923   -2.11388582115    2.00000000000
     -8.45554328461  -16.91108656923   -2.11388582115    2.00000000000
    -16.91108656923   -8.45554328461   -2.11388582115    2.00000000000
    -19.02497239038    2.11388582115    0.00000000000   -2.00000000000
     -2.11388582115   19.02497239038    0.00000000000   -2.00000000000
      2.11388582115   19.02497239038    0.00000000000   -2.00000000000
     19.02497239038    2.11388582115    0.00000000000   -2.00000000000
     19.02497239038   -2.11388582115    0.00000000000   -2.00000000000
      2.11388582115  -19.02497239038    0.00000000000   -2.00000000000
     -2.11388582115  -19.02497239038    0.00000000000   -2.00000000000
    -19.02497239038   -2.11388582115    0.00000000000   -2.00000000000
    -19.02497239038    0.00000000000   -2.11388582115   -2.00000000000
      0.00000000000   19.02497239038   -2.11388582115   -2.00000000000
     19.02497239038    0.00000000000   -2.11388582115   -2.00000000000
      0.00000000000  -19.02497239038   -2.11388582115   -2.00000000000
    -19.02497239038    2.11388582115   -2.11388582115    2.00000000000
     -2.11388582115   19.02497239038   -2.11388582115    2.00000000000
      2.11388582115   19.02497239038   -2.11388582115    2.00000000000
     19.02497239038    2.11388582115   -2.11388582115    2.00000000000
     19.02497239038   -2.11388582115   -2.11388582115    2.00000000000
      2.11388582115  -19.02497239038   -2.11388582115    2.00000000000
     -2.11388582115  -19.02497239038   -2.11388582115    2.00000000000
    -19.02497239038   -2.11388582115   -2.11388582115    2.00000000000
    -19.02497239038    4.22777164231    0.00000000000    2.00000000000
    -14.79720074808   12.68331492692    0.00000000000    2.00000000000
    -12.68331492692   14.79720074808    0.00000000000    2.00000000000
     -4.22777164231   19.02497239038    0.00000000000    2.00000000000
      4.22777164231   19.02497239038    0.00000000000    2.00000000000
     12.68331492692   14.79720074808    0.00000000000    2.00000000000
     14.79720074808   12.68331492692    0.00000000000    2.00000000000
     19.02497239038    4.22777164231    0.00000000000    2.00000000000
     19.02497239038   -4.22777164231    0.00000000000    2.00000000000
     14.79720074808  -12.68331492692    0.00000000000    2.00000000000
     12.68331492692  -14.79720074808    0.00000000000    2.00000000000
      4.22777164231  -19.02497239038    0.00000000000    2.00000000000
     -4.22777164231  -19.02497239038    0.00000000000    2.00000000000
    -12.68331492692  -14.79720074808    0.00000000000    2.00000000000
    -14.79720074808  -12.68331492692    0.00000000000    2.00000000000
    -19.02497239038   -4.22777164231    0.00000000000    2.00000000000
    -19.02497239038    4.22777164231   -2.11388582115   -2.00000000000
    -14.79720074808   12.68331492692   -2.11388582115   -2.00000000000
    -12.68331492692   14.79720074808   -2.11388582115   -2.00000000000
     -4.22777164231   19.02497239038   -2.11388582115   -2.00000000000
      4.22777164231   19.02497239038   -2.11388582115   -2.00000000000
     12.68331492692   14.79720074808   -2.11388582115   -2.00000000000
     14.79720074808   12.68331492692   -2.11388582115   -2.00000000000
     19.02497239038    4.22777164231   -2.11388582115   -2.00000000000
     19.02497239038   -4.22777164231   -2.11388582115   -2.00000000000
     14.79720074808  -12.68331492692   -2.11388582115   -2.00000000000
     12.68331492692  -14.79720074808   -2.11388582115   -2.00000000000
      4.22777164231  -19.02497239038   -2.11388582115   -2.00000000000
     -4.22777164231  -19.02497239038   -2.11388582115   -2.00000000000
    -12.68331492692  -14.79720074808   -2.11388582115   -2.00000000000
    -14.79720074808  -12.68331492692   -2.11388582115   -2.00000000000
    -19.02497239038   -4.22777164231   -2.11388582115   -2.00000000000
    -16.91108656923   10.56942910577    0.00000000000    2.00000000000
    -10.56942910577   16.91108656923    0.00000000000    2.00000000000
     10.56942910577   16.91108656923    0.00000000000    2.00000000000
     16.91108656923   10.56942910577    0.00000000000    2.00000000000
     16.91108656923  -10.56942910577    0.00000000000    2.00000000000
     10.56942910577  -16.91108656923    0.00000000000    2.00000000000
    -10.56942910577  -16.91108656923    0.00000000000    2.00000000000
    -16.91108656923  -10.56942910577    0.00000000000    2.00000000000
    -19.02497239038    6.34165746346    0.00000000000   -2.00000000000
     -6.34165746346   19.02497239038    0.00000000000   -2.00000000000
      6.34165746346   19.02497239038    0.00000000000   -2.00000000000
     19.02497239038    6.34165746346    0.00000000000   -2.00000000000
     19.02497239038   -6.34165746346    0.00000000000   -2.00000000000
      6.34165746346  -19.02497239038    0.00000000000   -2.00000000000
     -6.34165746346  -19.02497239038    0.00000000000   -2.00000000000
    -19.02497239038   -6.34165746346    0.00000000000   -2.00000000000
    -16.91108656923   10.56942910577   -2.11388582115   -2.00000000000
    -10.56942910577   16.91108656923   -2.11388582115   -2.00000000000
     10.56942910577   16.91108656923   -2.11388582115   -2.00000000000
     16.91108656923   10.56942910577   -2.11388582115   -2.00000000000
     16.91108656923  -10.56942910577   -2.11388582115   -2.00000000000
     10.56942910577  -16.91108656923   -2.11388582115   -2.00000000000
    -10.56942910577  -16.91108656923   -2.11388582115   -2.00000000000
    -16.91108656923  -10.56942910577   -2.11388582115   -2.00000000000
    -19.02497239038    6.34165746346   -2.11388582115    2.00000000000
     -6.34165746346   19.02497239038   -2.11388582115    2.00000000000
      6.34165746346   19.02497239038   -2.11388582115    2.00000000000
     19.02497239038    6.34165746346   -2.11388582115    2.00000000000
     19.02497239038   -6.34165746346   -2.11388582115    2.00000000000
      6.34165746346  -19.02497239038   -2.11388582115    2.00000000000
     -6.34165746346  -19.02497239038   -2.11388582115    2.00000000000
    -19.02497239038   -6.34165746346   -2.11388582115    2.00000000000
    -19.02497239038    8.45554328461    0.00000000000    2.00000000000
     -8.45554328461   19.02497239038    0.00000000000    2.00000000000
      8.45554328461   19.02497239038    0.00000000000    2.00000000000
     19.02497239038    8.45554328461    0.00000000000    2.00000000000
     19.02497239038   -8.45554328461    0.00000000000    2.00000000000
      8.45554328461  -19.02497239038    0.00000000000    2.00000000000
     -8.45554328461  -19.02497239038    0.00000000000    2.00000000000
    -19.02497239038   -8.45554328461    0.00000000000    2.00000000000
    -14.79720074808   14.79720074808    0.00000000000   -2.00000000000
     14.79720074808   14.79720074808    0.00000000000   -2.00000000000
     14.79720074808  -14.79720074808    0.00000000000   -2.00000000000
    -14.79720074808  -14.79720074808    0.00000000000   -2.00000000000
    -19.02497239038    8.45554328461   -2.11388582115   -2.00000000000
     -8.45554328461   19.02497239038   -2.11388582115   -2.00000000000
      8.45554328461   19.02497239038   -2.11388582115   -2.00000000000
     19.02497239038    8.45554328461   -2.11388582115   -2.00000000000
     19.02497239038   -8.45554328461   -2.11388582115   -2.00000000000
      8.45554328461  -19.02497239038   -2.11388582115   -2.00000000000
     -8.45554328461  -19.02497239038   -2.11388582115   -2.00000000000
    -19.02497239038   -8.45554328461   -2.11388582115   -2.00000000000
    -14.79720074808   14.79720074808   -2.11388582115    2.00000000000
     14.79720074808   14.79720074808   -2.11388582115    2.00000000000
     14.79720074808  -14.79720074808   -2.11388582115    2.00000000000
    -14.79720074808  -14.79720074808   -2.11388582115    2.00000000000
    -21.13885821154    0.00000000000    0.00000000000   -2.00000000000
    -16.91108656923   12.68331492692    0.00000000000   -2.00000000000
    -12.68331492692   16.91108656923    0.00000000000   -2.00000000000
      0.00000000000   21.13885821154    0.00000000000   -2.00000000000
     12.68331492692   16.91108656923    0.00000000000   -2.00000000000
     16.91108656923   12.68331492692    0.00000000000   -2.00000000000
     21.13885821154    0.00000000000    0.00000000000   -2.00000000000
     16.91108656923  -12.68331492692    0.00000000000   -2.00000000000
     12.68331492692  -16.91108656923    0.00000000000   -2.00000000000
      0.00000000000  -21.13885821154    0.00000000000   -2.00000000000
    -12.68331492692  -16.91108656923    0.00000000000   -2.00000000000
    -16.91108656923  -12.68331492692    0.00000000000   -2.00000000000
    -21.13885821154    2.11388582115    0.00000000000    2.00000000000
     -2.11388582115   21.13885821154    0.00000000000    2.00000000000
      2.11388582115   21.13885821154    0.00000000000    2.00000000000
     21.13885821154    2.11388582115    0.00000000000    2.00000000000
     21.13885821154   -2.11388582115    0.00000000000    2.00000000000
      2.11388582115  -21.13885821154    0.00000000000    2.00000000000
     -2.11388582115  -21.13885821154    0.00000000000    2.00000000000
    -21.13885821154   -2.11388582115    0.00000000000    2.00000000000
    -21.13885821154    0.00000000000   -2.11388582115    2.00000000000
    -16.91108656923   12.68331492692   -2.11388582115    2.00000000000
    -12.68331492692   16.91108656923   -2.11388582115    2.00000000000
      0.00000000000   21.13885821154   -2.11388582115    2.00000000000
     12.68331492692   16.91108656923   -2.11388582115    2.00000000000
     16.91108656923   12.68331492692   -2.11388582115    2.00000000000
     21.13885821154    0.00000000000   -2.11388582115    2.00000000000
     16.91108656923  -12.68331492692   -2.11388582115    2.00000000000
     12.68331492692  -16.91108656923   -2.11388582115    2.00000000000
      0.00000000000  -21.13885821154   -2.11388582115    2.00000000000
    -12.68331492692  -16.91108656923   -2.11388582115    2.00000000000
    -16.91108656923  -12.68331492692   -2.11388582115    2.00000000000
    -21.13885821154    2.11388582115   -2.11388582115   -2.00000000000
     -2.11388582115   21.13885821154   -2.11388582115   -2.00000000000
      2.11388582115   21.13885821154   -2.11388582115   -2.00000000000
     21.13885821154    2.11388582115   -2.11388582115   -2.00000000000
     21.13885821154   -2.11388582115   -2.11388582115   -2.00000000000
      2.11388582115  -21.13885821154   -2.11388582115   -2.00000000000
     -2.11388582115  -21.13885821154   -2.11388582115   -2.00000000000
    -21.13885821154   -2.11388582115   -2.11388582115   -2.00000000000
    -21.13885821154    4.22777164231    0.00000000000   -2.00000000000
     -4.22777164231   21.13885821154    0.00000000000   -2.00000000000
      4.22777164231   21.13885821154    0.00000000000   -2.00000000000
     21.13885821154    4.22777164231    0.00000000000   -2.00000000000
     21.13885821154   -4.22777164231    0.00000000000   -2.00000000000
      4.22777164231  -21.13885821154    0.00000000000   -2.00000000000
     -4.22777164231  -21.13885821154    0.00000000000   -2.00000000000
    -21.13885821154   -4.22777164231    0.00000000000   -2.00000000000
    -21.13885821154    4.22777164231   -2.11388582115    2.00000000000
     -4.22777164231   21.13885821154   -2.11388582115    2.00000000000
      4.22777164231   21.13885821154   -2.11388582115    2.00000000000
     21.13885821154    4.22777164231   -2.11388582115    2.00000000000
     21.13885821154   -4.22777164231   -2.11388582115    2.00000000000
      4.22777164231  -21.13885821154   -2.11388582115    2.00000000000
     -4.22777164231  -21.13885821154   -2.11388582115    2.00000000000
    -21.13885821154   -4.22777164231   -2.11388582115    2.00000000000
    -19.02497239038   10.56942910577    0.00000000000   -2.00000000000
    -10.56942910577   19.02497239038    0.00000000000   -2.00000000000
     10.56942910577   19.02497239038    0.00000000000   -2.00000000000
     19.02497239038   10.56942910577    0.00000000000   -2.00000000000
     19.02497239038  -10.56942910577    0.00000000000   -2.00000000000
     10.56942910577  -19.02497239038    0.00000000000   -2.00000000000
    -10.56942910577  -19.02497239038    0.00000000000   -2.00000000000
    -19.02497239038  -10.56942910577    0.00000000000   -2.00000000000
    -19.02497239038   10.56942910577   -2.11388582115    2.00000000000
    -10.56942910577   19.02497239038   -2.11388582115    2.00000000000
     10.56942910577   19.02497239038   -2.11388582115    2.00000000000
     19.02497239038   10.56942910577   -2.11388582115    2.00000000000
     19.02497239038  -10.56942910577   -2.11388582115    2.00000000000
     10.56942910577  -19.02497239038   -2.11388582115    2.00000000000
    -10.56942910577  -19.02497239038   -2.11388582115    2.00000000000
    -19.02497239038  -10.56942910577   -2.11388582115    2.00000000000
    -21.13885821154    6.34165746346    0.00000000000    2.00000000000
     -6.34165746346   21.13885821154    0.00000000000    2.00000000000
      6.34165746346   21.13885821154    0.00000000000    2.00000000000
     21.13885821154    6.34165746346    0.00000000000    2.00000000000
     21.13885821154   -6.34165746346    0.00000000000    2.00000000000
      6.34165746346  -21.13885821154    0.00000000000    2.00000000000
     -6.34165746346  -21.13885821154    0.00000000000    2.00000000000
    -21.13885821154   -6.34165746346    0.00000000000    2.00000000000
    -21.13885821154    6.34165746346   -2.11388582115   -2.00000000000
     -6.34165746346   21.13885821154   -2.11388582115   -2.00000000000
      6.34165746346   21.13885821154   -2.11388582115   -2.00000000000
     21.13885821154    6.34165746346   -2.11388582115   -2.00000000000
     21.13885821154   -6.34165746346   -2.11388582115   -2.00000000000
      6.34165746346  -21.13885821154   -2.11388582115   -2.00000000000
     -6.34165746346  -21.13885821154   -2.11388582115   -2.00000000000
    -21.13885821154   -6.34165746346   -2.11388582115   -2.00000000000
    -16.91108656923   14.79720074808    0.00000000000    2.00000000000
    -14.79720074808   16.91108656923    0.00000000000    2.00000000000
     14.79720074808   16.91108656923    0.00000000000    2.00000000000
     16.91108656923   14.79720074808    0.00000000000    2.00000000000
     16.91108656923  -14.79720074808    0.00000000000    2.00000000000
     14.79720074808  -16.91108656923    0.00000000000    2.00000000000
    -14.79720074808  -16.91108656923    0.00000000000    2.00000000000
    -16.91108656923  -14.79720074808    0.00000000000    2.00000000000
    -16.91108656923   14.79720074808   -2.11388582115   -2.00000000000
    -14.79720074808   16.91108656923   -2.11388582115   -2.00000000000
     14.79720074808   16.91108656923   -2.11388582115   -2.00000000000
     16.91108656923   14.79720074808   -2.11388582115   -2.00000000000
     16.91108656923  -14.79720074808   -2.11388582115   -2.00000000000
     14.79720074808  -16.91108656923   -2.11388582115   -2.00000000000
    -14.79720074808  -16.91108656923   -2.11388582115   -2.00000000000
    -16.91108656923  -14.79720074808   -2.11388582115   -2.00000000000
    -21.13885821154    8.45554328461    0.00000000000   -2.00000000000
     -8.45554328461   21.13885821154    0.00000000000   -2.00000000000
      8.45554328461   21.13885821154    0.00000000000   -2.00000000000
     21.13885821154    8.45554328461    0.00000000000   -2.00000000000
     21.13885821154   -8.45554328461    0.00000000000   -2.00000000000
      8.45554328461  -21.13885821154    0.00000000000   -2.00000000000
     -8.45554328461  -21.13885821154    0.00000000000   -2.00000000000
    -21.13885821154   -8.45554328461    0.00000000000   -2.00000000000
    -19.02497239038   12.68331492692    0.00000000000    2.00000000000
    -12.68331492692   19.02497239038    0.00000000000    2.00000000000
     12.68331492692   19.02497239038    0.00000000000    2.00000000000
     19.02497239038   12.68331492692    0.00000000000    2.00000000000
     19.02497239038  -12.68331492692    0.00000000000    2.00000000000
     12.68331492692  -19.02497239038    0.00000000000    2.00000000000
    -12.68331492692  -19.02497239038    0.00000000000    2.00000000000
    -19.02497239038  -12.68331492692    0.00000000000    2.00000000000
    -21.13885821154    8.45554328461   -2.11388582115    2.00000000000
     -8.45554328461   21.13885821154   -2.11388582115    2.00000000000
      8.45554328461   21.13885821154   -2.11388582115    2.00000000000
     21.13885821154    8.45554328461   -2.11388582115    2.00000000000
     21.13885821154   -8.45554328461   -2.11388582115    2.00000000000
      8.45554328461  -21.13885821154   -2.11388582115    2.00000000000
     -8.45554328461  -21.13885821154   -2.11388582115    2.00000000000
    -21.13885821154   -8.45554328461   -2.11388582115    2.00000000000
    -19.02497239038   12.68331492692   -2.11388582115   -2.00000000000
    -12.68331492692   19.02497239038   -2.11388582115   -2.00000000000
     12.68331492692   19.02497239038   -2.11388582115   -2.00000000000
     19.02497239038   12.68331492692   -2.11388582115   -2.00000000000
     19.02497239038  -12.68331492692   -2.11388582115   -2.00000000000
     12.68331492692  -19.02497239038   -2.11388582115   -2.00000000000
    -12.68331492692  -19.02497239038   -2.11388582115   -2.00000000000
    -19.02497239038  -12.68331492692   -2.11388582115   -2.00000000000
    -23.25274403269    0.00000000000    0.00000000000    2.00000000000
      0.00000000000   23.25274403269    0.00000000000    2.00000000000
     23.25274403269    0.00000000000    0.00000000000    2.00000000000
      0.00000000000  -23.25274403269    0.00000000000    2.00000000000
    -23.25274403269    2.11388582115    0.00000000000   -2.00000000000
     -2.11388582115   23.25274403269    0.00000000000   -2.00000000000
      2.11388582115   23.25274403269    0.00000000000   -2.00000000000
     23.25274403269    2.11388582115    0.00000000000   -2.00000000000
     23.25274403269   -2.11388582115    0.00000000000   -2.00000000000
      2.11388582115  -23.25274403269    0.00000000000   -2.00000000000
     -2.11388582115  -23.25274403269    0.00000000000   -2.00000000000
    -23.25274403269   -2.11388582115    0.00000000000   -2.00000000000
    -23.25274403269    0.00000000000   -2.11388582115   -2.00000000000
      0.00000000000   23.25274403269   -2.11388582115   -2.00000000000
     23.25274403269    0.00000000000   -2.11388582115   -2.00000000000
      0.00000000000  -23.25274403269   -2.11388582115   -2.00000000000
    -23.25274403269    2.11388582115   -2.11388582115    2.00000000000
     -2.11388582115   23.25274403269   -2.11388582115    2.00000000000
      2.11388582115   23.25274403269   -2.11388582115    2.00000000000
     23.25274403269    2.11388582115   -2.11388582115    2.00000000000
     23.25274403269   -2.11388582115   -2.11388582115    2.00000000000
      2.11388582115  -23.25274403269   -2.11388582115    2.00000000000
     -2.11388582115  -23.25274403269   -2.11388582115    2.00000000000
    -23.25274403269   -2.11388582115   -2.11388582115    2.00000000000
    -23.25274403269    4.22777164231    0.00000000000    2.00000000000
    -21.13885821154   10.56942910577    0.00000000000    2.00000000000
    -10.56942910577   21.13885821154    0.00000000000    2.00000000000
     -4.22777164231   23.25274403269    0.00000000000    2.00000000000
      4.22777164231   23.25274403269    0.00000000000    2.00000000000
     10.56942910577   21.13885821154    0.00000000000    2.00000000000
     21.13885821154   10.56942910577    0.00000000000    2.00000000000
     23.25274403269    4.22777164231    0.00000000000    2.00000000000
     23.25274403269   -4.22777164231    0.00000000000    2.00000000000
     21.13885821154  -10.56942910577    0.00000000000    2.00000000000
     10.56942910577  -21.13885821154    0.00000000000    2.00000000000
      4.22777164231  -23.25274403269    0.00000000000    2.00000000000
     -4.22777164231  -23.25274403269    0.00000000000    2.00000000000
    -10.56942910577  -21.13885821154    0.00000000000    2.00000000000
    -21.13885821154  -10.56942910577    0.00000000000    2.00000000000
    -23.25274403269   -4.22777164231    0.00000000000    2.00000000000
    -23.25274403269    4.22777164231   -2.11388582115   -2.00000000000
    -21.13885821154   10.56942910577   -2.11388582115   -2.00000000000
    -10.56942910577   21.13885821154   -2.11388582115   -2.00000000000
     -4.22777164231   23.25274403269   -2.11388582115   -2.00000000000
      4.22777164231   23.25274403269   -2.11388582115   -2.00000000000
     10.56942910577   21.13885821154   -2.11388582115   -2.00000000000
     21.13885821154   10.56942910577   -2.11388582115   -2.00000000000
     23.25274403269    4.22777164231   -2.11388582115   -2.00000000000
     23.25274403269   -4.22777164231   -2.11388582115   -2.00000000000
     21.13885821154  -10.56942910577   -2.11388582115   -2.00000000000
     10.56942910577  -21.13885821154   -2.11388582115   -2.00000000000
      4.22777164231  -23.25274403269   -2.11388582115   -2.00000000000
     -4.22777164231  -23.25274403269   -2.11388582115   -2.00000000000
    -10.56942910577  -21.13885821154   -2.11388582115   -2.00000000000
    -21.13885821154  -10.56942910577   -2.11388582115   -2.00000000000
    -23.25274403269   -4.22777164231   -2.11388582115   -2.00000000000
    -16.91108656923   16.91108656923    0.00000000000   -2.00000000000
     16.91108656923   16.91108656923    0.00000000000   -2.00000000000
     16.91108656923  -16.91108656923    0.00000000000   -2.00000000000
    -16.91108656923  -16.91108656923    0.00000000000   -2.00000000000
    -16.91108656923   16.91108656923   -2.11388582115    2.00000000000
     16.91108656923   16.91108656923   -2.11388582115    2.00000000000
     16.91108656923  -16.91108656923   -2.11388582115    2.00000000000
    -16.91108656923  -16.91108656923   -2.11388582115    2.00000000000
    -23.25274403269    6.34165746346    0.00000000000   -2.00000000000
    -19.02497239038   14.79720074808    0.00000000000   -2.00000000000
    -14.79720074808   19.02497239038    0.00000000000   -2.00000000000
     -6.34165746346   23.25274403269    0.00000000000   -2.00000000000
      6.34165746346   23.25274403269    0.00000000000   -2.00000000000
     14.79720074808   19.02497239038    0.00000000000   -2.00000000000
     19.02497239038   14.79720074808    0.00000000000   -2.00000000000
     23.25274403269    6.34165746346    0.00000000000   -2.00000000000
     23.25274403269   -6.34165746346    0.00000000000   -2.00000000000
     19.02497239038  -14.79720074808    0.00000000000   -2.00000000000
     14.79720074808  -19.02497239038    0.00000000000   -2.00000000000
      6.34165746346  -23.25274403269    0.00000000000   -2.00000000000
     -6.34165746346  -23.25274403269    0.00000000000   -2.00000000000
    -14.79720074808  -19.02497239038    0.00000000000   -2.00000000000
    -19.02497239038  -14.79720074808    0.00000000000   -2.00000000000
    -23.25274403269   -6.34165746346    0.00000000000   -2.00000000000
    -23.25274403269    6.34165746346   -2.11388582115    2.00000000000
    -19.02497239038   14.79720074808   -2.11388582115    2.00000000000
    -14.79720074808   19.02497239038   -2.11388582115    2.00000000000
     -6.34165746346   23.25274403269   -2.11388582115    2.00000000000
      6.34165746346   23.25274403269   -2.11388582115    2.00000000000
     14.79720074808   19.02497239038   -2.11388582115    2.00000000000
     19.02497239038   14.79720074808   -2.11388582115    2.00000000000
     23.25274403269    6.34165746346   -2.11388582115    2.00000000000
     23.25274403269   -6.34165746346   -2.11388582115    2.00000000000
     19.02497239038  -14.79720074808   -2.11388582115    2.00000000000
     14.79720074808  -19.02497239038   -2.11388582115    2.00000000000
      6.34165746346  -23.25274403269   -2.11388582115    2.00000000000
     -6.34165746346  -23.25274403269   -2.11388582115    2.00000000000
    -14.79720074808  -19.02497239038   -2.11388582115    2.00000000000
    -19.02497239038  -14.79720074808   -2.11388582115    2.00000000000
    -23.25274403269   -6.34165746346   -2.11388582115    2.00000000000
    -21.13885821154   12.68331492692    0.00000000000   -2.00000000000
    -12.68331492692   21.13885821154    0.00000000000   -2.00000000000
     12.68331492692   21.13885821154    0.00000000000   -2.00000000000
     21.13885821154   12.68331492692    0.00000000000   -2.00000000000
     21.13885821154  -12.68331492692    0.00000000000   -2.00000000000
     12.68331492692  -21.13885821154    0.00000000000   -2.00000000000
    -12.68331492692  -21.13885821154    0.00000000000   -2.00000000000
    -21.13885821154  -12.68331492692    0.00000000000   -2.00000000000
    -23.25274403269    8.45554328461    0.00000000000    2.00000000000
     -8.45554328461   23.25274403269    0.00000000000    2.00000000000
      8.45554328461   23.25274403269    0.00000000000    2.00000000000
     23.25274403269    8.45554328461    0.00000000000    2.00000000000
     23.25274403269   -8.45554328461    0.00000000000    2.00000000000
      8.45554328461  -23.25274403269    0.00000000000    2.00000000000
     -8.45554328461  -23.25274403269    0.00000000000    2.00000000000
    -23.25274403269   -8.45554328461    0.00000000000    2.00000000000
    -21.13885821154   12.68331492692   -2.11388582115    2.00000000000
    -12.68331492692   21.13885821154   -2.11388582115    2.00000000000
     12.68331492692   21.13885821154   -2.11388582115    2.00000000000
     21.13885821154   12.68331492692   -2.11388582115    2.00000000000
     21.13885821154  -12.68331492692   -2.11388582115    2.00000000000
     12.68331492692  -21.13885821154   -2.11388582115    2.00000000000
    -12.68331492692  -21.13885821154   -2.11388582115    2.00000000000
    -21.13885821154  -12.68331492692   -2.11388582115    2.00000000000
    -23.25274403269    8.45554328461   -2.11388582115   -2.00000000000
     -8.45554328461   23.25274403269   -2.11388582115   -2.00000000000
      8.45554328461   23.25274403269   -2.11388582115   -2.00000000000
     23.25274403269    8.45554328461   -2.11388582115   -2.00000000000
     23.25274403269   -8.45554328461   -2.11388582115   -2.00000000000
      8.45554328461  -23.25274403269   -2.11388582115   -2.00000000000
     -8.45554328461  -23.25274403269   -2.11388582115   -2.00000000000
    -23.25274403269   -8.45554328461   -2.11388582115   -2.00000000000
    -25.36662985384    0.00000000000    0.00000000000   -2.00000000000
      0.00000000000   25.36662985384    0.00000000000   -2.00000000000
     25.36662985384    0.00000000000    0.00000000000   -2.00000000000
      0.00000000000  -25.36662985384    0.00000000000   -2.00000000000
    -25.36662985384    2.11388582115    0.00000000000    2.00000000000
    -19.02497239038   16.91108656923    0.00000000000    2.00000000000
    -16.91108656923   19.02497239038    0.00000000000    2.00000000000
     -2.11388582115   25.36662985384    0.00000000000    2.00000000000
      2.11388582115   25.36662985384    0.00000000000    2.00000000000
     16.91108656923   19.02497239038    0.00000000000    2.00000000000
     19.02497239038   16.91108656923    0.00000000000    2.00000000000
     25.36662985384    2.11388582115    0.00000000000    2.00000000000
     25.36662985384   -2.11388582115    0.00000000000    2.00000000000
     19.02497239038  -16.91108656923    0.00000000000    2.00000000000
     16.91108656923  -19.02497239038    0.00000000000    2.00000000000
      2.11388582115  -25.36662985384    0.00000000000    2.00000000000
     -2.11388582115  -25.36662985384    0.00000000000    2.00000000000
    -16.91108656923  -19.02497239038    0.00000000000    2.00000000000
    -19.02497239038  -16.91108656923    0.00000000000    2.00000000000
    -25.36662985384   -2.11388582115    0.00000000000    2.00000000000
    -25.36662985384    0.00000000000   -2.11388582115    2.00000000000
      0.00000000000   25.36662985384   -2.11388582115    2.00000000000
     25.36662985384    0.00000000000   -2.11388582115    2.00000000000
      0.00000000000  -25.36662985384   -2.11388582115    2.00000000000
    -23.25274403269   10.56942910577    0.00000000000   -2.00000000000
    -10.56942910577   23.25274403269    0.00000000000   -2.00000000000
     10.56942910577   23.25274403269    0.00000000000   -2.00000000000
     23.25274403269   10.56942910577    0.00000000000   -2.00000000000
     23.25274403269  -10.56942910577    0.00000000000   -2.00000000000
     10.56942910577  -23.25274403269    0.00000000000   -2.00000000000
    -10.56942910577  -23.25274403269    0.00000000000   -2.00000000000
    -23.25274403269  -10.56942910577    0.00000000000   -2.00000000000
    -25.36662985384    2.11388582115   -2.11388582115   -2.00000000000
    -19.02497239038   16.91108656923   -2.11388582115   -2.00000000000
    -16.91108656923   19.02497239038   -2.11388582115   -2.00000000000
     -2.11388582115   25.36662985384   -2.11388582115   -2.00000000000
      2.11388582115   25.36662985384   -2.11388582115   -2.00000000000
     16.91108656923   19.02497239038   -2.11388582115   -2.00000000000
     19.02497239038   16.91108656923   -2.11388582115   -2.00000000000
     25.36662985384    2.11388582115   -2.11388582115   -2.00000000000
     25.36662985384   -2.11388582115   -2.11388582115   -2.00000000000
     19.02497239038  -16.91108656923   -2.11388582115   -2.00000000000
     16.91108656923  -19.02497239038   -2.11388582115   -2.00000000000
      2.11388582115  -25.36662985384   -2.11388582115   -2.00000000000
     -2.11388582115  -25.36662985384   -2.11388582115   -2.00000000000
    -16.91108656923  -19.02497239038   -2.11388582115   -2.00000000000
    -19.02497239038  -16.91108656923   -2.11388582115   -2.00000000000
    -25.36662985384   -2.11388582115   -2.11388582115   -2.00000000000
    -23.25274403269   10.56942910577   -2.11388582115    2.00000000000
    -10.56942910577   23.25274403269   -2.11388582115    2.00000000000
     10.56942910577   23.25274403269   -2.11388582115    2.00000000000
     23.25274403269   10.56942910577   -2.11388582115    2.00000000000
     23.25274403269  -10.56942910577   -2.11388582115    2.00000000000
     10.56942910577  -23.25274403269   -2.11388582115    2.00000000000
    -10.56942910577  -23.25274403269   -2.11388582115    2.00000000000
    -23.25274403269  -10.56942910577   -2.11388582115    2.00000000000
    -25.36662985384    4.22777164231    0.00000000000   -2.00000000000
     -4.22777164231   25.36662985384    0.00000000000   -2.00000000000
      4.22777164231   25.36662985384    0.00000000000   -2.00000000000
     25.36662985384    4.22777164231    0.00000000000   -2.00000000000
     25.36662985384   -4.22777164231    0.00000000000   -2.00000000000
      4.22777164231  -25.36662985384    0.00000000000   -2.00000000000
     -4.22777164231  -25.36662985384    0.00000000000   -2.00000000000
    -25.36662985384   -4.22777164231    0.00000000000   -2.00000000000
    -21.13885821154   14.79720074808    0.00000000000    2.00000000000
    -14.79720074808   21.13885821154    0.00000000000    2.00000000000
     14.79720074808   21.13885821154    0.00000000000    2.00000000000
     21.13885821154   14.79720074808    0.00000000000    2.00000000000
     21.13885821154  -14.79720074808    0.00000000000    2.00000000000
     14.79720074808  -21.13885821154    0.00000000000    2.00000000000
    -14.79720074808  -21.13885821154    0.00000000000    2.00000000000
    -21.13885821154  -14.79720074808    0.00000000000    2.00000000000
    -25.36662985384    4.22777164231   -2.11388582115    2.00000000000
     -4.22777164231   25.36662985384   -2.11388582115    2.00000000000
      4.22777164231   25.36662985384   -2.11388582115    2.00000000000
     25.36662985384    4.22777164231   -2.11388582115    2.00000000000
     25.36662985384   -4.22777164231   -2.11388582115    2.00000000000
      4.22777164231  -25.36662985384   -2.11388582115    2.00000000000
     -4.22777164231  -25.36662985384   -2.11388582115    2.00000000000
    -25.36662985384   -4.22777164231   -2.11388582115    2.00000000000
    -21.13885821154   14.79720074808   -2.11388582115   -2.00000000000
    -14.79720074808   21.13885821154   -2.11388582115   -2.00000000000
     14.79720074808   21.13885821154   -2.11388582115   -2.00000000000
     21.13885821154   14.79720074808   -2.11388582115   -2.00000000000
     21.13885821154  -14.79720074808   -2.11388582115   -2.00000000000
     14.79720074808  -21.13885821154   -2.11388582115   -2.00000000000
    -14.79720074808  -21.13885821154   -2.11388582115   -2.00000000000
    -21.13885821154  -14.79720074808   -2.11388582115   -2.00000000000
    -25.36662985384    6.34165746346    0.00000000000    2.00000000000
     -6.34165746346   25.36662985384    0.00000000000    2.00000000000
      6.34165746346   25.36662985384    0.00000000000    2.00000000000
     25.36662985384    6.34165746346    0.00000000000    2.00000000000
     25.36662985384   -6.34165746346    0.00000000000    2.00000000000
      6.34165746346  -25.36662985384    0.00000000000    2.00000000000
     -6.34165746346  -25.36662985384    0.00000000000    2.00000000000
    -25.36662985384   -6.34165746346    0.00000000000    2.00000000000
    -25.36662985384    6.34165746346   -2.11388582115   -2.00000000000
     -6.34165746346   25.36662985384   -2.11388582115   -2.00000000000
      6.34165746346   25.36662985384   -2.11388582115   -2.00000000000
     25.36662985384    6.34165746346   -2.11388582115   -2.00000000000
     25.36662985384   -6.34165746346   -2.11388582115   -2.00000000000
      6.34165746346  -25.36662985384   -2.11388582115   -2.00000000000
     -6.34165746346  -25.36662985384   -2.11388582115   -2.00000000000
    -25.36662985384   -6.34165746346   -2.11388582115   -2.00000000000
    -23.25274403269   12.68331492692    0.00000000000    2.00000000000
    -12.68331492692   23.25274403269    0.00000000000    2.00000000000
     12.68331492692   23.25274403269    0.00000000000    2.00000000000
     23.25274403269   12.68331492692    0.00000000000    2.00000000000
     23.25274403269  -12.68331492692    0.00000000000    2.00000000000
     12.68331492692  -23.25274403269    0.00000000000    2.00000000000
    -12.68331492692  -23.25274403269    0.00000000000    2.00000000000
    -23.25274403269  -12.68331492692    0.00000000000    2.00000000000
    -23.25274403269   12.68331492692   -2.11388582115   -2.00000000000
    -12.68331492692   23.25274403269   -2.11388582115   -2.00000000000
     12.68331492692   23.25274403269   -2.11388582115   -2.00000000000
     23.25274403269   12.68331492692   -2.11388582115   -2.00000000000
     23.25274403269  -12.68331492692   -2.11388582115   -2.00000000000
     12.68331492692  -23.25274403269   -2.11388582115   -2.00000000000
    -12.68331492692  -23.25274403269   -2.11388582115   -2.00000000000
    -23.25274403269  -12.68331492692   -2.11388582115   -2.00000000000
    -25.36662985384    8.45554328461    0.00000000000   -2.00000000000
     -8.45554328461   25.36662985384    0.00000000000   -2.00000000000
      8.45554328461   25.36662985384    0.00000000000   -2.00000000000
     25.36662985384    8.45554328461    0.00000000000   -2.00000000000
     25.36662985384   -8.45554328461    0.00000000000   -2.00000000000
      8.45554328461  -25.36662985384    0.00000000000   -2.00000000000
     -8.45554328461  -25.36662985384    0.00000000000   -2.00000000000
    -25.36662985384   -8.45554328461    0.00000000000   -2.00000000000
    -25.36662985384    8.45554328461   -2.11388582115    2.00000000000
     -8.45554328461   25.36662985384   -2.11388582115    2.00000000000
      8.45554328461   25.36662985384   -2.11388582115    2.00000000000
     25.36662985384    8.45554328461   -2.11388582115    2.00000000000
     25.36662985384   -8.45554328461   -2.11388582115    2.00000000000
      8.45554328461  -25.36662985384   -2.11388582115    2.00000000000
     -8.45554328461  -25.36662985384   -2.11388582115    2.00000000000
    -25.36662985384   -8.45554328461   -2.11388582115    2.00000000000
    -19.02497239038   19.02497239038    0.00000000000   -2.00000000000
     19.02497239038   19.02497239038    0.00000000000   -2.00000000000
     19.02497239038  -19.02497239038    0.00000000000   -2.00000000000
    -19.02497239038  -19.02497239038    0.00000000000   -2.00000000000
    -19.02497239038   19.02497239038   -2.11388582115    2.00000000000
     19.02497239038   19.02497239038   -2.11388582115    2.00000000000
     19.02497239038  -19.02497239038   -2.11388582115    2.00000000000
    -19.02497239038  -19.02497239038   -2.11388582115    2.00000000000
    -21.13885821154   16.91108656923    0.00000000000   -2.00000000000
    -16.91108656923   21.13885821154    0.00000000000   -2.00000000000
     16.91108656923   21.13885821154    0.00000000000   -2.00000000000
     21.13885821154   16.91108656923    0.00000000000   -2.00000000000
     21.13885821154  -16.91108656923    0.00000000000   -2.00000000000
     16.91108656923  -21.13885821154    0.00000000000   -2.00000000000
    -16.91108656923  -21.13885821154    0.00000000000   -2.00000000000
    -21.13885821154  -16.91108656923    0.00000000000   -2.00000000000
    -21.13885821154   16.91108656923   -2.11388582115    2.00000000000
    -16.91108656923   21.13885821154   -2.11388582115    2.00000000000
     16.91108656923   21.13885821154   -2.11388582115    2.00000000000
     21.13885821154   16.91108656923   -2.11388582115    2.00000000000
     21.13885821154  -16.91108656923   -2.11388582115    2.00000000000
     16.91108656923  -21.13885821154   -2.11388582115    2.00000000000
    -16.91108656923  -21.13885821154   -2.11388582115    2.00000000000
    -21.13885821154  -16.91108656923   -2.11388582115    2.00000000000
    -27.48051567500    0.00000000000    0.00000000000    2.00000000000
    -25.36662985384   10.56942910577    0.00000000000    2.00000000000
    -10.56942910577   25.36662985384    0.00000000000    2.00000000000
      0.00000000000   27.48051567500    0.00000000000    2.00000000000
     10.56942910577   25.36662985384    0.00000000000    2.00000000000
     25.36662985384   10.56942910577    0.00000000000    2.00000000000
     27.48051567500    0.00000000000    0.00000000000    2.00000000000
     25.36662985384  -10.56942910577    0.00000000000    2.00000000000
     10.56942910577  -25.36662985384    0.00000000000    2.00000000000
      0.00000000000  -27.48051567500    0.00000000000    2.00000000000
    -10.56942910577  -25.36662985384    0.00000000000    2.00000000000
    -25.36662985384  -10.56942910577    0.00000000000    2.00000000000
    -27.48051567500    2.11388582115    0.00000000000   -2.00000000000
    -23.25274403269   14.79720074808    0.00000000000   -2.00000000000
    -14.79720074808   23.25274403269    0.00000000000   -2.00000000000
     -2.11388582115   27.48051567500    0.00000000000   -2.00000000000
      2.11388582115   27.48051567500    0.00000000000   -2.00000000000
     14.79720074808   23.25274403269    0.00000000000   -2.00000000000
     23.25274403269   14.79720074808    0.00000000000   -2.00000000000
     27.48051567500    2.11388582115    0.00000000000   -2.00000000000
     27.48051567500   -2.11388582115    0.00000000000   -2.00000000000
     23.25274403269  -14.79720074808    0.00000000000   -2.00000000000
     14.79720074808  -23.25274403269    0.00000000000   -2.00000000000
      2.11388582115  -27.48051567500    0.00000000000   -2.00000000000
     -2.11388582115  -27.48051567500    0.00000000000   -2.00000000000
    -14.79720074808  -23.25274403269    0.00000000000   -2.00000000000
    -23.25274403269  -14.79720074808    0.00000000000   -2.00000000000
    -27.48051567500   -2.11388582115    0.00000000000   -2.00000000000
    -27.48051567500    0.00000000000   -2.11388582115   -2.00000000000
    -25.36662985384   10.56942910577   -2.11388582115   -2.00000000000
    -10.56942910577   25.36662985384   -2.11388582115   -2.00000000000
      0.00000000000   27.48051567500   -2.11388582115   -2.00000000000
     10.56942910577   25.36662985384   -2.11388582115   -2.00000000000
     25.36662985384   10.56942910577   -2.11388582115   -2.00000000000
     27.48051567500    0.00000000000   -2.11388582115   -2.00000000000
     25.36662985384  -10.56942910577   -2.11388582115   -2.00000000000
     10.56942910577  -25.36662985384   -2.11388582115   -2.00000000000
      0.00000000000  -27.48051567500   -2.11388582115   -2.00000000000
[...]
 Number of atoms for local DF:   10
 Number of fitting functions:  2538 (100.00%)
 Warning: drop high-lying PAOs                     5
 Number of occupied orbitals:    39
 Number of virtual  orbitals:   704
 Number of Cholesky vectors:      9
 MP2 energy in ED [au]:          -0.117894369693
 CPU time [min]:   273.451                   Wall time [min]:     7.664
 
 MO:    24
 Number of atoms in domain:      10
 Number of atomic orbitals:     777
 Number of atoms for local DF:   10
 Number of fitting functions:  2538 (100.00%)
 Warning: drop high-lying PAOs                     5
 Number of occupied orbitals:    44
 Number of virtual  orbitals:   704
 Number of Cholesky vectors:      9
 MP2 energy in ED [au]:          -0.115006275274
 CPU time [min]:   284.689                   Wall time [min]:     7.977
 
 MO:    25
 Number of atoms in domain:      10
 Number of atomic orbitals:     777
 Number of atoms for local DF:   10
 Number of fitting functions:  2538 (100.00%)
 Warning: drop high-lying PAOs                     5
 Number of occupied orbitals:    44
 Number of virtual  orbitals:   704
 Number of Cholesky vectors:      9
 MP2 energy in ED [au]:          -0.114181946951
 CPU time [min]:   295.949                   Wall time [min]:     8.291
 
 MO:    26
 Number of atoms in domain:      10
 Number of atomic orbitals:     777
 Number of atoms for local DF:   10
 Number of fitting functions:  2538 (100.00%)
 Warning: drop high-lying PAOs                     5
 Number of occupied orbitals:    20
 Number of virtual  orbitals:   704
 Number of Cholesky vectors:      9
 MP2 energy in ED [au]:          -0.117890973348
 CPU time [min]:   302.399                   Wall time [min]:     8.471
 
 MO:    27
 Number of atoms in domain:      10
 Number of atomic orbitals:     777
 Number of atoms for local DF:   10
 Number of fitting functions:  2538 (100.00%)
 Warning: drop high-lying PAOs                     5
 Number of occupied orbitals:    51
 Number of virtual  orbitals:   704
 Number of Cholesky vectors:      9
 MP2 energy in ED [au]:          -0.114404791402
 CPU time [min]:   315.168                   Wall time [min]:     8.828
 
 MO:    28
 Number of atoms in domain:      10
 Number of atomic orbitals:     777
 Number of atoms for local DF:   10
 Number of fitting functions:  2538 (100.00%)
 Warning: drop high-lying PAOs                     5
 Number of occupied orbitals:    51
 Number of virtual  orbitals:   704
 Number of Cholesky vectors:      9
 MP2 energy in ED [au]:          -0.114485635521
 CPU time [min]:   327.937                   Wall time [min]:     9.186
 
 MO:    29
 Number of atoms in domain:      10
 Number of atomic orbitals:     777
 Number of atoms for local DF:   10
 Number of fitting functions:  2538 (100.00%)
 Warning: drop high-lying PAOs                     5
 Number of occupied orbitals:    20
 Number of virtual  orbitals:   704
 Number of Cholesky vectors:      9
 MP2 energy in ED [au]:          -0.117889935454
 CPU time [min]:   334.421                   Wall time [min]:     9.367
 
 MO:    30
 Number of atoms in domain:      10
 Number of atomic orbitals:     777
 Number of atoms for local DF:   10
 Number of fitting functions:  2538 (100.00%)
 Warning: drop high-lying PAOs                     5
 Number of occupied orbitals:    51
 Number of virtual  orbitals:   704
 Number of Cholesky vectors:      9
 MP2 energy in ED [au]:          -0.114557262025
 CPU time [min]:   347.167                   Wall time [min]:     9.723
 
 MO:    31
 Number of atoms in domain:      10
 Number of atomic orbitals:     777
 Number of atoms for local DF:   10
 Number of fitting functions:  2538 (100.00%)
 Warning: drop high-lying PAOs                     5
 Number of occupied orbitals:    54
 Number of virtual  orbitals:   704
 Number of Cholesky vectors:      9
 MP2 energy in ED [au]:          -0.113473252782
 CPU time [min]:   360.894                   Wall time [min]:    10.109
 
 MO:    32
 Number of atoms in domain:      10
 Number of atomic orbitals:     777
 Number of atoms for local DF:   10
 Number of fitting functions:  2538 (100.00%)
 Warning: drop high-lying PAOs                     5
 Number of occupied orbitals:    54
 Number of virtual  orbitals:   704
 Number of Cholesky vectors:      9
 MP2 energy in ED [au]:          -0.113519564964
 CPU time [min]:   374.626                   Wall time [min]:    10.494
 
 MO:    33
 Number of atoms in domain:      10
 Number of atomic orbitals:     777
 Number of atoms for local DF:   10
 Number of fitting functions:  2538 (100.00%)
 Warning: drop high-lying PAOs                     5
 Number of occupied orbitals:    20
 Number of virtual  orbitals:   704
 Number of Cholesky vectors:      9
 MP2 energy in ED [au]:          -0.113735684214
 CPU time [min]:   381.097                   Wall time [min]:    10.674
 
 MO:    34
 Number of atoms in domain:      10
 Number of atomic orbitals:     777
 Number of atoms for local DF:   10
 Number of fitting functions:  2538 (100.00%)
 Warning: drop high-lying PAOs                     5
 Number of occupied orbitals:    44
 Number of virtual  orbitals:   704
 Number of Cholesky vectors:      9
 MP2 energy in ED [au]:          -0.119360413533
 CPU time [min]:   392.323                   Wall time [min]:    10.987
 
 MO:    35
 Number of atoms in domain:      10
 Number of atomic orbitals:     777
 Number of atoms for local DF:   10
 Number of fitting functions:  2538 (100.00%)
 Warning: drop high-lying PAOs                     5
 Number of occupied orbitals:    43
 Number of virtual  orbitals:   704
 Number of Cholesky vectors:      9
 MP2 energy in ED [au]:          -0.115325113249
 CPU time [min]:   403.269                   Wall time [min]:    11.292
 
 MO:    36
 Number of atoms in domain:      10
 Number of atomic orbitals:     777
 Number of atoms for local DF:   10
 Number of fitting functions:  2538 (100.00%)
 Warning: drop high-lying PAOs                     5
 Number of occupied orbitals:    20
 Number of virtual  orbitals:   704
 Number of Cholesky vectors:      9
 MP2 energy in ED [au]:          -0.113838255426
 CPU time [min]:   409.728                   Wall time [min]:    11.472
 
 MO:    37
 Number of atoms in domain:      10
 Number of atomic orbitals:     777
 Number of atoms for local DF:   10
 Number of fitting functions:  2538 (100.00%)
 Warning: drop high-lying PAOs                     5
 Number of occupied orbitals:    51
 Number of virtual  orbitals:   704
 Number of Cholesky vectors:      9
 MP2 energy in ED [au]:          -0.119041150923
 CPU time [min]:   422.486                   Wall time [min]:    11.829
 
 MO:    38
 Number of atoms in domain:      10
 Number of atomic orbitals:     777
 Number of atoms for local DF:   10
 Number of fitting functions:  2538 (100.00%)
 Warning: drop high-lying PAOs                     5
 Number of occupied orbitals:    51
 Number of virtual  orbitals:   704
 Number of Cholesky vectors:      9
 MP2 energy in ED [au]:          -0.114586382565
 CPU time [min]:   435.223                   Wall time [min]:    12.186
 
 MO:    39
 Number of atoms in domain:      10
 Number of atomic orbitals:     777
 Number of atoms for local DF:   10
 Number of fitting functions:  2538 (100.00%)
 Warning: drop high-lying PAOs                     5
 Number of occupied orbitals:    20
 Number of virtual  orbitals:   704
 Number of Cholesky vectors:      9
 MP2 energy in ED [au]:          -0.113859378471
 CPU time [min]:   441.677                   Wall time [min]:    12.365
 
 MO:    40
 Number of atoms in domain:      10
 Number of atomic orbitals:     777
 Number of atoms for local DF:   10
 Number of fitting functions:  2538 (100.00%)
 Warning: drop high-lying PAOs                     5
 Number of occupied orbitals:    54
 Number of virtual  orbitals:   704
 Number of Cholesky vectors:      9
 MP2 energy in ED [au]:          -0.121546000876
 CPU time [min]:   455.397                   Wall time [min]:    12.750
 
 MO:    41
 Number of atoms in domain:      10
 Number of atomic orbitals:     777
 Number of atoms for local DF:   10
 Number of fitting functions:  2538 (100.00%)
 Warning: drop high-lying PAOs                     5
 Number of occupied orbitals:    44
 Number of virtual  orbitals:   704
 Number of Cholesky vectors:      9
 MP2 energy in ED [au]:          -0.114994183280
 CPU time [min]:   466.620                   Wall time [min]:    13.063
 
 MO:    42
 Number of atoms in domain:      10
 Number of atomic orbitals:     777
 Number of atoms for local DF:   10
 Number of fitting functions:  2538 (100.00%)
 Warning: drop high-lying PAOs                     5
 Number of occupied orbitals:    54
 Number of virtual  orbitals:   704
 Number of Cholesky vectors:      9
 MP2 energy in ED [au]:          -0.121542356369
 CPU time [min]:   480.345                   Wall time [min]:    13.448
 
 MO:    43
 Number of atoms in domain:      10
 Number of atomic orbitals:     777
 Number of atoms for local DF:   10
 Number of fitting functions:  2538 (100.00%)
 Warning: drop high-lying PAOs                     5
 Number of occupied orbitals:    51
 Number of virtual  orbitals:   704
 Number of Cholesky vectors:      9
 MP2 energy in ED [au]:          -0.119109697837
 CPU time [min]:   493.095                   Wall time [min]:    13.805
 
 MO:    44
 Number of atoms in domain:      10
 Number of atomic orbitals:     777
 Number of atoms for local DF:   10
 Number of fitting functions:  2538 (100.00%)
 Warning: drop high-lying PAOs                     5
 Number of occupied orbitals:    47
 Number of virtual  orbitals:   704
 Number of Cholesky vectors:      9
 MP2 energy in ED [au]:          -0.121834525149
 CPU time [min]:   504.883                   Wall time [min]:    14.134
 
 MO:    45
 Number of atoms in domain:      10
 Number of atomic orbitals:     777
 Number of atoms for local DF:   10
 Number of fitting functions:  2538 (100.00%)
 Warning: drop high-lying PAOs                     5
 Number of occupied orbitals:    45
 Number of virtual  orbitals:   704
 Number of Cholesky vectors:      9
 MP2 energy in ED [au]:          -0.070479602643
 CPU time [min]:   516.969                   Wall time [min]:    14.471
 
 MO:    46
 Number of atoms in domain:      10
 Number of atomic orbitals:     777
 Number of atoms for local DF:   10
 Number of fitting functions:  2538 (100.00%)
 Warning: drop high-lying PAOs                     5
 Number of occupied orbitals:    45
 Number of virtual  orbitals:   704
 Number of Cholesky vectors:      9
 MP2 energy in ED [au]:          -0.070486532418
 CPU time [min]:   529.028                   Wall time [min]:    14.807
 
 MO:    47
 Number of atoms in domain:      10
 Number of atomic orbitals:     777
 Number of atoms for local DF:   10
 Number of fitting functions:  2538 (100.00%)
 Warning: drop high-lying PAOs                     5
 Number of occupied orbitals:    54
 Number of virtual  orbitals:   704
 Number of Cholesky vectors:      9
 MP2 energy in ED [au]:          -0.076315008028
 CPU time [min]:   542.730                   Wall time [min]:    15.191
 
 MO:    48
 Number of atoms in domain:      10
 Number of atomic orbitals:     777
 Number of atoms for local DF:   10
 Number of fitting functions:  2538 (100.00%)
 Warning: drop high-lying PAOs                     5
 Number of occupied orbitals:    32
 Number of virtual  orbitals:   704
 Number of Cholesky vectors:      9
 MP2 energy in ED [au]:          -0.070103202169
 CPU time [min]:   551.908                   Wall time [min]:    15.447
 
 MO:    49
 Number of atoms in domain:      10
 Number of atomic orbitals:     777
 Number of atoms for local DF:   10
 Number of fitting functions:  2538 (100.00%)
 Warning: drop high-lying PAOs                     5
 Number of occupied orbitals:    54
 Number of virtual  orbitals:   704
 Number of Cholesky vectors:      9
 MP2 energy in ED [au]:          -0.076423880931
 CPU time [min]:   565.639                   Wall time [min]:    15.832
 
 MO:    50
 Number of atoms in domain:      10
 Number of atomic orbitals:     777
 Number of atoms for local DF:   10
 Number of fitting functions:  2538 (100.00%)
 Warning: drop high-lying PAOs                     5
 Number of occupied orbitals:    46
 Number of virtual  orbitals:   704
 Number of Cholesky vectors:      9
 MP2 energy in ED [au]:          -0.070443050570
 CPU time [min]:   577.580                   Wall time [min]:    16.165
 
 MO:    51
 Number of atoms in domain:      10
 Number of atomic orbitals:     777
 Number of atoms for local DF:   10
 Number of fitting functions:  2538 (100.00%)
 Warning: drop high-lying PAOs                     5
 Number of occupied orbitals:    46
 Number of virtual  orbitals:   704
 Number of Cholesky vectors:      9
 MP2 energy in ED [au]:          -0.070420826487
 CPU time [min]:   589.490                   Wall time [min]:    16.497
 
 MO:    52
 Number of atoms in domain:      10
 Number of atomic orbitals:     777
 Number of atoms for local DF:   10
 Number of fitting functions:  2538 (100.00%)
 Warning: drop high-lying PAOs                     5
 Number of occupied orbitals:    30
 Number of virtual  orbitals:   704
 Number of Cholesky vectors:      9
 MP2 energy in ED [au]:          -0.070108784482
 CPU time [min]:   598.421                   Wall time [min]:    16.745
 
 MO:    53
 Number of atoms in domain:      10
 Number of atomic orbitals:     777
 Number of atoms for local DF:   10
 Number of fitting functions:  2538 (100.00%)
 Warning: drop high-lying PAOs                     5
 Number of occupied orbitals:    32
 Number of virtual  orbitals:   704
 Number of Cholesky vectors:      9
 MP2 energy in ED [au]:          -0.070106724378
 CPU time [min]:   607.592                   Wall time [min]:    17.001
 
 MO:    54
 Number of atoms in domain:      10
 Number of atomic orbitals:     777
 Number of atoms for local DF:   10
 Number of fitting functions:  2538 (100.00%)
 Warning: drop high-lying PAOs                     5
 Number of occupied orbitals:    44
 Number of virtual  orbitals:   704
 Number of Cholesky vectors:      9
 MP2 energy in ED [au]:          -0.072490016207
 CPU time [min]:   618.978                   Wall time [min]:    17.318
 
 MO:    55
 Number of atoms in domain:      10
 Number of atomic orbitals:     777
 Number of atoms for local DF:   10
 Number of fitting functions:  2538 (100.00%)
 Warning: drop high-lying PAOs                     5
 Number of occupied orbitals:    53
 Number of virtual  orbitals:   704
 Number of Cholesky vectors:      9
 MP2 energy in ED [au]:          -0.072685193475
 CPU time [min]:   632.004                   Wall time [min]:    17.683
 
 MO:    56
 Number of atoms in domain:      10
 Number of atomic orbitals:     777
 Number of atoms for local DF:   10
 Number of fitting functions:  2538 (100.00%)
 Warning: drop high-lying PAOs                     5
 Number of occupied orbitals:    46
 Number of virtual  orbitals:   704
 Number of Cholesky vectors:      9
 MP2 energy in ED [au]:          -0.070420023299
 CPU time [min]:   643.927                   Wall time [min]:    18.016
 
 MO:    57
 Number of atoms in domain:      10
 Number of atomic orbitals:     777
 Number of atoms for local DF:   10
 Number of fitting functions:  2538 (100.00%)
 Warning: drop high-lying PAOs                     5
 Number of occupied orbitals:    46
 Number of virtual  orbitals:   704
 Number of Cholesky vectors:      9
 MP2 energy in ED [au]:          -0.070442152965
 CPU time [min]:   655.878                   Wall time [min]:    18.349
 
 MO:    58
 Number of atoms in domain:      10
 Number of atomic orbitals:     777
 Number of atoms for local DF:   10
 Number of fitting functions:  2538 (100.00%)
 Warning: drop high-lying PAOs                     5
 Number of occupied orbitals:    62
 Number of virtual  orbitals:   704
 Number of Cholesky vectors:      9
 MP2 energy in ED [au]:          -0.070038762827
 CPU time [min]:   670.943                   Wall time [min]:    18.776
 
 MO:    59
 Number of atoms in domain:      10
 Number of atomic orbitals:     777
 Number of atoms for local DF:   10
 Number of fitting functions:  2538 (100.00%)
 Warning: drop high-lying PAOs                     5
 Number of occupied orbitals:    51
 Number of virtual  orbitals:   704
 Number of Cholesky vectors:      9
 MP2 energy in ED [au]:          -0.070845429472
 CPU time [min]:   684.102                   Wall time [min]:    19.144
 
 MO:    60
 Number of atoms in domain:      10
 Number of atomic orbitals:     777
 Number of atoms for local DF:   10
 Number of fitting functions:  2538 (100.00%)
 Warning: drop high-lying PAOs                     5
 Number of occupied orbitals:    62
 Number of virtual  orbitals:   704
 Number of Cholesky vectors:      9
 MP2 energy in ED [au]:          -0.084679354032
 CPU time [min]:   699.143                   Wall time [min]:    19.571
 
 MO:    61
 Number of atoms in domain:      10
 Number of atomic orbitals:     777
 Number of atoms for local DF:   10
 Number of fitting functions:  2538 (100.00%)
 Warning: drop high-lying PAOs                     5
 Number of occupied orbitals:    46
 Number of virtual  orbitals:   704
 Number of Cholesky vectors:      9
 MP2 energy in ED [au]:          -0.070488228832
 CPU time [min]:   711.089                   Wall time [min]:    19.904
 
 MO:    62
 Number of atoms in domain:      10
 Number of atomic orbitals:     777
 Number of atoms for local DF:   10
 Number of fitting functions:  2538 (100.00%)
 Warning: drop high-lying PAOs                     5
 Number of occupied orbitals:    53
 Number of virtual  orbitals:   704
 Number of Cholesky vectors:      9
 MP2 energy in ED [au]:          -0.072677488161
 CPU time [min]:   724.078                   Wall time [min]:    20.268
 
 **********************************************************************
 Dimensions of the extended domains:    Minimum / Average / Maximum
 
 Number of atoms in domain:                  10      10.0        10
 Number of atomic orbitals:                 777     777.0       777
 Number of fitting functions:              2538    2538.0      2538
 Number of occupied localized MOs:           20      44.5        62
 Number of PAOs:                            704     704.0       704
 
 **********************************************************************
 Final local correlation results
 
 Sum of pair energies [au]:                    -0.000421621417    (0.007%)
 Sum of energy corrections [au]:                0.000000000000    (0.000%)
 Sum of LMO contributions [au]:                -5.987473838443
 
 Reference energy [au]:                     -8735.619222271138
 DF-MP2 singles contribution [au]:              0.000000000000
 DF-MP2 correlation energy [au]:               -5.987895459860
 DF-MP2 energy [au]:                        -8741.607117730999
 
 **********************************************************************
  Time of manipulations in the EDs:      max CPU/Wall [s]  all CPU/Wall [min]
 
 PD construction & multipole pair E     618.94    18.19    10.32     0.30
 Construct MO basis of the ED             9.73     0.28     8.04     0.23
 (mu,nu|P) evaluation & trf 2 (ai|P)    780.25    22.19   618.84    17.31
 Evaluate MP2 energy of the ED           94.82     2.64    68.41     1.91
 Total of the above for all EDs         884.79    25.11   695.29    19.44
 
 **********************************************************************
 Maximum memory requirement [MB]:       
 
 PD construction & multipole pair E         54.9
 AO integral evaluation in the EDs        7995.7
 (mu,nu|P) evaluation & trf 2 (aI|P)     10515.7
 Evaluate MP2 energy in the EDs           1315.2
 
 ************************ 2023-01-11 23:05:54 *************************
                      Normal termination of mrcc.
 **********************************************************************
