 vasp.6.3.0 20Jan22 (build Apr  1 2022 16:44:48) complex                         
 executed on        HPECrayEX_GCC date 2023.01.06  22:56:30
 running  768 mpi-ranks, with    1 threads/rank
 distrk:  each k-point on  384 cores,    2 groups
 distr:  one band on NCORE=   4 cores,   96 groups


--------------------------------------------------------------------------------------------------------


 INCAR:
   SYSTEM = MgO-rocksalt
   ISMEAR = 0
   SIGMA = 0.05
   EDIFF = 1E-6
   ALGO = ALL
   ISTART = 0
   IBRION = -1
   NSW = 0
   ISYM = 2
   LHFCALC = .TRUE.
   HFSCREEN = 0.2
   GGA = PE
   IVDW = 13
   VDW_S8 = 1.19528249
   VDW_A1 = 0.38663183
   VDW_A2 = 5.19133469
   ENCUT = 520
   PREC = Accurate
   LASPH = .TRUE.
   LREAL = Auto
   ISPIN = 1
   NELM = 200
   NELMIN = 8
   NCORE = 4
   KPAR = 2
   LWAVE = .FALSE.
   LCHARG = .FALSE.

 POTCAR:    PAW_PBE Ag 02Apr2005                  
 -----------------------------------------------------------------------------
|                                                                             |
|           W    W    AA    RRRRR   N    N  II  N    N   GGGG   !!!           |
|           W    W   A  A   R    R  NN   N  II  NN   N  G    G  !!!           |
|           W    W  A    A  R    R  N N  N  II  N N  N  G       !!!           |
|           W WW W  AAAAAA  RRRRR   N  N N  II  N  N N  G  GGG   !            |
|           WW  WW  A    A  R   R   N   NN  II  N   NN  G    G                |
|           W    W  A    A  R    R  N    N  II  N    N   GGGG   !!!           |
|                                                                             |
|     You have selected ISYM=2 for a HF type calculation. This will           |
|     symmetrize the charge density but not the exchange potential. I         |
|     suggest to use ISYM=3 instead. This uses symmetry to obtain the         |
|     orbitals at all k-points in the Brillouin zone, but does not apply      |
|     symmetry to the Hartree potential directly. The resultant charge        |
|     might have lower symmetry than the crystal but, at least, Hartree       |
|     and exchange are fully compatible.                                      |
|                                                                             |
 -----------------------------------------------------------------------------

 POTCAR:    PAW_PBE Ag 02Apr2005                  
   SHA256 =  6550cfa3543261e132c169e1b98a529204624d72be14e2da2e0242bcb74a174d Ag/POTCAR             
   COPYR  = (c) Copyright 02Apr2005 Georg Kresse                                                    
   COPYR  = This file is part of the software VASP. Any use, copying, and all other rights are regul
   COPYR  = If you do not have a valid VASP license, you may not use, copy or distribute this file. 
   VRHFIN =Ag : s1 d10                                                                              
   LEXCH  = PE                                                                                      
   EATOM  =  1037.2675 eV,   76.2370 Ry                                                             
                                                                                                    
   TITEL  = PAW_PBE Ag 02Apr2005                                                                    
   LULTRA =        F    use ultrasoft PP ?                                                          
   IUNSCR =        1    unscreen: 0-lin 1-nonlin 2-no                                               
   RPACOR =    2.000    partial core radius                                                         
   POMASS =  107.868; ZVAL   =   11.000    mass and valenz                                          
   RCORE  =    2.500    outmost cutoff radius                                                       
   RWIGS  =    2.840; RWIGS  =    1.503    wigner-seitz radius (au A)                               
   ENMAX  =  249.844; ENMIN  =  187.383 eV                                                          
   ICORE  =        3    local potential                                                             
   LCOR   =        T    correct aug charges                                                         
   LPAW   =        T    paw PP                                                                      
   EAUG   =  412.496                                                                                
   DEXC   =    0.000                                                                                
   RMAX   =    2.560    core radius for proj-oper                                                   
   RAUG   =    1.300    factor for augmentation sphere                                              
   RDEP   =    2.576    radius for radial grids                                                     
   RDEPT  =    2.072    core radius for aug-charge                                                  
                                                                                                    
   Atomic configuration                                                                             
   12 entries                                                                                       
     n  l   j            E        occ.                                                              
     1  0  0.50    -25324.9161   2.0000                                                             
     2  0  0.50     -3728.5341   2.0000                                                             
     2  1  1.50     -3344.0404   6.0000                                                             
     3  0  0.50      -683.5581   2.0000                                                             
     3  1  1.50      -557.3225   6.0000                                                             
     3  2  2.50      -358.3853  10.0000                                                             
     4  0  0.50       -95.0341   2.0000                                                             
     4  1  1.50       -58.5511   6.0000                                                             
     4  2  2.50        -7.4440  10.0000                                                             
     5  0  0.50        -4.4045   1.0000                                                             
     5  1  0.50        -1.3606   0.0000                                                             
     4  3  2.50        -1.3606   0.0000                                                             
   Description                                                                                      
     l       E           TYP  RCUT    TYP  RCUT                                                     
     2     -7.4439781     23  2.400                                                                 
     2     -8.8045607     23  2.400                                                                 
     0     -4.4044681     23  2.400                                                                 
     0      1.9520038     23  2.400                                                                 
     1     -1.3605826     23  2.500                                                                 
     1     27.2116520     23  2.500                                                                 
     3     -4.0817478     23  2.400                                                                 
  local pseudopotential read in
  partial core-charges read in
  partial kinetic energy density read in
  atomic valenz-charges read in
  non local Contribution for L=           2  read in
    real space projection operators read in
  non local Contribution for L=           2  read in
    real space projection operators read in
  non local Contribution for L=           0  read in
    real space projection operators read in
  non local Contribution for L=           0  read in
    real space projection operators read in
  non local Contribution for L=           1  read in
    real space projection operators read in
  non local Contribution for L=           1  read in
    real space projection operators read in
    PAW grid and wavefunctions read in

   number of l-projection  operators is LMAX  =           6
   number of lm-projection operators is LMMAX =          18

 -----------------------------------------------------------------------------
|                                                                             |
|               ----> ADVICE to this user running VASP <----                  |
|                                                                             |
|     You have a (more or less) 'small supercell' and for smaller cells       |
|     it is recommended to use the reciprocal-space projection scheme!        |
|     The real-space optimization is not efficient for small cells and it     |
|     is also less accurate ...                                               |
|     Therefore, set LREAL=.FALSE. in the INCAR file.                         |
|                                                                             |
 -----------------------------------------------------------------------------

 Optimization of the real space projectors (new method)

 maximal supplied QI-value         = 15.12
 optimisation between [QCUT,QGAM] = [ 11.64, 23.28] = [ 37.95,151.78] Ry 
 Optimized for a Real-space Cutoff    1.45 Angstroem

   l    n(q)    QCUT    max X(q) W(low)/X(q) W(high)/X(q)  e(spline) 
   2      9    11.641    53.897    0.22E-03    0.42E-04    0.28E-06
   2      9    11.641    52.416    0.23E-03    0.44E-04    0.29E-06
   0     10    11.641   122.045    0.51E-04    0.25E-04    0.16E-06
   0     10    11.641    73.629    0.49E-04    0.24E-04    0.16E-06
   1     10    11.641    15.255    0.99E-04    0.55E-04    0.11E-06
   1     10    11.641     9.562    0.81E-04    0.47E-04    0.95E-07
  PAW_PBE Ag 02Apr2005                  :
 energy of atom  1       EATOM=-1037.2675
 kinetic energy error for atom=    0.0047 (will be added to EATOM!!)


 POSCAR: Ag
  positions in direct lattice
  velocities in cartesian coordinates
 -----------------------------------------------------------------------------
|                                                                             |
|           W    W    AA    RRRRR   N    N  II  N    N   GGGG   !!!           |
|           W    W   A  A   R    R  NN   N  II  NN   N  G    G  !!!           |
|           W    W  A    A  R    R  N N  N  II  N N  N  G       !!!           |
|           W WW W  AAAAAA  RRRRR   N  N N  II  N  N N  G  GGG   !            |
|           WW  WW  A    A  R   R   N   NN  II  N   NN  G    G                |
|           W    W  A    A  R    R  N    N  II  N    N   GGGG   !!!           |
|                                                                             |
|     Specifying the vdW parameters                                           |
|     VDW_S8 = 1.195                                                          |
|     VDW_A1 = 0.387                                                          |
|     VDW_A2 = 5.191                                                          |
|     in the INCAR file will overwrite the defaults for hse06. Please         |
|     make sure that is what you intended.                                    |
|                                                                             |
 -----------------------------------------------------------------------------

 exchange correlation table for  LEXCH =        8
   RHO(1)=    0.500       N(1)  =     2000
   RHO(2)=  100.500       N(2)  =     4000



--------------------------------------------------------------------------------------------------------


 ion  position               nearest neighbor table
   1  0.439  0.401  0.487-   3 2.70   7 2.76   8 2.76   4 2.85
   2  0.574  0.575  0.415-   8 2.70   5 2.76   3 2.76   6 2.85
   3  0.563  0.444  0.460-   1 2.70   6 2.76   2 2.76   8 2.82   7 2.82
   4  0.384  0.522  0.537-   5 2.70   8 2.76   7 2.76   1 2.85
   5  0.494  0.600  0.524-   4 2.70   6 2.76   2 2.76   8 2.82   7 2.82
   6  0.616  0.539  0.546-   7 2.70   5 2.76   3 2.76   2 2.85
   7  0.504  0.473  0.585-   6 2.70   1 2.76   4 2.76   5 2.82   3 2.82
   8  0.452  0.519  0.417-   2 2.70   1 2.76   4 2.76   3 2.82   5 2.82

  LATTYP: Found a simple cubic cell.
 ALAT       =    20.0000000000
  
  Lattice vectors:
  
 A1 = (  20.0000000000,   0.0000000000,   0.0000000000)
 A2 = (   0.0000000000,  20.0000000000,   0.0000000000)
 A3 = (   0.0000000000,   0.0000000000,  20.0000000000)


Analysis of symmetry for initial positions (statically):
=====================================================================
 Subroutine PRICEL returns:
 Original cell was already a primitive cell.
 

 Routine SETGRP: Setting up the symmetry group for a 
 simple cubic supercell.


 Subroutine GETGRP returns: Found  1 space group operations
 (whereof  1 operations were pure point group operations)
 out of a pool of 48 trial point group operations.


The static configuration has the point symmetry C_1 .


Analysis of symmetry for dynamics (positions and initial velocities):
=====================================================================
 Subroutine PRICEL returns:
 Original cell was already a primitive cell.
 

 Routine SETGRP: Setting up the symmetry group for a 
 simple cubic supercell.


 Subroutine GETGRP returns: Found  1 space group operations
 (whereof  1 operations were pure point group operations)
 out of a pool of 48 trial point group operations.


The dynamic configuration has the point symmetry C_1 .


 Subroutine INISYM returns: Found  1 space group operations
 (whereof  1 operations are pure point group operations),
 and found     1 'primitive' translations


----------------------------------------------------------------------------------------

                                     Primitive cell                                     

  volume of cell :    8000.0000

  direct lattice vectors                    reciprocal lattice vectors
    20.000000000  0.000000000  0.000000000     0.050000000  0.000000000  0.000000000
     0.000000000 20.000000000  0.000000000     0.000000000  0.050000000  0.000000000
     0.000000000  0.000000000 20.000000000     0.000000000  0.000000000  0.050000000

  length of vectors
    20.000000000 20.000000000 20.000000000     0.050000000  0.050000000  0.050000000

  position of ions in fractional coordinates (direct lattice)
     0.438704629  0.400550272  0.486880794
     0.574467026  0.574711293  0.414781590
     0.563391384  0.444467036  0.459648604
     0.384211685  0.522020365  0.537239936
     0.493781254  0.599770554  0.524112630
     0.615754161  0.538702037  0.546097811
     0.504382047  0.472795063  0.584587359
     0.451576382  0.518802261  0.416624516

  ion indices of the primitive-cell ions
   primitive index   ion index
                 1           1
                 2           2
                 3           3
                 4           4
                 5           5
                 6           6
                 7           7
                 8           8

----------------------------------------------------------------------------------------



 KPOINTS: KPOINTS created by Atomic Simulation Env

Automatic generation of k-mesh.
 Grid dimensions read from file:
 generate k-points for:    1    1    1

 Generating k-lattice:

  Cartesian coordinates                     Fractional coordinates (reciprocal lattice)
     0.050000000  0.000000000  0.000000000     1.000000000  0.000000000  0.000000000
     0.000000000  0.050000000  0.000000000     0.000000000  1.000000000  0.000000000
     0.000000000  0.000000000  0.050000000     0.000000000  0.000000000  1.000000000

  Length of vectors
     0.050000000  0.050000000  0.050000000

  Shift w.r.t. Gamma in fractional coordinates (k-lattice)
     0.000000000  0.000000000  0.000000000

 
 Subroutine IBZKPT returns following result:
 ===========================================
 
 Found      1 irreducible k-points:
 
 Following reciprocal coordinates:
            Coordinates               Weight
  0.000000  0.000000  0.000000      1.000000
 
 Following cartesian coordinates:
            Coordinates               Weight
  0.000000  0.000000  0.000000      1.000000
 
 
 Subroutine IBZKPT_HF returns following result:
 ==============================================
 
 Found      1 k-points in 1st BZ
 the following      1 k-points will be used (e.g. in the exchange kernel)
 Following reciprocal coordinates:   # in IRBZ
  0.000000  0.000000  0.000000    1.00000000   1 t-inv F


--------------------------------------------------------------------------------------------------------




 Dimension of arrays:
   k-points           NKPTS =      1   k-points in BZ     NKDIM =      1   number of bands    NBANDS=     96
   number of dos      NEDOS =    301   number of ions     NIONS =      8
   non local maximal  LDIM  =      6   non local SUM 2l+1 LMDIM =     18
   total plane-waves  NPLWV = ******
   max r-space proj   IRMAX =   5390   max aug-charges    IRDMAX=  20940
   dimension x,y,z NGX =   150 NGY =  150 NGZ =  150
   dimension x,y,z NGXF=   300 NGYF=  300 NGZF=  300
   support grid    NGXF=   300 NGYF=  300 NGZF=  300
   ions per type =               8
   NGX,Y,Z   is equivalent  to a cutoff of  12.47, 12.47, 12.47 a.u.
   NGXF,Y,Z  is equivalent  to a cutoff of  24.94, 24.94, 24.94 a.u.

 SYSTEM =  MgO-rocksalt                            
 POSCAR =  Ag                                      

 Startparameter for this run:
   NWRITE =      2    write-flag & timer
   PREC   = accura    normal or accurate (medium, high low for compatibility)
   ISTART =      0    job   : 0-new  1-cont  2-samecut
   ICHARG =      2    charge: 1-file 2-atom 10-const
   ISPIN  =      1    spin polarized calculation?
   LNONCOLLINEAR =      F non collinear calculations
   LSORBIT =      F    spin-orbit coupling
   INIWAV =      1    electr: 0-lowe 1-rand  2-diag
   LASPH  =      T    aspherical Exc in radial PAW
 Electronic Relaxation 1
   ENCUT  =  520.0 eV  38.22 Ry    6.18 a.u.  37.19 37.19 37.19*2*pi/ulx,y,z
   ENINI  =  520.0     initial cutoff
   ENAUG  =  412.5 eV  augmentation charge cutoff
   NELM   =    200;   NELMIN=  8; NELMDL= -5     # of ELM steps 
   EDIFF  = 0.1E-05   stopping-criterion for ELM
   LREAL  =      T    real-space projection
   NLSPLINE    = F    spline interpolate recip. space projectors
   LCOMPAT=      F    compatible to vasp.4.4
   GGA_COMPAT  = T    GGA compatible to vasp.4.4-vasp.4.6
   LMAXPAW     = -100 max onsite density
   LMAXMIX     =    2 max onsite mixed and CHGCAR
   VOSKOWN=      0    Vosko Wilk Nusair interpolation
   ROPT   =   -0.00025
 Ionic relaxation
   EDIFFG = 0.1E-04   stopping-criterion for IOM
   NSW    =      0    number of steps for IOM
   NBLOCK =      1;   KBLOCK =      1    inner block; outer block 
   IBRION =     -1    ionic relax: 0-MD 1-quasi-New 2-CG
   NFREE  =      0    steps in history (QN), initial steepest desc. (CG)
   ISIF   =      0    stress and relaxation
   IWAVPR =     10    prediction:  0-non 1-charg 2-wave 3-comb
   ISYM   =      2    0-nonsym 1-usesym 2-fastsym
   LCORR  =      T    Harris-Foulkes like correction to forces

   POTIM  = 0.5000    time-step for ionic-motion
   TEIN   =    0.0    initial temperature
   TEBEG  =    0.0;   TEEND  =   0.0 temperature during run
   SMASS  =  -3.00    Nose mass-parameter (am)
   estimated Nose-frequenzy (Omega)   =  0.10E-29 period in steps = 0.13E+47 mass=  -0.914E-26a.u.
   SCALEE = 1.0000    scale energy and forces
   NPACO  =    256;   APACO  = 10.0  distance and # of slots for P.C.
   PSTRESS=    0.0 pullay stress

  Mass of Ions in am
   POMASS = 107.87
  Ionic Valenz
   ZVAL   =  11.00
  Atomic Wigner-Seitz radii
   RWIGS  =  -1.00
  virtual crystal weights 
   VCA    =   1.00
   NELECT =      88.0000    total number of electrons
   NUPDOWN=      -1.0000    fix difference up-down

 DOS related values:
   EMIN   =  10.00;   EMAX   =-10.00  energy-range for DOS
   EFERMI =   0.00
   ISMEAR =     0;   SIGMA  =   0.05  broadening in eV -4-tet -1-fermi 0-gaus

 Electronic relaxation 2 (details)
   IALGO  =     58    algorithm
   LDIAG  =      T    sub-space diagonalisation (order eigenvalues)
   LSUBROT=      F    optimize rotation matrix (better conditioning)
   TURBO    =      0    0=normal 1=particle mesh
   IRESTART =      0    0=no restart 2=restart with 2 vectors
   NREBOOT  =      0    no. of reboots
   NMIN     =      0    reboot dimension
   EREF     =   0.00    reference energy to select bands
   IMIX   =      4    mixing-type and parameters
     AMIX     =   0.40;   BMIX     =  1.00
     AMIX_MAG =   1.60;   BMIX_MAG =  1.00
     AMIN     =   0.10
     WC   =   100.;   INIMIX=   1;  MIXPRE=   1;  MAXMIX= -45

 Intra band minimization:
   WEIMIN = 0.0000     energy-eigenvalue tresh-hold
   EBREAK =  0.26E-08  absolut break condition
   DEPER  =   0.30     relativ break condition  

   TIME   =   0.40     timestep for ELM

  volume/ion in A,a.u.               =    1000.00      6748.33
  Fermi-wavevector in a.u.,A,eV,Ry     =   0.364087  0.688026  1.803584  0.132560
  Thomas-Fermi vector in A             =   1.286639

 Write flags
   LWAVE        =      F    write WAVECAR
   LDOWNSAMPLE  =      F    k-point downsampling of WAVECAR
   LCHARG       =      F    write CHGCAR
   LVTOT        =      F    write LOCPOT, total local potential
   LVHAR        =      F    write LOCPOT, Hartree potential only
   LELF         =      F    write electronic localiz. function (ELF)
   LORBIT       =      0    0 simple, 1 ext, 2 COOP (PROOUT), +10 PAW based schemes


 Dipole corrections
   LMONO  =      F    monopole corrections only (constant potential shift)
   LDIPOL =      F    correct potential (dipole corrections)
   IDIPOL =      0    1-x, 2-y, 3-z, 4-all directions 
   EPSILON=  1.0000000 bulk dielectric constant

 Exchange correlation treatment:
   GGA     =    PE    GGA type
   LEXCH   =     8    internal setting for exchange type
   LIBXC   =     F    Libxc                    
   VOSKOWN =     0    Vosko Wilk Nusair interpolation
   EXXOEP  =     0    0=HF, 1=EXX-LHF (local Hartree Fock) 2=EXX OEP
   LHFCALC =     T    Hartree Fock is set to
   LSYMGRAD=     F    symmetrize gradient (conserves proper symmetry)
   PRECFOCK=normal    Normal, Fast or Accurate (Low or Medium for compatibility)
   LRHFCALC=     F    long range Hartree Fock
   LRSCOR  =     F    long range correlation only (use DFT for short range part)
   LTHOMAS =     F    Thomas Fermi screening in HF
   LMODELHF=     F    short range full HF, long range fraction AEXX
   LFOCKACE=     T    use Adeptively-Compressed-Exchange operator
   ENCUT4O =  -1.0   cutoff for four orbital integrals eV
   LMAXFOCK=     4    L truncation for augmentation on plane wave grid
   LMAXFOCKAE=  -1    L truncation for all-electron charge restoration on plane wave grid
   NMAXFOCKAE=   1    number of basis functions for all-electron charge restoration
   LFOCKAEDFT=     F  apply the AE augmentation even for DFT
   NKREDX  =     1    reduce k-point grid by
   NKREDY  =     1    reduce k-point grid by
   NKREDZ  =     1    reduce k-point grid by
   SHIFTRED=     F    shift reduced grid of Gamma
   HFKIDENT=     F    idential grid for each k-point
   ODDONLY =     F    use only odd q-grid points
   EVENONLY=     F    use only even q-grid points
   HFALPHA =   -1.0000 decay constant for conv. correction
   MCALPHA =    0.0000 extent of test-charge in conv. correction in multipole expansion
   AEXX    =    0.2500 exact exchange contribution
   HFSCREEN=    0.2000 screening length (either q_TF or 0.3 A-1)
   HFSCREENC=   0.2000 screening length for correlation (either q_TF or 0.3 A-1)
   HFRCUT  =    0.0000 spherical cutoff for potential kernel
   ALDAX   =    0.7500 LDA exchange part
   AGGAX   =    0.7500 GGA exchange part
   ALDAC   =    1.0000 LDA correlation
   AGGAC   =    1.0000 GGA correlation
   ENCUTFOCK=  -1.0 apply spherical cutoff to Coloumb kernel
   NBANDSGWLOW=     1    first orbital included in HF term
   NBLOCK_FOCK=    64    blocking factor in FOCK_ACC

 Linear response parameters
   LEPSILON=     F    determine dielectric tensor
   LRPA    =     F    only Hartree local field effects (RPA)
   LNABLA  =     F    use nabla operator in PAW spheres
   LVEL    =     F    velocity operator in full k-point grid
   CSHIFT  =0.1000    complex shift for real part using Kramers Kronig
   OMEGAMAX=  -1.0    maximum frequency
   DEG_THRESHOLD= 0.2000000E-02 threshold for treating states as degnerate
   RTIME   =   -0.100 relaxation time in fs
  (WPLASMAI=    0.000 imaginary part of plasma frequency in eV, 0.658/RTIME)
   DFIELD  = 0.0000000 0.0000000 0.0000000 field for delta impulse in time

  Optional k-point grid parameters
   LKPOINTS_OPT  =     F    use optional k-point grid
   KPOINTS_OPT_MODE=     1    mode for optional k-point grid

 Orbital magnetization related:
   ORBITALMAG=     F  switch on orbital magnetization
   LCHIMAG   =     F  perturbation theory with respect to B field
   DQ        =  0.001000  dq finite difference perturbation B field
   LLRAUG    =     F  two centre corrections for induced B field



--------------------------------------------------------------------------------------------------------


 Static calculation
 charge density and potential will be updated during run
 non-spin polarized calculation
 Conjugate gradient for all bands (Freysoldt, et al. PRB 79, 241103 (2009))
 preconditioned conjugated gradient                                        
 perform sub-space diagonalisation
    before iterative eigenvector-optimisation
 modified Broyden-mixing scheme, WC =      100.0
 initial mixing is a Kerker type mixing with AMIX =  0.4000 and BMIX =      1.0000
 Hartree-type preconditioning will be used
 using additional bands           52
 real space projection scheme for non local part
 use partial core corrections
 no Harris-corrections to forces 
 use gradient corrections 
 use of overlap-Matrix (Vanderbilt PP)
 Gauss-broadening in eV      SIGMA  =   0.05


--------------------------------------------------------------------------------------------------------


  energy-cutoff  :      520.00
  volume of cell :     8000.00
      direct lattice vectors                 reciprocal lattice vectors
    20.000000000  0.000000000  0.000000000     0.050000000  0.000000000  0.000000000
     0.000000000 20.000000000  0.000000000     0.000000000  0.050000000  0.000000000
     0.000000000  0.000000000 20.000000000     0.000000000  0.000000000  0.050000000

  length of vectors
    20.000000000 20.000000000 20.000000000     0.050000000  0.050000000  0.050000000



 k-points in units of 2pi/SCALE and weight: KPOINTS created by Atomic Simulation Env
   0.00000000  0.00000000  0.00000000       1.000

 k-points in reciprocal lattice and weights: KPOINTS created by Atomic Simulation Env
   0.00000000  0.00000000  0.00000000       1.000

 position of ions in fractional coordinates (direct lattice) 
   0.43870463  0.40055027  0.48688079
   0.57446703  0.57471129  0.41478159
   0.56339138  0.44446704  0.45964860
   0.38421168  0.52202036  0.53723994
   0.49378125  0.59977055  0.52411263
   0.61575416  0.53870204  0.54609781
   0.50438205  0.47279506  0.58458736
   0.45157638  0.51880226  0.41662452

 position of ions in cartesian coordinates  (Angst):
   8.77409258  8.01100543  9.73761588
  11.48934052 11.49422586  8.29563181
  11.26782769  8.88934072  9.19297208
   7.68423369 10.44040730 10.74479871
   9.87562509 11.99541109 10.48225261
  12.31508321 10.77404074 10.92195622
  10.08764093  9.45590126 11.69174718
   9.03152763 10.37604521  8.33249032



--------------------------------------------------------------------------------------------------------


 k-point   1 :   0.0000 0.0000 0.0000  plane waves:  215503

 maximum and minimum number of plane-waves per node :     53900    53857

 maximum number of plane-waves:    215503
 maximum index in each direction: 
   IXMAX=   37   IYMAX=   37   IZMAX=   37
   IXMIN=  -37   IYMIN=  -37   IZMIN=  -37


 real space projection operators:
  total allocation   :       5829.89 KBytes
  max/ min on nodes  :       1460.39       1452.94


 parallel 3D FFT for wavefunctions:
    minimum data exchange during FFTs selected (reduces bandwidth)
 parallel 3D FFT for charge:
    minimum data exchange during FFTs selected (reduces bandwidth)


 FFT grid for exact exchange (Hartree Fock) 
  NGX =112; NGY =112; NGZ =112


 Radii for the augmentation spheres in the non-local exchange
 for species   1 augmentation radius   1.406 (default was   1.125)
       energy cutoff for augmentation   2080.0

 real space projection operators:
  total allocation   :       3199.41 KBytes
  max/ min on nodes  :        809.57        793.36

 Maximum index for augmentation-charges in exchange          526
  SETUP_FOCK is finished

 total amount of memory used by VASP MPI-rank0   124102. kBytes
=======================================================================

   base      :      30000. kBytes
   nonlr-proj:       3794. kBytes
   fftplans  :      48991. kBytes
   grid      :      38630. kBytes
   one-center:         31. kBytes
   HF        :         64. kBytes
   wavefun   :       2592. kBytes

     INWAV:  cpu time      0.0000: real time      0.0000
 Broyden mixing: mesh for mixing (old mesh)
   NGX = 75   NGY = 75   NGZ = 75
  (NGX  =300   NGY  =300   NGZ  =300)
  gives a total of 421875 points

 initial charge density was supplied:
 charge density of overlapping atoms calculated
 number of electron      88.0000000 magnetization 
 keeping initial charge density in first step


--------------------------------------------------------------------------------------------------------


 Maximum index for non-local projection operator         1307
 Maximum index for augmentation-charges            0 (set IRDMAX)


--------------------------------------------------------------------------------------------------------


 First call to EWALD:  gamma=   0.089
 Maximum number of real-space cells 3x 3x 3
 Maximum number of reciprocal cells 3x 3x 3

    FEWALD:  cpu time      0.0011: real time      0.0011


--------------------------------------- Iteration      1(   1)  ---------------------------------------


    POTLOK:  cpu time      0.1178: real time      0.1181
    SETDIJ:  cpu time      0.1814: real time      0.1814
    TRIAL :  cpu time      0.5393: real time      0.5396
    CORREC:  cpu time      0.0010: real time      0.0010
    --------------------------------------------
      LOOP:  cpu time      0.8406: real time      0.8412

 eigenvalue-minimisations  :   192
 total energy-change (2. order) :-0.6724192E+04  (-0.1973420E+04)
 number of electron      88.0000000 magnetization 
 augmentation part       88.0000000 magnetization 

 Free energy of the ion-electron system (eV)
  ---------------------------------------------------
  alpha Z        PSCENC =         6.80462455
  Ewald energy   TEWEN  =      7674.01694009
  -Hartree energ DENC   =    -15594.62926812
  -exchange      EXHF   =         0.00000000
  -V(xc)+E(xc)   XCENC  =       -90.52996110
  PAW double counting   =      8027.69719461   -15032.49343072
  entropy T*S    EENTRO =        -0.05264665
  eigenvalues    EBANDS =        -5.33371374
  atomic energy  EATOM  =      8290.32802364
  ---------------------------------------------------
  free energy    TOTEN  =     -6724.19223745 eV

  energy without entropy =    -6724.13959080  energy(sigma->0) =    -6724.16591412
  exchange ACFDT corr.  =         0.00000000  see jH, gK, PRB 81, 115126


--------------------------------------------------------------------------------------------------------




--------------------------------------- Iteration      1(   2)  ---------------------------------------


    TRIAL :  cpu time      1.9146: real time      1.9151
    CORREC:  cpu time      0.0003: real time      0.0003
    --------------------------------------------
      LOOP:  cpu time      1.9185: real time      1.9229

 eigenvalue-minimisations  :   384
 total energy-change (2. order) :-0.9098407E+03  (-0.9085624E+03)
 number of electron      88.0000000 magnetization 
 augmentation part       88.0000000 magnetization 

 Free energy of the ion-electron system (eV)
  ---------------------------------------------------
  alpha Z        PSCENC =         6.80462455
  Ewald energy   TEWEN  =      7674.01694009
  -Hartree energ DENC   =    -15594.62926812
  -exchange      EXHF   =         0.00000000
  -V(xc)+E(xc)   XCENC  =       -90.52996110
  PAW double counting   =      8027.69719461   -15032.49343072
  entropy T*S    EENTRO =        -0.00000000
  eigenvalues    EBANDS =      -915.22705132
  atomic energy  EATOM  =      8290.32802364
  ---------------------------------------------------
  free energy    TOTEN  =     -7634.03292837 eV

  energy without entropy =    -7634.03292837  energy(sigma->0) =    -7634.03292837
  exchange ACFDT corr.  =         0.00000000  see jH, gK, PRB 81, 115126


--------------------------------------------------------------------------------------------------------




--------------------------------------- Iteration      1(   3)  ---------------------------------------


    TRIAL :  cpu time      0.5413: real time      0.5416
    CORREC:  cpu time      0.0003: real time      0.0003
    --------------------------------------------
      LOOP:  cpu time      0.5496: real time      0.5504

 eigenvalue-minimisations  :   192
 total energy-change (2. order) :-0.2954526E+02  (-0.2954517E+02)
 number of electron      88.0000000 magnetization 
 augmentation part       88.0000000 magnetization 

 Free energy of the ion-electron system (eV)
  ---------------------------------------------------
  alpha Z        PSCENC =         6.80462455
  Ewald energy   TEWEN  =      7674.01694009
  -Hartree energ DENC   =    -15594.62926812
  -exchange      EXHF   =         0.00000000
  -V(xc)+E(xc)   XCENC  =       -90.52996110
  PAW double counting   =      8027.69719461   -15032.49343072
  entropy T*S    EENTRO =        -0.00000000
  eigenvalues    EBANDS =      -944.77231103
  atomic energy  EATOM  =      8290.32802364
  ---------------------------------------------------
  free energy    TOTEN  =     -7663.57818809 eV

  energy without entropy =    -7663.57818809  energy(sigma->0) =    -7663.57818809
  exchange ACFDT corr.  =         0.00000000  see jH, gK, PRB 81, 115126


--------------------------------------------------------------------------------------------------------




--------------------------------------- Iteration      1(   4)  ---------------------------------------


    TRIAL :  cpu time      1.8394: real time      1.8399
    CORREC:  cpu time      0.0003: real time      0.0003
    --------------------------------------------
      LOOP:  cpu time      1.8467: real time      1.8476

 eigenvalue-minimisations  :   384
 total energy-change (2. order) :-0.1587958E+00  (-0.1587941E+00)
 number of electron      88.0000000 magnetization 
 augmentation part       88.0000000 magnetization 

 Free energy of the ion-electron system (eV)
  ---------------------------------------------------
  alpha Z        PSCENC =         6.80462455
  Ewald energy   TEWEN  =      7674.01694009
  -Hartree energ DENC   =    -15594.62926812
  -exchange      EXHF   =         0.00000000
  -V(xc)+E(xc)   XCENC  =       -90.52996110
  PAW double counting   =      8027.69719461   -15032.49343072
  entropy T*S    EENTRO =        -0.00000000
  eigenvalues    EBANDS =      -944.93110687
  atomic energy  EATOM  =      8290.32802364
  ---------------------------------------------------
  free energy    TOTEN  =     -7663.73698392 eV

  energy without entropy =    -7663.73698392  energy(sigma->0) =    -7663.73698392
  exchange ACFDT corr.  =         0.00000000  see jH, gK, PRB 81, 115126


--------------------------------------------------------------------------------------------------------




--------------------------------------- Iteration      1(   5)  ---------------------------------------


    POTLOK:  cpu time      0.2051: real time      0.2051
    SETDIJ:  cpu time      0.5322: real time      0.5327
    TRIAL :  cpu time      8.0632: real time      8.0691
    CORREC:  cpu time      0.0003: real time      0.0003
    CHARGE:  cpu time      0.0970: real time      0.0972
    --------------------------------------------
      LOOP:  cpu time      8.9044: real time      8.9116

 eigenvalue-minimisations  :   192
 total energy-change (2. order) : 0.7648255E+04  (-0.6819188E+01)
 number of electron      88.0000004 magnetization 
 augmentation part       43.0484884 magnetization 

 Free energy of the ion-electron system (eV)
  ---------------------------------------------------
  alpha Z        PSCENC =         6.80462455
  Ewald energy   TEWEN  =      7674.01694009
  -Hartree energ DENC   =    -15594.62926812
  -exchange      EXHF   =       191.87538421
  -V(xc)+E(xc)   XCENC  =       -80.35689077
  PAW double counting   =      8016.15501531    -7692.68772808
  entropy T*S    EENTRO =        -0.00000000
  eigenvalues    EBANDS =      -826.98830002
  atomic energy  EATOM  =      8290.32802364
  ---------------------------------------------------
  free energy    TOTEN  =       -15.48219919 eV

  energy without entropy =      -15.48219919  energy(sigma->0) =      -15.48219919
  exchange ACFDT corr.  =        -0.00000000  see jH, gK, PRB 81, 115126


--------------------------------------------------------------------------------------------------------




--------------------------------------- Iteration      1(   6)  ---------------------------------------


    POTLOK:  cpu time      0.2196: real time      0.2196
    SETDIJ:  cpu time      0.5306: real time      0.5307
    TRIAL :  cpu time      8.8072: real time      8.8138
    CORREC:  cpu time      8.4040: real time      8.4098
    CHARGE:  cpu time      0.0927: real time      0.0928
    --------------------------------------------
      LOOP:  cpu time     18.0612: real time     18.0741

 eigenvalue-minimisations  :     0
 total energy-change (2. order) : 0.3231622E+01  (-0.2474391E+01)
 number of electron      88.0000004 magnetization 
 augmentation part       42.6517774 magnetization 

 Free energy of the ion-electron system (eV)
  ---------------------------------------------------
  alpha Z        PSCENC =         6.80462455
  Ewald energy   TEWEN  =      7674.01694009
  -Hartree energ DENC   =    -15859.95144175
  -exchange      EXHF   =       183.56269560
  -V(xc)+E(xc)   XCENC  =       -78.87260233
  PAW double counting   =      9620.80139902    -9308.19282261
  entropy T*S    EENTRO =        -0.00000000
  eigenvalues    EBANDS =      -540.74739387
  atomic energy  EATOM  =      8290.32802364
  ---------------------------------------------------
  free energy    TOTEN  =       -12.25057766 eV

  energy without entropy =      -12.25057766  energy(sigma->0) =      -12.25057766
  exchange ACFDT corr.  =        -0.00000000  see jH, gK, PRB 81, 115126


--------------------------------------------------------------------------------------------------------




--------------------------------------- Iteration      1(   7)  ---------------------------------------


    POTLOK:  cpu time      0.2262: real time      0.2262
    SETDIJ:  cpu time      0.5319: real time      0.5321
    TRIAL :  cpu time      7.7212: real time      7.7269
    CORREC:  cpu time      8.4044: real time      8.4105
    CHARGE:  cpu time      0.0938: real time      0.0938
    --------------------------------------------
      LOOP:  cpu time     16.9846: real time     16.9970

 eigenvalue-minimisations  :     0
 total energy-change (2. order) :-0.2485201E+01  (-0.2726532E+00)
 number of electron      88.0000004 magnetization 
 augmentation part       42.8642319 magnetization 

 Free energy of the ion-electron system (eV)
  ---------------------------------------------------
  alpha Z        PSCENC =         6.80462455
  Ewald energy   TEWEN  =      7674.01694009
  -Hartree energ DENC   =    -15665.30095185
  -exchange      EXHF   =       181.61431671
  -V(xc)+E(xc)   XCENC  =       -80.71887204
  PAW double counting   =      9475.26386223    -9161.37120265
  entropy T*S    EENTRO =        -0.00000000
  eigenvalues    EBANDS =      -735.37251905
  atomic energy  EATOM  =      8290.32802364
  ---------------------------------------------------
  free energy    TOTEN  =       -14.73577836 eV

  energy without entropy =      -14.73577836  energy(sigma->0) =      -14.73577836
  exchange ACFDT corr.  =        -0.00000000  see jH, gK, PRB 81, 115126


--------------------------------------------------------------------------------------------------------




--------------------------------------- Iteration      1(   8)  ---------------------------------------


    POTLOK:  cpu time      0.2196: real time      0.2196
    SETDIJ:  cpu time      0.5334: real time      0.5337
    TRIAL :  cpu time      7.7197: real time      7.7256
    CORREC:  cpu time      8.4000: real time      8.4057
    CHARGE:  cpu time      0.0926: real time      0.0926
    --------------------------------------------
      LOOP:  cpu time     16.9740: real time     16.9862

 eigenvalue-minimisations  :     0
 total energy-change (2. order) :-0.2737234E+00  (-0.1149911E+00)
 number of electron      88.0000004 magnetization 
 augmentation part       42.7471700 magnetization 

 Free energy of the ion-electron system (eV)
  ---------------------------------------------------
  alpha Z        PSCENC =         6.80462455
  Ewald energy   TEWEN  =      7674.01694009
  -Hartree energ DENC   =    -15673.23191506
  -exchange      EXHF   =       182.21769211
  -V(xc)+E(xc)   XCENC  =       -80.25268393
  PAW double counting   =      9451.43753260    -9137.47173681
  entropy T*S    EENTRO =        -0.00000000
  eigenvalues    EBANDS =      -728.85797890
  atomic energy  EATOM  =      8290.32802364
  ---------------------------------------------------
  free energy    TOTEN  =       -15.00950172 eV

  energy without entropy =      -15.00950172  energy(sigma->0) =      -15.00950172
  exchange ACFDT corr.  =        -0.00000000  see jH, gK, PRB 81, 115126


--------------------------------------------------------------------------------------------------------




--------------------------------------- Iteration      1(   9)  ---------------------------------------


    POTLOK:  cpu time      0.2179: real time      0.2179
    SETDIJ:  cpu time      0.5343: real time      0.5345
    TRIAL :  cpu time      7.7356: real time      7.7413
    CORREC:  cpu time      8.3595: real time      8.3659
    CHARGE:  cpu time      0.0927: real time      0.0927
    --------------------------------------------
      LOOP:  cpu time     16.9470: real time     16.9601

 eigenvalue-minimisations  :     0
 total energy-change (2. order) :-0.1141542E+00  (-0.2959919E-01)
 number of electron      88.0000004 magnetization 
 augmentation part       42.7756666 magnetization 

 Free energy of the ion-electron system (eV)
  ---------------------------------------------------
  alpha Z        PSCENC =         6.80462455
  Ewald energy   TEWEN  =      7674.01694009
  -Hartree energ DENC   =    -15649.65288551
  -exchange      EXHF   =       181.78252502
  -V(xc)+E(xc)   XCENC  =       -80.63082859
  PAW double counting   =      9421.13788877    -9106.86655124
  entropy T*S    EENTRO =        -0.00000000
  eigenvalues    EBANDS =      -752.04339269
  atomic energy  EATOM  =      8290.32802364
  ---------------------------------------------------
  free energy    TOTEN  =       -15.12365597 eV

  energy without entropy =      -15.12365597  energy(sigma->0) =      -15.12365597
  exchange ACFDT corr.  =        -0.00000000  see jH, gK, PRB 81, 115126


--------------------------------------------------------------------------------------------------------




--------------------------------------- Iteration      1(  10)  ---------------------------------------


    POTLOK:  cpu time      0.2186: real time      0.2186
    SETDIJ:  cpu time      0.5343: real time      0.5346
    TRIAL :  cpu time      7.7095: real time      7.7155
    CORREC:  cpu time      8.4082: real time      8.4138
    CHARGE:  cpu time      0.0928: real time      0.0928
    --------------------------------------------
      LOOP:  cpu time     16.9708: real time     16.9831

 eigenvalue-minimisations  :     0
 total energy-change (2. order) :-0.2954236E-01  (-0.5782678E-02)
 number of electron      88.0000004 magnetization 
 augmentation part       42.7881296 magnetization 

 Free energy of the ion-electron system (eV)
  ---------------------------------------------------
  alpha Z        PSCENC =         6.80462455
  Ewald energy   TEWEN  =      7674.01694009
  -Hartree energ DENC   =    -15647.05919617
  -exchange      EXHF   =       181.81007377
  -V(xc)+E(xc)   XCENC  =       -80.63343887
  PAW double counting   =      9414.04444043    -9099.67575070
  entropy T*S    EENTRO =        -0.00000000
  eigenvalues    EBANDS =      -754.78891507
  atomic energy  EATOM  =      8290.32802364
  ---------------------------------------------------
  free energy    TOTEN  =       -15.15319833 eV

  energy without entropy =      -15.15319833  energy(sigma->0) =      -15.15319833
  exchange ACFDT corr.  =        -0.00000000  see jH, gK, PRB 81, 115126


--------------------------------------------------------------------------------------------------------




--------------------------------------- Iteration      1(  11)  ---------------------------------------


    POTLOK:  cpu time      0.2094: real time      0.2094
    SETDIJ:  cpu time      0.5329: real time      0.5329
    TRIAL :  cpu time      7.7309: real time      7.7364
    CORREC:  cpu time      8.3666: real time      8.3727
    CHARGE:  cpu time      0.0918: real time      0.0918
    --------------------------------------------
      LOOP:  cpu time     16.9394: real time     16.9515

 eigenvalue-minimisations  :     0
 total energy-change (2. order) :-0.5780082E-02  (-0.1830631E-02)
 number of electron      88.0000004 magnetization 
 augmentation part       42.7811203 magnetization 

 Free energy of the ion-electron system (eV)
  ---------------------------------------------------
  alpha Z        PSCENC =         6.80462455
  Ewald energy   TEWEN  =      7674.01694009
  -Hartree energ DENC   =    -15646.41722913
  -exchange      EXHF   =       181.83423362
  -V(xc)+E(xc)   XCENC  =       -80.62001804
  PAW double counting   =      9412.11294970    -9097.73061591
  entropy T*S    EENTRO =        -0.00000000
  eigenvalues    EBANDS =      -755.48788692
  atomic energy  EATOM  =      8290.32802364
  ---------------------------------------------------
  free energy    TOTEN  =       -15.15897841 eV

  energy without entropy =      -15.15897841  energy(sigma->0) =      -15.15897841
  exchange ACFDT corr.  =        -0.00000000  see jH, gK, PRB 81, 115126


--------------------------------------------------------------------------------------------------------




--------------------------------------- Iteration      1(  12)  ---------------------------------------


    POTLOK:  cpu time      0.2011: real time      0.2011
    SETDIJ:  cpu time      0.5346: real time      0.5347
    TRIAL :  cpu time      7.6946: real time      7.7009
    CORREC:  cpu time      8.3947: real time      8.4011
    CHARGE:  cpu time      0.0941: real time      0.0941
    --------------------------------------------
      LOOP:  cpu time     16.9266: real time     16.9396

 eigenvalue-minimisations  :     0
 total energy-change (2. order) :-0.1833299E-02  (-0.3829973E-03)
 number of electron      88.0000004 magnetization 
 augmentation part       42.7828290 magnetization 

 Free energy of the ion-electron system (eV)
  ---------------------------------------------------
  alpha Z        PSCENC =         6.80462455
  Ewald energy   TEWEN  =      7674.01694009
  -Hartree energ DENC   =    -15645.68226502
  -exchange      EXHF   =       181.80924193
  -V(xc)+E(xc)   XCENC  =       -80.64215048
  PAW double counting   =      9411.33587542    -9096.94375788
  entropy T*S    EENTRO =        -0.00000000
  eigenvalues    EBANDS =      -756.18734395
  atomic energy  EATOM  =      8290.32802364
  ---------------------------------------------------
  free energy    TOTEN  =       -15.16081171 eV

  energy without entropy =      -15.16081171  energy(sigma->0) =      -15.16081171
  exchange ACFDT corr.  =        -0.00000000  see jH, gK, PRB 81, 115126


--------------------------------------------------------------------------------------------------------




--------------------------------------- Iteration      1(  13)  ---------------------------------------


    POTLOK:  cpu time      0.2034: real time      0.2034
    SETDIJ:  cpu time      0.5296: real time      0.5296
    TRIAL :  cpu time      7.7229: real time      7.7291
    CORREC:  cpu time      8.3459: real time      8.3512
    CHARGE:  cpu time      0.0947: real time      0.0950
    --------------------------------------------
      LOOP:  cpu time     16.9039: real time     16.9162

 eigenvalue-minimisations  :     0
 total energy-change (2. order) :-0.3818417E-03  (-0.8205799E-04)
 number of electron      88.0000004 magnetization 
 augmentation part       42.7818496 magnetization 

 Free energy of the ion-electron system (eV)
  ---------------------------------------------------
  alpha Z        PSCENC =         6.80462455
  Ewald energy   TEWEN  =      7674.01694009
  -Hartree energ DENC   =    -15645.95145955
  -exchange      EXHF   =       181.81529867
  -V(xc)+E(xc)   XCENC  =       -80.63719550
  PAW double counting   =      9412.81031240    -9098.41679337
  entropy T*S    EENTRO =        -0.00000000
  eigenvalues    EBANDS =      -755.93094448
  atomic energy  EATOM  =      8290.32802364
  ---------------------------------------------------
  free energy    TOTEN  =       -15.16119355 eV

  energy without entropy =      -15.16119355  energy(sigma->0) =      -15.16119355
  exchange ACFDT corr.  =        -0.00000000  see jH, gK, PRB 81, 115126


--------------------------------------------------------------------------------------------------------




--------------------------------------- Iteration      1(  14)  ---------------------------------------


    POTLOK:  cpu time      0.1992: real time      0.1992
    SETDIJ:  cpu time      0.5367: real time      0.5367
    TRIAL :  cpu time      7.7104: real time      7.7162
    CORREC:  cpu time      8.3431: real time      8.3489
    CHARGE:  cpu time      0.0936: real time      0.0936
    --------------------------------------------
      LOOP:  cpu time     16.8899: real time     16.9021

 eigenvalue-minimisations  :     0
 total energy-change (2. order) :-0.8258579E-04  (-0.2146016E-04)
 number of electron      88.0000004 magnetization 
 augmentation part       42.7826634 magnetization 

 Free energy of the ion-electron system (eV)
  ---------------------------------------------------
  alpha Z        PSCENC =         6.80462455
  Ewald energy   TEWEN  =      7674.01694009
  -Hartree energ DENC   =    -15645.75203610
  -exchange      EXHF   =       181.81185248
  -V(xc)+E(xc)   XCENC  =       -80.63993296
  PAW double counting   =      9413.29203559    -9098.89813280
  entropy T*S    EENTRO =        -0.00000000
  eigenvalues    EBANDS =      -756.12465062
  atomic energy  EATOM  =      8290.32802364
  ---------------------------------------------------
  free energy    TOTEN  =       -15.16127613 eV

  energy without entropy =      -15.16127613  energy(sigma->0) =      -15.16127613
  exchange ACFDT corr.  =        -0.00000000  see jH, gK, PRB 81, 115126


--------------------------------------------------------------------------------------------------------




--------------------------------------- Iteration      1(  15)  ---------------------------------------


    POTLOK:  cpu time      0.2001: real time      0.2004
    SETDIJ:  cpu time      0.5357: real time      0.5357
    TRIAL :  cpu time      7.7381: real time      7.7441
    CORREC:  cpu time      8.6516: real time      8.6579
    CHARGE:  cpu time      0.0933: real time      0.0933
    --------------------------------------------
      LOOP:  cpu time     17.2259: real time     17.2388

 eigenvalue-minimisations  :     0
 total energy-change (2. order) :-0.2086942E-04  (-0.5043705E-05)
 number of electron      88.0000004 magnetization 
 augmentation part       42.7821050 magnetization 

 Free energy of the ion-electron system (eV)
  ---------------------------------------------------
  alpha Z        PSCENC =         6.80462455
  Ewald energy   TEWEN  =      7674.01694009
  -Hartree energ DENC   =    -15646.03041692
  -exchange      EXHF   =       181.81544583
  -V(xc)+E(xc)   XCENC  =       -80.63647109
  PAW double counting   =      9413.73816355    -9099.34683414
  entropy T*S    EENTRO =        -0.00000000
  eigenvalues    EBANDS =      -755.85077252
  atomic energy  EATOM  =      8290.32802364
  ---------------------------------------------------
  free energy    TOTEN  =       -15.16129700 eV

  energy without entropy =      -15.16129700  energy(sigma->0) =      -15.16129700
  exchange ACFDT corr.  =        -0.00000000  see jH, gK, PRB 81, 115126


--------------------------------------------------------------------------------------------------------




--------------------------------------- Iteration      1(  16)  ---------------------------------------


    POTLOK:  cpu time      0.2013: real time      0.2017
    SETDIJ:  cpu time      0.5359: real time      0.5360
    TRIAL :  cpu time      7.7135: real time      7.7194
    CORREC:  cpu time      8.4387: real time      8.4735
    CHARGE:  cpu time      0.0936: real time      0.0936
    --------------------------------------------
      LOOP:  cpu time     16.9906: real time     17.0319

 eigenvalue-minimisations  :     0
 total energy-change (2. order) :-0.5032490E-05  (-0.2132107E-05)
 number of electron      88.0000004 magnetization 
 augmentation part       42.7822555 magnetization 

 Free energy of the ion-electron system (eV)
  ---------------------------------------------------
  alpha Z        PSCENC =         6.80462455
  Ewald energy   TEWEN  =      7674.01694009
  -Hartree energ DENC   =    -15645.91132135
  -exchange      EXHF   =       181.81349057
  -V(xc)+E(xc)   XCENC  =       -80.63815299
  PAW double counting   =      9413.73220678    -9099.34038981
  entropy T*S    EENTRO =        -0.00000000
  eigenvalues    EBANDS =      -755.96672350
  atomic energy  EATOM  =      8290.32802364
  ---------------------------------------------------
  free energy    TOTEN  =       -15.16130204 eV

  energy without entropy =      -15.16130204  energy(sigma->0) =      -15.16130204
  exchange ACFDT corr.  =        -0.00000000  see jH, gK, PRB 81, 115126


--------------------------------------------------------------------------------------------------------




--------------------------------------- Iteration      1(  17)  ---------------------------------------


    POTLOK:  cpu time      0.1998: real time      0.1998
    SETDIJ:  cpu time      0.5334: real time      0.5334
    TRIAL :  cpu time      8.8614: real time      8.8677
    CORREC:  cpu time     10.6916: real time     10.6983
    CHARGE:  cpu time      0.1172: real time      0.1172
    --------------------------------------------
      LOOP:  cpu time     20.4109: real time     20.4242

 eigenvalue-minimisations  :     0
 total energy-change (2. order) :-0.1995834E-05  (-0.5432131E-06)
 number of electron      88.0000004 magnetization 
 augmentation part       42.7822849 magnetization 

 Free energy of the ion-electron system (eV)
  ---------------------------------------------------
  alpha Z        PSCENC =         6.80462455
  Ewald energy   TEWEN  =      7674.01694009
  -Hartree energ DENC   =    -15645.94313231
  -exchange      EXHF   =       181.81414090
  -V(xc)+E(xc)   XCENC  =       -80.63760170
  PAW double counting   =      9413.75042091    -9099.35883680
  entropy T*S    EENTRO =        -0.00000000
  eigenvalues    EBANDS =      -755.93588332
  atomic energy  EATOM  =      8290.32802364
  ---------------------------------------------------
  free energy    TOTEN  =       -15.16130403 eV

  energy without entropy =      -15.16130403  energy(sigma->0) =      -15.16130403
  exchange ACFDT corr.  =        -0.00000000  see jH, gK, PRB 81, 115126


--------------------------------------------------------------------------------------------------------




--------------------------------------- Iteration      1(  18)  ---------------------------------------


    POTLOK:  cpu time      0.2259: real time      0.2259
    SETDIJ:  cpu time      0.5100: real time      0.5103
    TRIAL :  cpu time     11.6082: real time     11.6149
    CORREC:  cpu time     10.8273: real time     10.8345
    EDDIAG:  cpu time     10.0247: real time     10.0321
    CHARGE:  cpu time      0.0928: real time      0.0928
    --------------------------------------------
      LOOP:  cpu time     33.3109: real time     33.3329

 eigenvalue-minimisations  :     0
 total energy-change (2. order) :-0.5245565E-06  (-0.1020795E-06)
 number of electron      88.0000004 magnetization 
 augmentation part       42.7822243 magnetization 

 Free energy of the ion-electron system (eV)
  ---------------------------------------------------
  alpha Z        PSCENC =         6.80462455
  Ewald energy   TEWEN  =      7674.01694009
  -Hartree energ DENC   =    -15645.97115570
  -exchange      EXHF   =       181.81422440
  -V(xc)+E(xc)   XCENC  =       -80.63732484
  PAW double counting   =      9413.75153793    -9099.36019633
  entropy T*S    EENTRO =        -0.00000000
  eigenvalues    EBANDS =      -755.90816876
  atomic energy  EATOM  =      8290.32802364
  ---------------------------------------------------
  free energy    TOTEN  =       -15.16130456 eV

  energy without entropy =      -15.16130456  energy(sigma->0) =      -15.16130456
  exchange ACFDT corr.  =        -0.00000000  see jH, gK, PRB 81, 115126


--------------------------------------------------------------------------------------------------------


  average scaling for gradient   1.0270


 average (electrostatic) potential at core
  the test charge radii are     1.1249
  (the norm of the test charge is              1.0000)
       1 -75.9527       2 -75.9524       3 -75.8004       4 -75.9525       5 -75.8003
       6 -75.9526       7 -75.7998       8 -75.8001



 E-fermi :  -4.3911     XC(G=0):  -0.4221     alpha+bet : -0.2295

 Fermi energy:        -4.3910659063

 k-point     1 :       0.0000    0.0000    0.0000
  band No.  band energies     occupation 
      1     -10.3340      2.00000
      2     -10.2075      2.00000
      3     -10.0206      2.00000
      4      -9.8936      2.00000
      5      -9.8929      2.00000
      6      -9.8581      2.00000
      7      -9.8551      2.00000
      8      -9.8399      2.00000
      9      -9.7821      2.00000
     10      -9.7811      2.00000
     11      -9.6296      2.00000
     12      -9.6289      2.00000
     13      -9.3922      2.00000
     14      -9.3074      2.00000
     15      -9.2389      2.00000
     16      -9.2379      2.00000
     17      -9.0992      2.00000
     18      -8.9553      2.00000
     19      -8.8264      2.00000
     20      -8.8257      2.00000
     21      -8.6407      2.00000
     22      -8.5696      2.00000
     23      -8.5667      2.00000
     24      -8.5401      2.00000
     25      -8.5288      2.00000
     26      -8.5281      2.00000
     27      -8.3985      2.00000
     28      -8.3981      2.00000
     29      -8.3135      2.00000
     30      -8.0814      2.00000
     31      -8.0792      2.00000
     32      -8.0784      2.00000
     33      -8.0632      2.00000
     34      -7.9274      2.00000
     35      -7.9266      2.00000
     36      -7.9265      2.00000
     37      -7.8999      2.00000
     38      -7.8651      2.00000
     39      -7.8053      2.00000
     40      -7.7406      2.00000
     41      -7.7402      2.00000
     42      -5.4908      2.00000
     43      -4.6239      2.00000
     44      -4.6230      2.00000
     45      -2.5156      0.00000
     46      -2.2659      0.00000
     47      -2.2649      0.00000
     48      -1.7594      0.00000
     49      -1.4522      0.00000
     50      -1.3007      0.00000
     51      -0.3973      0.00000
     52      -0.1229      0.00000
     53      -0.1172      0.00000
     54       0.1370      0.00000
     55       0.2068      0.00000
     56       0.3546      0.00000
     57       0.3837      0.00000
     58       0.4226      0.00000
     59       0.4827      0.00000
     60       0.5128      0.00000
     61       0.6277      0.00000
     62       0.6672      0.00000
     63       0.6758      0.00000
     64       0.7193      0.00000
     65       0.7477      0.00000
     66       0.7857      0.00000
     67       0.8021      0.00000
     68       0.8509      0.00000
     69       0.8543      0.00000
     70       0.8724      0.00000
     71       0.8917      0.00000
     72       0.9389      0.00000
     73       0.9805      0.00000
     74       1.0581      0.00000
     75       1.1114      0.00000
     76       1.1315      0.00000
     77       1.1781      0.00000
     78       1.2107      0.00000
     79       1.2135      0.00000
     80       1.2277      0.00000
     81       1.2775      0.00000
     82       1.3141      0.00000
     83       1.3961      0.00000
     84       1.4571      0.00000
     85       1.4700      0.00000
     86       1.5583      0.00000
     87       1.5740      0.00000
     88       1.6393      0.00000
     89       1.7055      0.00000
     90       1.7430      0.00000
     91       1.7981      0.00000
     92       1.8124      0.00000
     93       1.8517      0.00000
     94       1.8843      0.00000
     95       1.8884      0.00000
     96       1.9038      0.00000


--------------------------------------------------------------------------------------------------------


 soft charge-density along one line, spin component           1
         0         1         2         3         4         5         6         7         8         9
 total charge-density along one line

 pseudopotential strength for first ion, spin component:           1
 -8.929   0.001   0.005  -0.002  -0.002  -8.983   0.001   0.005
  0.001  -8.926  -0.002  -0.006  -0.002   0.001  -8.980  -0.002
  0.005  -0.002  -8.919  -0.003   0.002   0.005  -0.002  -8.974
 -0.002  -0.006  -0.003  -8.921   0.003  -0.002  -0.006  -0.003
 -0.002  -0.002   0.002   0.003  -8.929  -0.002  -0.002   0.002
 -8.983   0.001   0.005  -0.002  -0.002  -9.009   0.001   0.005
  0.001  -8.980  -0.002  -0.006  -0.002   0.001  -9.006  -0.002
  0.005  -0.002  -8.974  -0.003   0.002   0.005  -0.002  -9.000
 -0.002  -0.006  -0.003  -8.975   0.003  -0.002  -0.006  -0.003
 -0.002  -0.002   0.002   0.003  -8.983  -0.002  -0.002   0.002
  0.002   0.000  -0.002  -0.001   0.001   0.002   0.000  -0.002
  0.004   0.001  -0.004  -0.001   0.001   0.004   0.000  -0.004
 -0.024   0.000   0.016  -0.000   0.028  -0.023   0.000   0.015
 -0.000  -0.028  -0.000  -0.024  -0.000  -0.000  -0.028  -0.000
 -0.028  -0.000   0.014  -0.000  -0.024  -0.027  -0.000   0.013
 -0.029   0.001   0.019  -0.000   0.033  -0.028   0.001   0.018
 -0.000  -0.034  -0.001  -0.029  -0.000  -0.000  -0.032  -0.001
 -0.033  -0.000   0.017   0.000  -0.029  -0.032  -0.000   0.016
 total augmentation occupancy for first ion, spin component:           1
  2.683  -0.065  -0.092   0.014   0.192  -0.688   0.071   0.094  -0.034  -0.213  -0.303   0.106  -0.007   0.016  -0.132  -0.012
 -0.065   2.743   0.026   0.207  -0.047   0.071  -0.766  -0.044  -0.225   0.022  -0.039   0.021  -0.017  -0.149   0.018   0.001
 -0.092   0.026   2.433   0.022   0.058   0.094  -0.044  -0.407  -0.060  -0.034   0.269  -0.094   0.053  -0.018   0.026   0.005
  0.014   0.207   0.022   2.496   0.057  -0.034  -0.225  -0.060  -0.477  -0.029   0.078  -0.019   0.014  -0.077  -0.011  -0.001
  0.192  -0.047   0.058   0.057   2.798  -0.212   0.022  -0.034  -0.029  -0.811  -0.011  -0.023   0.117   0.005  -0.118   0.009
 -0.688   0.071   0.094  -0.034  -0.212   0.687  -0.075  -0.098   0.051   0.231   0.280  -0.096   0.024  -0.015   0.163  -0.004
  0.071  -0.766  -0.044  -0.225   0.022  -0.075   0.779   0.061   0.242   0.000   0.040  -0.021   0.014   0.182  -0.016  -0.001
  0.094  -0.044  -0.407  -0.060  -0.034  -0.098   0.061   0.376   0.094   0.013  -0.251   0.089  -0.066   0.027  -0.038   0.006
 -0.034  -0.225  -0.060  -0.477  -0.029   0.051   0.242   0.094   0.453   0.004  -0.072   0.019  -0.012   0.095   0.011   0.001
 -0.213   0.022  -0.034  -0.029  -0.811   0.231   0.000   0.013   0.004   0.818   0.003   0.022  -0.139  -0.003   0.139   0.011
 -0.303  -0.039   0.269   0.078  -0.011   0.280   0.040  -0.251  -0.072   0.003   3.812  -1.081   0.333   0.023   0.218  -0.033
  0.106   0.021  -0.094  -0.019  -0.023  -0.096  -0.021   0.089   0.019   0.022  -1.081   0.312  -0.107  -0.009  -0.063   0.010
 -0.007  -0.017   0.053   0.014   0.117   0.024   0.014  -0.066  -0.012  -0.139   0.333  -0.107   0.070   0.004   0.001  -0.007
  0.016  -0.149  -0.018  -0.077   0.005  -0.015   0.182   0.027   0.095  -0.003   0.023  -0.009   0.004   0.055  -0.003  -0.000
 -0.132   0.018   0.026  -0.011  -0.118   0.163  -0.016  -0.038   0.011   0.139   0.218  -0.063   0.001  -0.003   0.064  -0.001
 -0.012   0.001   0.005  -0.001   0.009  -0.004  -0.001   0.006   0.001   0.011  -0.033   0.010  -0.007  -0.000  -0.001   0.001
 -0.001  -0.007   0.002  -0.010  -0.000   0.001  -0.014  -0.002  -0.007   0.000  -0.003   0.001  -0.000  -0.004   0.000   0.000
 -0.006  -0.001   0.005   0.000  -0.007  -0.014   0.001   0.004  -0.000  -0.010  -0.020   0.006  -0.001   0.000  -0.005   0.000


------------------------ aborting loop because EDIFF is reached ----------------------------------------


    FORLOC:  cpu time      0.0097: real time      0.0097
    FORHF :  cpu time      4.0181: real time      4.0209
    FORNL :  cpu time      0.1019: real time      0.1020
    FORCOR:  cpu time      0.7055: real time      0.7056
    OFIELD:  cpu time      0.0002: real time      0.0002
    FORVDW:  cpu time      0.0064: real time      0.0064

 VOLUME and BASIS-vectors are now :
 -----------------------------------------------------------------------------
  energy-cutoff  :      520.00
  volume of cell :     8000.00
      direct lattice vectors                 reciprocal lattice vectors
    20.000000000  0.000000000  0.000000000     0.050000000  0.000000000  0.000000000
     0.000000000 20.000000000  0.000000000     0.000000000  0.050000000  0.000000000
     0.000000000  0.000000000 20.000000000     0.000000000  0.000000000  0.050000000

  length of vectors
    20.000000000 20.000000000 20.000000000     0.050000000  0.050000000  0.050000000


 FORCES acting on ions:
    Electron-Ion                     Ewald-Force                    Non-Local-Force
 -----------------------------------------------------------------------------------------------
   0.398E+03 0.768E+03 0.851E+02   -.394E+03 -.762E+03 -.850E+02   -.412E+01 -.539E+01 -.180E+00
   -.447E+03 -.448E+03 0.596E+03   0.443E+03 0.445E+03 -.592E+03   0.440E+01 0.353E+01 -.376E+01
   -.510E+03 0.593E+03 0.323E+03   0.507E+03 -.592E+03 -.322E+03   0.320E+01 -.218E+01 -.161E+01
   0.805E+03 -.142E+03 -.293E+03   -.798E+03 0.143E+03 0.291E+03   -.648E+01 -.113E+00 0.201E+01
   0.114E+03 -.799E+03 -.255E+03   -.115E+03 0.795E+03 0.254E+03   0.395E+00 0.405E+01 0.987E+00
   -.756E+03 -.178E+03 -.389E+03   0.750E+03 0.176E+03 0.387E+03   0.619E+01 0.197E+01 0.194E+01
   -.387E+02 0.310E+03 -.787E+03   0.395E+02 -.308E+03 0.784E+03   -.733E+00 -.186E+01 0.369E+01
   0.435E+03 -.103E+03 0.719E+03   -.432E+03 0.103E+03 -.716E+03   -.286E+01 -.746E-02 -.307E+01
 -----------------------------------------------------------------------------------------------
   0.124E-02 -.151E-02 -.336E-02   -.568E-13 0.000E+00 -.114E-12   0.185E-03 0.363E-02 -.108E-02


 POSITION                                       TOTAL-FORCE (eV/Angst)
 -----------------------------------------------------------------------------------
      8.77409      8.01101      9.73762        -0.085578     -0.204901     -0.028975
     11.48934     11.49423      8.29563         0.096738      0.110447     -0.164962
     11.26783      8.88934      9.19297         0.097675     -0.123762     -0.066159
      7.68423     10.44041     10.74480        -0.199464      0.057182      0.078915
      9.87563     11.99541     10.48225        -0.033315      0.158006      0.054775
     12.31508     10.77404     10.92196         0.185013      0.033274      0.115839
     10.08764      9.45590     11.69175         0.018668     -0.056594      0.160555
      9.03153     10.37605      8.33249        -0.079737      0.026348     -0.149988
 -----------------------------------------------------------------------------------
    total drift:                                0.001253      0.001576     -0.002213


--------------------------------------------------------------------------------------------------------



  FREE ENERGIE OF THE ION-ELECTRON SYSTEM (eV)
  ---------------------------------------------------
  free  energy   TOTEN  =       -15.98817633 eV

  energy  without entropy=      -15.98817633  energy(sigma->0) =      -15.98817633



--------------------------------------------------------------------------------------------------------


    POTLOK:  cpu time      0.9265: real time      0.9267


--------------------------------------------------------------------------------------------------------


     LOOP+:  cpu time    261.4054: real time    261.6308
    4ORBIT:  cpu time      0.0000: real time      0.0000

 total amount of memory used by VASP MPI-rank0   954983. kBytes
=======================================================================

   base      :      30000. kBytes
   nonlr-proj:       4661. kBytes
   fftplans  :      48991. kBytes
   grid      :      38630. kBytes
   one-center:         31. kBytes
   HF        :         64. kBytes
   wavefun   :       2592. kBytes
   fock_wrk  :     830014. kBytes

  
  
 General timing and accounting informations for this job:
 ========================================================
  
                  Total CPU time used (sec):      288.163
                            User time (sec):      271.151
                          System time (sec):       17.012
                         Elapsed time (sec):      290.080
  
                   Maximum memory used (kb):     1757232.
                   Average memory used (kb):          N/A
  
                          Minor page faults:      2742878
                          Major page faults:            0
                 Voluntary context switches:        12835
