 vasp.6.4.0 14Feb23 (build Jul 14 2023 13:46:40) complex                        
  
 executed on             LinuxIFC date 2023.07.26  10:09:33
 running   64 mpi-ranks, with    1 threads/rank, on    8 nodes
 distrk:  each k-point on   64 cores,    1 groups
 distr:  one band on NCORE=   1 cores,   64 groups


--------------------------------------------------------------------------------------------------------


 INCAR:
   SYSTEM = MgO-rocksalt
   ISMEAR = 0
   SIGMA = 0.05
   EDIFF = 1E-6
   ALGO = ALL
   ISTART = 0
   IBRION = -1
   NSW = 0
   ISYM = 2
   METAGGA = TPSS
   ENCUT = 520
   PREC = Accurate
   LASPH = .TRUE.
   LREAL = Auto
   ISPIN = 1
   NELM = 200
   NELMIN = 8
   NCORE = 1
   KPAR = 1
   LWAVE = .FALSE.
   LCHARG = .FALSE.

 POTCAR:    PAW_PBE Ag 02Apr2005                  
 POTCAR:    PAW_PBE Ag 02Apr2005                  
   SHA256 =  6550cfa3543261e132c169e1b98a529204624d72be14e2da2e0242bcb74a174d Ag/POTCAR             
   COPYR  = (c) Copyright 02Apr2005 Georg Kresse                                                    
   COPYR  = This file is part of the software VASP. Any use, copying, and all other rights are regul
   COPYR  = If you do not have a valid VASP license, you may not use, copy or distribute this file. 
   VRHFIN =Ag : s1 d10                                                                              
   LEXCH  = PE                                                                                      
   EATOM  =  1037.2675 eV,   76.2370 Ry                                                             
                                                                                                    
   TITEL  = PAW_PBE Ag 02Apr2005                                                                    
   LULTRA =        F    use ultrasoft PP ?                                                          
   IUNSCR =        1    unscreen: 0-lin 1-nonlin 2-no                                               
   RPACOR =    2.000    partial core radius                                                         
   POMASS =  107.868; ZVAL   =   11.000    mass and valenz                                          
   RCORE  =    2.500    outmost cutoff radius                                                       
   RWIGS  =    2.840; RWIGS  =    1.503    wigner-seitz radius (au A)                               
   ENMAX  =  249.844; ENMIN  =  187.383 eV                                                          
   ICORE  =        3    local potential                                                             
   LCOR   =        T    correct aug charges                                                         
   LPAW   =        T    paw PP                                                                      
   EAUG   =  412.496                                                                                
   DEXC   =    0.000                                                                                
   RMAX   =    2.560    core radius for proj-oper                                                   
   RAUG   =    1.300    factor for augmentation sphere                                              
   RDEP   =    2.576    radius for radial grids                                                     
   RDEPT  =    2.072    core radius for aug-charge                                                  
                                                                                                    
   Atomic configuration                                                                             
   12 entries                                                                                       
     n  l   j            E        occ.                                                              
     1  0  0.50    -25324.9161   2.0000                                                             
     2  0  0.50     -3728.5341   2.0000                                                             
     2  1  1.50     -3344.0404   6.0000                                                             
     3  0  0.50      -683.5581   2.0000                                                             
     3  1  1.50      -557.3225   6.0000                                                             
     3  2  2.50      -358.3853  10.0000                                                             
     4  0  0.50       -95.0341   2.0000                                                             
     4  1  1.50       -58.5511   6.0000                                                             
     4  2  2.50        -7.4440  10.0000                                                             
     5  0  0.50        -4.4045   1.0000                                                             
     5  1  0.50        -1.3606   0.0000                                                             
     4  3  2.50        -1.3606   0.0000                                                             
   Description                                                                                      
     l       E           TYP  RCUT    TYP  RCUT                                                     
     2     -7.4439781     23  2.400                                                                 
     2     -8.8045607     23  2.400                                                                 
     0     -4.4044681     23  2.400                                                                 
     0      1.9520038     23  2.400                                                                 
     1     -1.3605826     23  2.500                                                                 
     1     27.2116520     23  2.500                                                                 
     3     -4.0817478     23  2.400                                                                 
  local pseudopotential read in
  partial core-charges read in
  partial kinetic energy density read in
  atomic valenz-charges read in
  non local Contribution for L=           2  read in
    real space projection operators read in
  non local Contribution for L=           2  read in
    real space projection operators read in
  non local Contribution for L=           0  read in
    real space projection operators read in
  non local Contribution for L=           0  read in
    real space projection operators read in
  non local Contribution for L=           1  read in
    real space projection operators read in
  non local Contribution for L=           1  read in
    real space projection operators read in
    PAW grid and wavefunctions read in
 
   number of l-projection  operators is LMAX  =           6
   number of lm-projection operators is LMMAX =          18
 
 -----------------------------------------------------------------------------
|                                                                             |
|               ----> ADVICE to this user running VASP <----                  |
|                                                                             |
|     You have a (more or less) 'small supercell' and for smaller cells       |
|     it is recommended to use the reciprocal-space projection scheme!        |
|     The real-space optimization is not efficient for small cells and it     |
|     is also less accurate ...                                               |
|     Therefore, set LREAL=.FALSE. in the INCAR file.                         |
|                                                                             |
 -----------------------------------------------------------------------------

 Optimization of the real space projectors (new method)

 maximal supplied QI-value         = 15.12
 optimisation between [QCUT,QGAM] = [ 11.64, 23.28] = [ 37.95,151.78] Ry 
 Optimized for a Real-space Cutoff    1.45 Angstroem

   l    n(q)    QCUT    max X(q) W(low)/X(q) W(high)/X(q)  e(spline) 
   2      9    11.641    53.897    0.22E-03    0.42E-04    0.28E-06
   2      9    11.641    52.416    0.23E-03    0.44E-04    0.29E-06
   0     10    11.641   122.045    0.51E-04    0.25E-04    0.16E-06
   0     10    11.641    73.629    0.49E-04    0.24E-04    0.16E-06
   1     10    11.641    15.255    0.99E-04    0.55E-04    0.11E-06
   1     10    11.641     9.562    0.81E-04    0.47E-04    0.95E-07
  PAW_PBE Ag 02Apr2005                  :
 energy of atom  1       EATOM=-1037.2675
 kinetic energy error for atom=    0.0047 (will be added to EATOM!!)
 
 
 POSCAR: ag4
  positions in direct lattice
  velocities in cartesian coordinates

 METAGGA = TPSS                                        LMAXTAU =  6    LMIXTAU =  F

 exchange correlation table for  LEXCH =        8
   RHO(1)=    0.500       N(1)  =     2000
   RHO(2)=  100.500       N(2)  =     4000
 


--------------------------------------------------------------------------------------------------------


 ion  position               nearest neighbor table
   1  0.029  0.020  0.054-   2 2.59   3 2.71   4 2.71
   2  0.971  0.981  0.946-   1 2.59   4 2.71   3 2.71
   3  0.931  0.926  0.064-   1 2.71   2 2.71
   4  0.069  0.074  0.936-   2 2.71   1 2.71
 
  LATTYP: Found a simple cubic cell.
 ALAT       =    20.0000000000
  
  Lattice vectors:
  
 A1 = (  20.0000000000,   0.0000000000,   0.0000000000)
 A2 = (   0.0000000000,  20.0000000000,   0.0000000000)
 A3 = (   0.0000000000,   0.0000000000,  20.0000000000)


Analysis of symmetry for initial positions (statically):
=====================================================================
 Subroutine PRICEL returns:
 Original cell was already a primitive cell.
 

 Routine SETGRP: Setting up the symmetry group for a 
 simple cubic supercell.


 Subroutine GETGRP returns: Found  1 space group operations
 (whereof  1 operations were pure point group operations)
 out of a pool of 48 trial point group operations.


The static configuration has the point symmetry C_1 .


Analysis of symmetry for dynamics (positions and initial velocities):
=====================================================================
 Subroutine PRICEL returns:
 Original cell was already a primitive cell.
 

 Routine SETGRP: Setting up the symmetry group for a 
 simple cubic supercell.


 Subroutine GETGRP returns: Found  1 space group operations
 (whereof  1 operations were pure point group operations)
 out of a pool of 48 trial point group operations.


The dynamic configuration has the point symmetry C_1 .


 Subroutine INISYM returns: Found  1 space group operations
 (whereof  1 operations are pure point group operations),
 and found     1 'primitive' translations


----------------------------------------------------------------------------------------

                                     Primitive cell                                     

  volume of cell :    8000.0000

  direct lattice vectors                    reciprocal lattice vectors
    20.000000000  0.000000000  0.000000000     0.050000000  0.000000000  0.000000000
     0.000000000 20.000000000  0.000000000     0.000000000  0.050000000  0.000000000
     0.000000000  0.000000000 20.000000000     0.000000000  0.000000000  0.050000000

  length of vectors
    20.000000000 20.000000000 20.000000000     0.050000000  0.050000000  0.050000000

  position of ions in fractional coordinates (direct lattice)
     0.029259348  0.019555210  0.054392505
     0.970636487  0.980556351  0.945621421
     0.931203947  0.926222456  0.063548968
     0.068900218  0.073665983  0.936437106

  ion indices of the primitive-cell ions
   primitive index   ion index
                 1           1
                 2           2
                 3           3
                 4           4

----------------------------------------------------------------------------------------

 
 
 KPOINTS: KPOINTS created by Atomic Simulation Env

Automatic generation of k-mesh.
 Grid dimensions read from file:
 generate k-points for:    1    1    1

 Generating k-lattice:

  Cartesian coordinates                     Fractional coordinates (reciprocal lattice)
     0.050000000  0.000000000  0.000000000     1.000000000  0.000000000  0.000000000
     0.000000000  0.050000000  0.000000000     0.000000000  1.000000000  0.000000000
     0.000000000  0.000000000  0.050000000     0.000000000  0.000000000  1.000000000

  Length of vectors
     0.050000000  0.050000000  0.050000000

  Shift w.r.t. Gamma in fractional coordinates (k-lattice)
     0.000000000  0.000000000  0.000000000

 
 Subroutine IBZKPT returns following result:
 ===========================================
 
 Found      1 irreducible k-points:
 
 Following reciprocal coordinates:
            Coordinates               Weight
  0.000000  0.000000  0.000000      1.000000
 
 Following cartesian coordinates:
            Coordinates               Weight
  0.000000  0.000000  0.000000      1.000000
 


--------------------------------------------------------------------------------------------------------




 Dimension of arrays:
   k-points           NKPTS =      1   k-points in BZ     NKDIM =      1   number of bands    NBANDS=     64
   number of dos      NEDOS =    301   number of ions     NIONS =      4
   non local maximal  LDIM  =      6   non local SUM 2l+1 LMDIM =     18
   total plane-waves  NPLWV = ******
   max r-space proj   IRMAX =   5390   max aug-charges    IRDMAX=  20940
   dimension x,y,z NGX =   150 NGY =  150 NGZ =  150
   dimension x,y,z NGXF=   300 NGYF=  300 NGZF=  300
   support grid    NGXF=   300 NGYF=  300 NGZF=  300
   ions per type =               4
   NGX,Y,Z   is equivalent  to a cutoff of  12.47, 12.47, 12.47 a.u.
   NGXF,Y,Z  is equivalent  to a cutoff of  24.94, 24.94, 24.94 a.u.

 SYSTEM =  MgO-rocksalt                            
 POSCAR =  ag4                                     

 Startparameter for this run:
   NWRITE =      2    write-flag & timer
   PREC   = accura    normal or accurate (medium, high low for compatibility)
   ISTART =      0    job   : 0-new  1-cont  2-samecut
   ICHARG =      2    charge: 1-file 2-atom 10-const
   ISPIN  =      1    spin polarized calculation?
   LNONCOLLINEAR =      F non collinear calculations
   LSORBIT =      F    spin-orbit coupling
   INIWAV =      1    electr: 0-lowe 1-rand  2-diag
   LASPH  =      T    aspherical Exc in radial PAW
 Electronic Relaxation 1
   ENCUT  =  520.0 eV  38.22 Ry    6.18 a.u.  37.19 37.19 37.19*2*pi/ulx,y,z
   ENINI  =  520.0     initial cutoff
   ENAUG  =  412.5 eV  augmentation charge cutoff
   NELM   =    200;   NELMIN=  8; NELMDL= -5     # of ELM steps 
   EDIFF  = 0.1E-05   stopping-criterion for ELM
   LREAL  =      T    real-space projection
   NLSPLINE    = F    spline interpolate recip. space projectors
   LCOMPAT=      F    compatible to vasp.4.4
   GGA_COMPAT  = T    GGA compatible to vasp.4.4-vasp.4.6
   LMAXPAW     = -100 max onsite density
   LMAXMIX     =    2 max onsite mixed and CHGCAR
   VOSKOWN=      0    Vosko Wilk Nusair interpolation
   ROPT   =   -0.00025
 Ionic relaxation
   EDIFFG = 0.1E-04   stopping-criterion for IOM
   NSW    =      0    number of steps for IOM
   NBLOCK =      1;   KBLOCK =      1    inner block; outer block 
   IBRION =     -1    ionic relax: 0-MD 1-quasi-New 2-CG
   NFREE  =      0    steps in history (QN), initial steepest desc. (CG)
   ISIF   =      2    stress and relaxation
   IWAVPR =     10    prediction:  0-non 1-charg 2-wave 3-comb
   ISYM   =      2    0-nonsym 1-usesym 2-fastsym
   LCORR  =      T    Harris-Foulkes like correction to forces

   POTIM  = 0.5000    time-step for ionic-motion
   TEIN   =    0.0    initial temperature
   TEBEG  =    0.0;   TEEND  =   0.0 temperature during run
   SMASS  =  -3.00    Nose mass-parameter (am)
   estimated Nose-frequenzy (Omega)   =  0.10E-29 period in steps = 0.13E+47 mass=  -0.914E-26a.u.
   SCALEE = 1.0000    scale energy and forces
   NPACO  =    256;   APACO  = 10.0  distance and # of slots for P.C.
   PSTRESS=    0.0 pullay stress

  Mass of Ions in am
   POMASS = 107.87
  Ionic Valenz
   ZVAL   =  11.00
  Atomic Wigner-Seitz radii
   RWIGS  =  -1.00
  virtual crystal weights 
   VCA    =   1.00
   NELECT =      44.0000    total number of electrons
   NUPDOWN=      -1.0000    fix difference up-down

 DOS related values:
   EMIN   =  10.00;   EMAX   =-10.00  energy-range for DOS
   EFERMI =   0.00;   METHOD = LEGACY      
   ISMEAR =     0;   SIGMA  =   0.05  broadening in eV -4-tet -1-fermi 0-gaus

 Electronic relaxation 2 (details)
   IALGO  =     58    algorithm
   LDIAG  =      T    sub-space diagonalisation (order eigenvalues)
   LSUBROT=      F    optimize rotation matrix (better conditioning)
   TURBO    =      0    0=normal 1=particle mesh
   IRESTART =      0    0=no restart 2=restart with 2 vectors
   NREBOOT  =      0    no. of reboots
   NMIN     =      0    reboot dimension
   EREF     =   0.00    reference energy to select bands
   IMIX   =      4    mixing-type and parameters
     AMIX     =   0.40;   BMIX     =  1.00
     AMIX_MAG =   1.60;   BMIX_MAG =  1.00
     AMIN     =   0.10
     WC   =   100.;   INIMIX=   1;  MIXPRE=   1;  MAXMIX= -45

 Intra band minimization:
   WEIMIN = 0.0000     energy-eigenvalue tresh-hold
   EBREAK =  0.39E-08  absolut break condition
   DEPER  =   0.30     relativ break condition  

   TIME   =   0.40     timestep for ELM

  volume/ion in A,a.u.               =    2000.00     13496.67
  Fermi-wavevector in a.u.,A,eV,Ry     =   0.288976  0.546086  1.136187  0.083507
  Thomas-Fermi vector in A             =   1.146265
 
 Write flags
   LWAVE        =      F    write WAVECAR
   LDOWNSAMPLE  =      F    k-point downsampling of WAVECAR
   LCHARG       =      F    write CHGCAR
   LVTOT        =      F    write LOCPOT, total local potential
   LVHAR        =      F    write LOCPOT, Hartree potential only
   LELF         =      F    write electronic localiz. function (ELF)
   LORBIT       =      0    0 simple, 1 ext, 2 COOP (PROOUT), +10 PAW based schemes


 Dipole corrections
   LMONO  =      F    monopole corrections only (constant potential shift)
   LDIPOL =      F    correct potential (dipole corrections)
   IDIPOL =      0    1-x, 2-y, 3-z, 4-all directions 
   EPSILON=  1.0000000 bulk dielectric constant

 Exchange correlation treatment:
   GGA     =    --    GGA type
   LEXCH   =     8    internal setting for exchange type
   LIBXC   =     F    Libxc                    
   VOSKOWN =     0    Vosko Wilk Nusair interpolation
   LHFCALC =     F    Hartree Fock is set to
   LHFONE  =     F    Hartree Fock one center treatment
   AEXX    =    0.0000 exact exchange contribution

 Linear response parameters
   LEPSILON=     F    determine dielectric tensor
   LRPA    =     F    only Hartree local field effects (RPA)
   LNABLA  =     F    use nabla operator in PAW spheres
   LVEL    =     F    velocity operator in full k-point grid
   CSHIFT  =0.1000    complex shift for real part using Kramers Kronig
   OMEGAMAX=  -1.0    maximum frequency
   DEG_THRESHOLD= 0.2000000E-02 threshold for treating states as degnerate
   RTIME   =   -0.100 relaxation time in fs
  (WPLASMAI=    0.000 imaginary part of plasma frequency in eV, 0.658/RTIME)
   DFIELD  = 0.0000000 0.0000000 0.0000000 field for delta impulse in time
 
  Optional k-point grid parameters
   LKPOINTS_OPT  =     F    use optional k-point grid
   KPOINTS_OPT_MODE=     1    mode for optional k-point grid
 
 Orbital magnetization related:
   ORBITALMAG=     F  switch on orbital magnetization
   LCHIMAG   =     F  perturbation theory with respect to B field
   DQ        =  0.001000  dq finite difference perturbation B field
   LLRAUG    =     F  two centre corrections for induced B field
   LBONE     =     F  B-component reconstruction in AE one-centre
   LVGVCALC  =     T  calculate vGv susceptibility
   LVGVAPPL  =     F  apply vGv susceptibility instead of pGv for G=0

 Random number generation:
   RANDOM_GENERATOR = DEFAULT
   PCG_SEED         = not used


--------------------------------------------------------------------------------------------------------


 Static calculation
 charge density and potential will be updated during run
 non-spin polarized calculation
 Conjugate gradient for all bands (Freysoldt, et al. PRB 79, 241103 (2009))
 preconditioned conjugated gradient                                        
 perform sub-space diagonalisation
    before iterative eigenvector-optimisation
 modified Broyden-mixing scheme, WC =      100.0
 initial mixing is a Kerker type mixing with AMIX =  0.4000 and BMIX =      1.0000
 Hartree-type preconditioning will be used
 using additional bands           42
 real space projection scheme for non local part
 use partial core corrections
 no Harris-corrections to forces 
 use gradient corrections 
 use of overlap-Matrix (Vanderbilt PP)
 Gauss-broadening in eV      SIGMA  =   0.05


--------------------------------------------------------------------------------------------------------


  energy-cutoff  :      520.00
  volume of cell :     8000.00
      direct lattice vectors                 reciprocal lattice vectors
    20.000000000  0.000000000  0.000000000     0.050000000  0.000000000  0.000000000
     0.000000000 20.000000000  0.000000000     0.000000000  0.050000000  0.000000000
     0.000000000  0.000000000 20.000000000     0.000000000  0.000000000  0.050000000

  length of vectors
    20.000000000 20.000000000 20.000000000     0.050000000  0.050000000  0.050000000


 
 k-points in units of 2pi/SCALE and weight: KPOINTS created by Atomic Simulation Env
   0.00000000  0.00000000  0.00000000       1.000
 
 k-points in reciprocal lattice and weights: KPOINTS created by Atomic Simulation Env
   0.00000000  0.00000000  0.00000000       1.000
 
 position of ions in fractional coordinates (direct lattice) 
   0.02925935  0.01955521  0.05439250
   0.97063649  0.98055635  0.94562142
   0.93120395  0.92622246  0.06354897
   0.06890022  0.07366598  0.93643711
 
 position of ions in cartesian coordinates  (Angst):
   0.58518697  0.39110421  1.08785010
  19.41272973 19.61112701 18.91242842
  18.62407895 18.52444912  1.27097936
   1.37800435  1.47331966 18.72874212
 


--------------------------------------------------------------------------------------------------------


 k-point   1 :   0.0000 0.0000 0.0000  plane waves:  215503

 maximum and minimum number of plane-waves per node :    215503   215503

 maximum number of plane-waves:    215503
 maximum index in each direction: 
   IXMAX=   37   IYMAX=   37   IZMAX=   37
   IXMIN=  -37   IYMIN=  -37   IZMIN=  -37


 serial   3D FFT for wavefunctions
 parallel 3D FFT for charge:
    minimum data exchange during FFTs selected (reduces bandwidth)


 total amount of memory used by VASP MPI-rank0   341463. kBytes
=======================================================================

   base      :      30000. kBytes
   nonlr-proj:       3650. kBytes
   fftplans  :      28721. kBytes
   grid      :     268680. kBytes
   one-center:         62. kBytes
   wavefun   :      10350. kBytes
 
     INWAV:  cpu time      0.0004: real time      0.0005
 Broyden mixing: mesh for mixing (old mesh)
   NGX = 75   NGY = 75   NGZ = 75
  (NGX  =300   NGY  =300   NGZ  =300)
  gives a total of 421875 points

 initial charge density was supplied:
 charge density of overlapping atoms calculated
 number of electron      44.0000000 magnetization 
 keeping initial charge density in first step


--------------------------------------------------------------------------------------------------------


 Maximum index for non-local projection operator         5194
 Maximum index for augmentation-charges          653 (set IRDMAX)


--------------------------------------------------------------------------------------------------------


 First call to EWALD:  gamma=   0.089
 Maximum number of real-space cells 3x 3x 3
 Maximum number of reciprocal cells 3x 3x 3

    FEWALD:  cpu time      0.0067: real time      0.0076


--------------------------------------- Ionic step        1  -------------------------------------------




--------------------------------------- Iteration      1(   1)  ---------------------------------------


    POTLOK:  cpu time      6.2642: real time      6.2660
    SETDIJ:  cpu time      4.3065: real time      4.3064
    TRIAL :  cpu time      4.5293: real time      4.5843
    CORREC:  cpu time      0.0016: real time      0.0016
    --------------------------------------------
      LOOP:  cpu time     15.1074: real time     15.1649

 eigenvalue-minimisations  :   128
 total energy-change (2. order) : 0.2921458E+03  (-0.8450742E+03)
 number of electron      44.0000000 magnetization 
 augmentation part       44.0000000 magnetization 

 Free energy of the ion-electron system (eV)
  ---------------------------------------------------
  alpha Z        PSCENC =         1.70115614
  Ewald energy   TEWEN  =      1654.71435159
  -Hartree energ DENC   =     -5615.81756175
  -exchange      EXHF   =         0.00000000
  -V(xc)+E(xc)   XCENC  =       -17.39802669
  PAW double counting   =      3994.70646937    -3862.40462021
  entropy T*S    EENTRO =        -0.03605641
  eigenvalues    EBANDS =       -12.37107223
  atomic energy  EATOM  =      4149.05112583
  ---------------------------------------------------
  free energy    TOTEN  =       292.14576564 eV

  energy without entropy =      292.18182205  energy(sigma->0) =      292.16379384


--------------------------------------------------------------------------------------------------------




--------------------------------------- Iteration      1(   2)  ---------------------------------------


    TRIAL :  cpu time      7.0131: real time      7.0137
    CORREC:  cpu time      0.0008: real time      0.0008
    --------------------------------------------
      LOOP:  cpu time      7.0164: real time      7.0203

 eigenvalue-minimisations  :   256
 total energy-change (2. order) :-0.3151278E+03  (-0.3146932E+03)
 number of electron      44.0000000 magnetization 
 augmentation part       44.0000000 magnetization 

 Free energy of the ion-electron system (eV)
  ---------------------------------------------------
  alpha Z        PSCENC =         1.70115614
  Ewald energy   TEWEN  =      1654.71435159
  -Hartree energ DENC   =     -5615.81756175
  -exchange      EXHF   =         0.00000000
  -V(xc)+E(xc)   XCENC  =       -17.39802669
  PAW double counting   =      3994.70646937    -3862.40462021
  entropy T*S    EENTRO =        -0.00000000
  eigenvalues    EBANDS =      -327.53493947
  atomic energy  EATOM  =      4149.05112583
  ---------------------------------------------------
  free energy    TOTEN  =       -22.98204519 eV

  energy without entropy =      -22.98204519  energy(sigma->0) =      -22.98204519


--------------------------------------------------------------------------------------------------------




--------------------------------------- Iteration      1(   3)  ---------------------------------------


    TRIAL :  cpu time      4.3306: real time      4.3293
    CORREC:  cpu time      0.0004: real time      0.0004
    --------------------------------------------
      LOOP:  cpu time      4.3329: real time      4.3351

 eigenvalue-minimisations  :   128
 total energy-change (2. order) :-0.2309652E+02  (-0.2309652E+02)
 number of electron      44.0000000 magnetization 
 augmentation part       44.0000000 magnetization 

 Free energy of the ion-electron system (eV)
  ---------------------------------------------------
  alpha Z        PSCENC =         1.70115614
  Ewald energy   TEWEN  =      1654.71435159
  -Hartree energ DENC   =     -5615.81756175
  -exchange      EXHF   =         0.00000000
  -V(xc)+E(xc)   XCENC  =       -17.39802669
  PAW double counting   =      3994.70646937    -3862.40462021
  entropy T*S    EENTRO =        -0.00000000
  eigenvalues    EBANDS =      -350.63145734
  atomic energy  EATOM  =      4149.05112583
  ---------------------------------------------------
  free energy    TOTEN  =       -46.07856306 eV

  energy without entropy =      -46.07856306  energy(sigma->0) =      -46.07856306


--------------------------------------------------------------------------------------------------------




--------------------------------------- Iteration      1(   4)  ---------------------------------------


    TRIAL :  cpu time      4.3273: real time      4.3259
    CORREC:  cpu time      0.0006: real time      0.0006
    --------------------------------------------
      LOOP:  cpu time      4.3297: real time      4.3320

 eigenvalue-minimisations  :   128
 total energy-change (2. order) :-0.1465334E+00  (-0.1465334E+00)
 number of electron      44.0000000 magnetization 
 augmentation part       44.0000000 magnetization 

 Free energy of the ion-electron system (eV)
  ---------------------------------------------------
  alpha Z        PSCENC =         1.70115614
  Ewald energy   TEWEN  =      1654.71435159
  -Hartree energ DENC   =     -5615.81756175
  -exchange      EXHF   =         0.00000000
  -V(xc)+E(xc)   XCENC  =       -17.39802669
  PAW double counting   =      3994.70646937    -3862.40462021
  entropy T*S    EENTRO =        -0.00000000
  eigenvalues    EBANDS =      -350.77799075
  atomic energy  EATOM  =      4149.05112583
  ---------------------------------------------------
  free energy    TOTEN  =       -46.22509647 eV

  energy without entropy =      -46.22509647  energy(sigma->0) =      -46.22509647


--------------------------------------------------------------------------------------------------------




--------------------------------------- Iteration      1(   5)  ---------------------------------------


    TRIAL :  cpu time      6.9900: real time      6.9879
    CORREC:  cpu time      0.0006: real time      0.0006
    CHARGE:  cpu time      1.1518: real time      1.1517
    --------------------------------------------
      LOOP:  cpu time      8.1477: real time      8.1458

 eigenvalue-minimisations  :   256
 total energy-change (2. order) :-0.2790143E-02  (-0.2790143E-02)
 number of electron      43.9999995 magnetization 
 augmentation part       20.7901815 magnetization 

 Free energy of the ion-electron system (eV)
  ---------------------------------------------------
  alpha Z        PSCENC =         1.70115614
  Ewald energy   TEWEN  =      1654.71435159
  -Hartree energ DENC   =     -5615.81756175
  -exchange      EXHF   =         0.00000000
  -V(xc)+E(xc)   XCENC  =       -17.39802669
  PAW double counting   =      3994.70646937    -3862.40462021
  entropy T*S    EENTRO =        -0.00000000
  eigenvalues    EBANDS =      -350.78078089
  atomic energy  EATOM  =      4149.05112583
  ---------------------------------------------------
  free energy    TOTEN  =       -46.22788661 eV

  energy without entropy =      -46.22788661  energy(sigma->0) =      -46.22788661


--------------------------------------------------------------------------------------------------------




--------------------------------------- Iteration      1(   6)  ---------------------------------------


    POTLOK:  cpu time      6.2182: real time      6.2177
    SETDIJ:  cpu time      4.4072: real time      4.4069
    TRIAL :  cpu time      4.2054: real time      4.2564
    CORREC:  cpu time     12.7800: real time     12.7776
    CHARGE:  cpu time      1.0853: real time      1.0851
    --------------------------------------------
      LOOP:  cpu time     28.6989: real time     28.7498

 eigenvalue-minimisations  :     0
 total energy-change (2. order) : 0.1032158E+02  (-0.1945155E+01)
 number of electron      43.9999995 magnetization 
 augmentation part       21.2906122 magnetization 

 Free energy of the ion-electron system (eV)
  ---------------------------------------------------
  alpha Z        PSCENC =         1.70115614
  Ewald energy   TEWEN  =      1654.71435159
  -Hartree energ DENC   =     -5638.13344080
  -exchange      EXHF   =         0.00000000
  -V(xc)+E(xc)   XCENC  =       -28.37084557
  PAW double counting   =      4222.68753842    -4094.09989033
  entropy T*S    EENTRO =        -0.00000000
  eigenvalues    EBANDS =      -303.45629774
  atomic energy  EATOM  =      4149.05112583
  ---------------------------------------------------
  free energy    TOTEN  =       -35.90630246 eV

  energy without entropy =      -35.90630246  energy(sigma->0) =      -35.90630246


--------------------------------------------------------------------------------------------------------




--------------------------------------- Iteration      1(   7)  ---------------------------------------


    POTLOK:  cpu time      6.1800: real time      6.1786
    SETDIJ:  cpu time      4.4049: real time      4.4048
    TRIAL :  cpu time      3.9960: real time      3.9947
    CORREC:  cpu time     12.7484: real time     12.7463
    CHARGE:  cpu time      1.0819: real time      1.0815
    --------------------------------------------
      LOOP:  cpu time     28.4144: real time     28.4127

 eigenvalue-minimisations  :     0
 total energy-change (2. order) :-0.1946546E+01  (-0.2258976E+00)
 number of electron      43.9999995 magnetization 
 augmentation part       21.1889493 magnetization 

 Free energy of the ion-electron system (eV)
  ---------------------------------------------------
  alpha Z        PSCENC =         1.70115614
  Ewald energy   TEWEN  =      1654.71435159
  -Hartree energ DENC   =     -5651.81299936
  -exchange      EXHF   =         0.00000000
  -V(xc)+E(xc)   XCENC  =       -26.72056042
  PAW double counting   =      4206.55611085    -4079.20223422
  entropy T*S    EENTRO =        -0.00000000
  eigenvalues    EBANDS =      -292.13979919
  atomic energy  EATOM  =      4149.05112583
  ---------------------------------------------------
  free energy    TOTEN  =       -37.85284878 eV

  energy without entropy =      -37.85284878  energy(sigma->0) =      -37.85284878


--------------------------------------------------------------------------------------------------------




--------------------------------------- Iteration      1(   8)  ---------------------------------------


    POTLOK:  cpu time      6.1693: real time      6.1678
    SETDIJ:  cpu time      4.4012: real time      4.4009
    TRIAL :  cpu time      4.0089: real time      4.0075
    CORREC:  cpu time     12.7356: real time     12.7331
    CHARGE:  cpu time      1.0899: real time      1.0895
    --------------------------------------------
      LOOP:  cpu time     28.4160: real time     28.4133

 eigenvalue-minimisations  :     0
 total energy-change (2. order) :-0.2252597E+00  (-0.8590902E-01)
 number of electron      43.9999995 magnetization 
 augmentation part       21.2640851 magnetization 

 Free energy of the ion-electron system (eV)
  ---------------------------------------------------
  alpha Z        PSCENC =         1.70115614
  Ewald energy   TEWEN  =      1654.71435159
  -Hartree energ DENC   =     -5618.83864820
  -exchange      EXHF   =         0.00000000
  -V(xc)+E(xc)   XCENC  =       -27.47842765
  PAW double counting   =      4161.28251481    -4033.72854062
  entropy T*S    EENTRO =        -0.00000000
  eigenvalues    EBANDS =      -324.78164032
  atomic energy  EATOM  =      4149.05112583
  ---------------------------------------------------
  free energy    TOTEN  =       -38.07810843 eV

  energy without entropy =      -38.07810843  energy(sigma->0) =      -38.07810843


--------------------------------------------------------------------------------------------------------




--------------------------------------- Iteration      1(   9)  ---------------------------------------


    POTLOK:  cpu time      6.1630: real time      6.1619
    SETDIJ:  cpu time      4.3991: real time      4.3990
    TRIAL :  cpu time      3.9995: real time      3.9983
    CORREC:  cpu time     12.7327: real time     12.7304
    CHARGE:  cpu time      1.0879: real time      1.0875
    --------------------------------------------
      LOOP:  cpu time     28.3891: real time     28.3842

 eigenvalue-minimisations  :     0
 total energy-change (2. order) :-0.8595411E-01  (-0.2472988E-01)
 number of electron      43.9999995 magnetization 
 augmentation part       21.2491829 magnetization 

 Free energy of the ion-electron system (eV)
  ---------------------------------------------------
  alpha Z        PSCENC =         1.70115614
  Ewald energy   TEWEN  =      1654.71435159
  -Hartree energ DENC   =     -5629.78058680
  -exchange      EXHF   =         0.00000000
  -V(xc)+E(xc)   XCENC  =       -27.17501106
  PAW double counting   =      4172.45123801    -4045.15413304
  entropy T*S    EENTRO =        -0.00000000
  eigenvalues    EBANDS =      -313.97220321
  atomic energy  EATOM  =      4149.05112583
  ---------------------------------------------------
  free energy    TOTEN  =       -38.16406254 eV

  energy without entropy =      -38.16406254  energy(sigma->0) =      -38.16406254


--------------------------------------------------------------------------------------------------------




--------------------------------------- Iteration      1(  10)  ---------------------------------------


    POTLOK:  cpu time      6.1595: real time      6.1582
    SETDIJ:  cpu time      4.3948: real time      4.3945
    TRIAL :  cpu time      4.0080: real time      4.0067
    CORREC:  cpu time     12.7534: real time     12.7511
    CHARGE:  cpu time      1.0882: real time      1.0878
    --------------------------------------------
      LOOP:  cpu time     28.4105: real time     28.4053

 eigenvalue-minimisations  :     0
 total energy-change (2. order) :-0.2457680E-01  (-0.5338679E-02)
 number of electron      43.9999995 magnetization 
 augmentation part       21.2507482 magnetization 

 Free energy of the ion-electron system (eV)
  ---------------------------------------------------
  alpha Z        PSCENC =         1.70115614
  Ewald energy   TEWEN  =      1654.71435159
  -Hartree energ DENC   =     -5626.39282439
  -exchange      EXHF   =         0.00000000
  -V(xc)+E(xc)   XCENC  =       -27.25346674
  PAW double counting   =      4189.41921698    -4061.87048897
  entropy T*S    EENTRO =        -0.00000000
  eigenvalues    EBANDS =      -317.55770978
  atomic energy  EATOM  =      4149.05112583
  ---------------------------------------------------
  free energy    TOTEN  =       -38.18863934 eV

  energy without entropy =      -38.18863934  energy(sigma->0) =      -38.18863934


--------------------------------------------------------------------------------------------------------




--------------------------------------- Iteration      1(  11)  ---------------------------------------


    POTLOK:  cpu time      6.1639: real time      6.1626
    SETDIJ:  cpu time      4.4122: real time      4.4119
    TRIAL :  cpu time      4.0183: real time      4.0171
    CORREC:  cpu time     12.7410: real time     12.7388
    CHARGE:  cpu time      1.0834: real time      1.0831
    --------------------------------------------
      LOOP:  cpu time     28.4217: real time     28.4203

 eigenvalue-minimisations  :     0
 total energy-change (2. order) :-0.5347266E-02  (-0.7936388E-03)
 number of electron      43.9999995 magnetization 
 augmentation part       21.2558745 magnetization 

 Free energy of the ion-electron system (eV)
  ---------------------------------------------------
  alpha Z        PSCENC =         1.70115614
  Ewald energy   TEWEN  =      1654.71435159
  -Hartree energ DENC   =     -5625.89573391
  -exchange      EXHF   =         0.00000000
  -V(xc)+E(xc)   XCENC  =       -27.25828896
  PAW double counting   =      4202.81007857    -4075.17874037
  entropy T*S    EENTRO =        -0.00000000
  eigenvalues    EBANDS =      -318.13793549
  atomic energy  EATOM  =      4149.05112583
  ---------------------------------------------------
  free energy    TOTEN  =       -38.19398661 eV

  energy without entropy =      -38.19398661  energy(sigma->0) =      -38.19398661


--------------------------------------------------------------------------------------------------------




--------------------------------------- Iteration      1(  12)  ---------------------------------------


    POTLOK:  cpu time      6.1667: real time      6.1654
    SETDIJ:  cpu time      4.4075: real time      4.4074
    TRIAL :  cpu time      4.0159: real time      4.0147
    CORREC:  cpu time     12.7379: real time     12.7355
    CHARGE:  cpu time      1.0904: real time      1.0901
    --------------------------------------------
      LOOP:  cpu time     28.4215: real time     28.4193

 eigenvalue-minimisations  :     0
 total energy-change (2. order) :-0.7905734E-03  (-0.1929628E-03)
 number of electron      43.9999995 magnetization 
 augmentation part       21.2551215 magnetization 

 Free energy of the ion-electron system (eV)
  ---------------------------------------------------
  alpha Z        PSCENC =         1.70115614
  Ewald energy   TEWEN  =      1654.71435159
  -Hartree energ DENC   =     -5626.33072506
  -exchange      EXHF   =         0.00000000
  -V(xc)+E(xc)   XCENC  =       -27.24136345
  PAW double counting   =      4207.74911929    -4080.12043576
  entropy T*S    EENTRO =        -0.00000000
  eigenvalues    EBANDS =      -317.71800575
  atomic energy  EATOM  =      4149.05112583
  ---------------------------------------------------
  free energy    TOTEN  =       -38.19477718 eV

  energy without entropy =      -38.19477718  energy(sigma->0) =      -38.19477718


--------------------------------------------------------------------------------------------------------




--------------------------------------- Iteration      1(  13)  ---------------------------------------


    POTLOK:  cpu time      6.1643: real time      6.1627
    SETDIJ:  cpu time      4.3944: real time      4.3942
    TRIAL :  cpu time      4.0021: real time      4.0007
    CORREC:  cpu time     12.7383: real time     12.7361
    CHARGE:  cpu time      1.0854: real time      1.0851
    --------------------------------------------
      LOOP:  cpu time     28.3878: real time     28.3858

 eigenvalue-minimisations  :     0
 total energy-change (2. order) :-0.1930657E-03  (-0.5586829E-04)
 number of electron      43.9999995 magnetization 
 augmentation part       21.2554431 magnetization 

 Free energy of the ion-electron system (eV)
  ---------------------------------------------------
  alpha Z        PSCENC =         1.70115614
  Ewald energy   TEWEN  =      1654.71435159
  -Hartree energ DENC   =     -5626.10618639
  -exchange      EXHF   =         0.00000000
  -V(xc)+E(xc)   XCENC  =       -27.24941960
  PAW double counting   =      4209.50149976    -4081.86744876
  entropy T*S    EENTRO =        -0.00000000
  eigenvalues    EBANDS =      -317.94004881
  atomic energy  EATOM  =      4149.05112583
  ---------------------------------------------------
  free energy    TOTEN  =       -38.19497025 eV

  energy without entropy =      -38.19497025  energy(sigma->0) =      -38.19497025


--------------------------------------------------------------------------------------------------------




--------------------------------------- Iteration      1(  14)  ---------------------------------------


    POTLOK:  cpu time      6.1630: real time      6.1618
    SETDIJ:  cpu time      4.3915: real time      4.3914
    TRIAL :  cpu time      4.0077: real time      4.0065
    CORREC:  cpu time     12.7430: real time     12.7407
    CHARGE:  cpu time      1.0915: real time      1.0914
    --------------------------------------------
      LOOP:  cpu time     28.4000: real time     28.3983

 eigenvalue-minimisations  :     0
 total energy-change (2. order) :-0.5541086E-04  (-0.1435820E-04)
 number of electron      43.9999995 magnetization 
 augmentation part       21.2560177 magnetization 

 Free energy of the ion-electron system (eV)
  ---------------------------------------------------
  alpha Z        PSCENC =         1.70115614
  Ewald energy   TEWEN  =      1654.71435159
  -Hartree energ DENC   =     -5626.14987268
  -exchange      EXHF   =         0.00000000
  -V(xc)+E(xc)   XCENC  =       -27.24817638
  PAW double counting   =      4210.75843070    -4083.12665513
  entropy T*S    EENTRO =        -0.00000000
  eigenvalues    EBANDS =      -317.89538572
  atomic energy  EATOM  =      4149.05112583
  ---------------------------------------------------
  free energy    TOTEN  =       -38.19502566 eV

  energy without entropy =      -38.19502566  energy(sigma->0) =      -38.19502566


--------------------------------------------------------------------------------------------------------




--------------------------------------- Iteration      1(  15)  ---------------------------------------


    POTLOK:  cpu time      6.1709: real time      6.1696
    SETDIJ:  cpu time      4.4079: real time      4.4077
    TRIAL :  cpu time      3.9885: real time      3.9872
    CORREC:  cpu time     12.7264: real time     12.7243
    CHARGE:  cpu time      1.0903: real time      1.0901
    --------------------------------------------
      LOOP:  cpu time     28.3898: real time     28.3881

 eigenvalue-minimisations  :     0
 total energy-change (2. order) :-0.1238771E-04  (-0.1839524E-05)
 number of electron      43.9999995 magnetization 
 augmentation part       21.2557549 magnetization 

 Free energy of the ion-electron system (eV)
  ---------------------------------------------------
  alpha Z        PSCENC =         1.70115614
  Ewald energy   TEWEN  =      1654.71435159
  -Hartree energ DENC   =     -5626.30397437
  -exchange      EXHF   =         0.00000000
  -V(xc)+E(xc)   XCENC  =       -27.24434379
  PAW double counting   =      4211.77663614    -4084.14803548
  entropy T*S    EENTRO =        -0.00000000
  eigenvalues    EBANDS =      -317.74195409
  atomic energy  EATOM  =      4149.05112583
  ---------------------------------------------------
  free energy    TOTEN  =       -38.19503804 eV

  energy without entropy =      -38.19503804  energy(sigma->0) =      -38.19503804


--------------------------------------------------------------------------------------------------------




--------------------------------------- Iteration      1(  16)  ---------------------------------------


    POTLOK:  cpu time      6.1599: real time      6.1585
    SETDIJ:  cpu time      4.4110: real time      4.4110
    TRIAL :  cpu time      3.9795: real time      3.9783
    CORREC:  cpu time     12.7264: real time     12.7243
    CHARGE:  cpu time      1.0851: real time      1.0847
    --------------------------------------------
      LOOP:  cpu time     28.3645: real time     28.3627

 eigenvalue-minimisations  :     0
 total energy-change (2. order) :-0.1504414E-05  (-0.8183839E-06)
 number of electron      43.9999995 magnetization 
 augmentation part       21.2556038 magnetization 

 Free energy of the ion-electron system (eV)
  ---------------------------------------------------
  alpha Z        PSCENC =         1.70115614
  Ewald energy   TEWEN  =      1654.71435159
  -Hartree energ DENC   =     -5626.26766370
  -exchange      EXHF   =         0.00000000
  -V(xc)+E(xc)   XCENC  =       -27.24564954
  PAW double counting   =      4212.03644403    -4084.40697709
  entropy T*S    EENTRO =        -0.00000000
  eigenvalues    EBANDS =      -317.77782680
  atomic energy  EATOM  =      4149.05112583
  ---------------------------------------------------
  free energy    TOTEN  =       -38.19503955 eV

  energy without entropy =      -38.19503955  energy(sigma->0) =      -38.19503955


--------------------------------------------------------------------------------------------------------




--------------------------------------- Iteration      1(  17)  ---------------------------------------


    POTLOK:  cpu time      6.1611: real time      6.1598
    SETDIJ:  cpu time      4.3961: real time      4.3959
    TRIAL :  cpu time      3.9940: real time      3.9927
    CORREC:  cpu time     12.7316: real time     12.7292
    EDDIAG:  cpu time      1.0663: real time      1.0658
    CHARGE:  cpu time      1.0954: real time      1.0951
    --------------------------------------------
      LOOP:  cpu time     29.4494: real time     29.4473

 eigenvalue-minimisations  :     0
 total energy-change (2. order) :-0.5677512E-06  (-0.5992317E-06)
 number of electron      43.9999995 magnetization 
 augmentation part       21.2555859 magnetization 

 Free energy of the ion-electron system (eV)
  ---------------------------------------------------
  alpha Z        PSCENC =         1.70115614
  Ewald energy   TEWEN  =      1654.71435159
  -Hartree energ DENC   =     -5626.24054718
  -exchange      EXHF   =         0.00000000
  -V(xc)+E(xc)   XCENC  =       -27.24649877
  PAW double counting   =      4212.19461001    -4084.56446482
  entropy T*S    EENTRO =        -0.00000000
  eigenvalues    EBANDS =      -317.80477291
  atomic energy  EATOM  =      4149.05112583
  ---------------------------------------------------
  free energy    TOTEN  =       -38.19504012 eV

  energy without entropy =      -38.19504012  energy(sigma->0) =      -38.19504012


--------------------------------------------------------------------------------------------------------


  average scaling for gradient   1.4092


 average (electrostatic) potential at core
  the test charge radii are     1.1249
  (the norm of the test charge is              1.0000)
       1 -83.6867       2 -83.6867       3 -83.0793       4 -83.0794
 
 
 
 E-fermi :  -3.9187     XC(G=0):  -0.3096     alpha+bet : -0.1148

 Fermi energy:        -3.9186799774

 k-point     1 :       0.0000    0.0000    0.0000
  band No.  band energies     occupation 
      1      -8.8405      2.00000
      2      -8.8275      2.00000
      3      -8.3073      2.00000
      4      -8.2723      2.00000
      5      -8.1787      2.00000
      6      -8.0103      2.00000
      7      -7.6895      2.00000
      8      -7.6651      2.00000
      9      -7.2366      2.00000
     10      -7.2173      2.00000
     11      -7.1520      2.00000
     12      -7.0025      2.00000
     13      -6.9845      2.00000
     14      -6.9632      2.00000
     15      -6.8267      2.00000
     16      -6.8208      2.00000
     17      -6.7780      2.00000
     18      -6.7271      2.00000
     19      -6.6598      2.00000
     20      -6.4012      2.00000
     21      -6.1682      2.00000
     22      -4.1785      2.00000
     23      -3.2519      0.00000
     24      -2.0661      0.00000
     25      -1.5370      0.00000
     26      -0.8233      0.00000
     27      -0.7503      0.00000
     28      -0.2848      0.00000
     29      -0.0568      0.00000
     30       0.0998      0.00000
     31       0.3394      0.00000
     32       0.3541      0.00000
     33       0.4223      0.00000
     34       0.4369      0.00000
     35       0.4976      0.00000
     36       0.5158      0.00000
     37       0.5424      0.00000
     38       0.6550      0.00000
     39       0.6868      0.00000
     40       0.7288      0.00000
     41       0.7491      0.00000
     42       0.7512      0.00000
     43       0.7963      0.00000
     44       0.8024      0.00000
     45       0.8073      0.00000
     46       0.8231      0.00000
     47       0.8617      0.00000
     48       0.9411      0.00000
     49       0.9771      0.00000
     50       1.0898      0.00000
     51       1.1107      0.00000
     52       1.1164      0.00000
     53       1.1250      0.00000
     54       1.1610      0.00000
     55       1.1650      0.00000
     56       1.2442      0.00000
     57       1.2767      0.00000
     58       1.3089      0.00000
     59       1.3937      0.00000
     60       1.4514      0.00000
     61       1.5037      0.00000
     62       1.5118      0.00000
     63       1.6038      0.00000
     64       1.6153      0.00000


--------------------------------------------------------------------------------------------------------


 soft charge-density along one line, spin component           1
         0         1         2         3         4         5         6         7         8         9
 total charge-density along one line
 
 pseudopotential strength for first ion, spin component:           1
-10.600  -0.014   0.001  -0.010  -0.000 -10.569  -0.013   0.001
 -0.014 -10.616  -0.007  -0.005   0.010  -0.013 -10.584  -0.007
  0.001  -0.007 -10.625  -0.011   0.002   0.001  -0.007 -10.592
 -0.010  -0.005  -0.011 -10.622  -0.015  -0.010  -0.005  -0.010
 -0.000   0.010   0.002  -0.015 -10.597  -0.000   0.010   0.002
-10.569  -0.013   0.001  -0.010  -0.000 -10.513  -0.013   0.001
 -0.013 -10.584  -0.007  -0.005   0.010  -0.013 -10.528  -0.007
  0.001  -0.007 -10.592  -0.010   0.002   0.001  -0.007 -10.536
 -0.010  -0.005  -0.010 -10.589  -0.014  -0.010  -0.005  -0.010
 -0.000   0.010   0.002  -0.014 -10.566  -0.000   0.009   0.002
  0.008   0.001   0.007   0.005   0.001   0.008   0.001   0.007
  0.014   0.002   0.012   0.008   0.002   0.013   0.002   0.011
  0.022   0.042  -0.008  -0.001  -0.016   0.022   0.041  -0.008
 -0.001   0.015   0.047   0.022  -0.000  -0.001   0.015   0.046
  0.014  -0.001  -0.013   0.042   0.023   0.014  -0.001  -0.013
  0.025   0.049  -0.009  -0.001  -0.018   0.025   0.048  -0.009
 -0.001   0.019   0.054   0.027  -0.000  -0.001   0.018   0.053
  0.016  -0.001  -0.015   0.049   0.027   0.016  -0.001  -0.014
 total augmentation occupancy for first ion, spin component:           1
  2.807   0.121  -0.185   0.126   0.038  -0.734  -0.105   0.216  -0.101  -0.035  -0.676   0.076   0.123   0.007   0.128   0.007
  0.121   2.693  -0.148   0.170   0.035  -0.105  -0.683   0.113  -0.259  -0.037  -0.034   0.047   0.091  -0.031   0.074   0.022
 -0.185  -0.148   3.104  -0.028  -0.024   0.216   0.113  -1.071  -0.020   0.023  -0.506   0.096  -0.122   0.219  -0.100  -0.003
  0.126   0.170  -0.028   2.709   0.034  -0.100  -0.259  -0.020  -0.724  -0.058  -0.280   0.088   0.066   0.024   0.089  -0.004
  0.038   0.035  -0.024   0.034   2.524  -0.035  -0.037   0.023  -0.058  -0.423  -0.069   0.015   0.012  -0.001   0.028  -0.010
 -0.734  -0.105   0.216  -0.100  -0.035   0.648   0.093  -0.242   0.081   0.032   0.661  -0.112  -0.136  -0.015  -0.136   0.008
 -0.105  -0.683   0.113  -0.259  -0.037   0.093   0.651  -0.083   0.334   0.036  -0.024  -0.006  -0.121   0.011  -0.071   0.006
  0.216   0.113  -1.071  -0.020   0.023  -0.242  -0.083   1.021   0.061  -0.022   0.444  -0.084   0.116  -0.254   0.098  -0.004
 -0.101  -0.259  -0.020  -0.724  -0.058   0.081   0.334   0.061   0.713   0.081   0.199  -0.047  -0.064  -0.051  -0.122   0.004
 -0.035  -0.037   0.023  -0.058  -0.423   0.032   0.036  -0.022   0.081   0.312   0.057  -0.011   0.001  -0.001  -0.045   0.000
 -0.676  -0.034  -0.506  -0.280  -0.069   0.661  -0.024   0.444   0.199   0.057   1.660  -0.255  -0.090  -0.250  -0.135   0.008
  0.076   0.047   0.096   0.088   0.015  -0.112  -0.006  -0.084  -0.047  -0.011  -0.255   0.044   0.015   0.043   0.023  -0.001
  0.123   0.091  -0.122   0.066   0.012  -0.136  -0.121   0.116  -0.064   0.001  -0.090   0.015   0.069  -0.028   0.055  -0.004
  0.007  -0.031   0.219   0.024  -0.001  -0.015   0.011  -0.254  -0.051  -0.001  -0.250   0.043  -0.028   0.093  -0.018   0.000
  0.128   0.074  -0.100   0.089   0.028  -0.136  -0.071   0.098  -0.122  -0.045  -0.135   0.023   0.055  -0.018   0.070  -0.003
  0.007   0.022  -0.003  -0.004  -0.010   0.008   0.006  -0.004   0.004   0.000   0.008  -0.001  -0.004   0.000  -0.003   0.001
 -0.006   0.008   0.016   0.008  -0.001   0.005   0.001   0.016   0.006   0.001   0.023  -0.003   0.000  -0.007  -0.001   0.000
  0.001  -0.004  -0.008   0.020   0.013   0.009   0.004  -0.002   0.007   0.002   0.012  -0.002  -0.003  -0.001  -0.004   0.000


------------------------ aborting loop because EDIFF is reached ----------------------------------------


    FORLOC:  cpu time      0.0424: real time      0.0424
    FORNL :  cpu time      0.4656: real time      0.4654
    STRESS:  cpu time     14.9394: real time     14.9313
    FORCOR:  cpu time      5.6437: real time      5.6425
    OFIELD:  cpu time      0.0010: real time      0.0010

  FORCE on cell =-STRESS in cart. coord.  units (eV):
  Direction    XX          YY          ZZ          XY          YZ          ZX
  --------------------------------------------------------------------------------------
  Alpha Z     1.70116     1.70116     1.70116
  Ewald     388.24225   360.15564   906.31566   985.95863  -441.06046  -233.75123
  Hartree  1754.37974  1740.23217  2131.62071   768.74811  -364.61260  -209.48777
  E(xc)    -236.50739  -236.52787  -236.13274     0.74296    -0.33763    -0.18298
  Local   -2782.87180 -2741.86039 -3670.69053 -1747.83234   805.49647   445.41683
  n-local   -48.92185   -48.53693   -50.73163    -0.85015    -0.62698    -1.11929
  augment   373.38995   373.60795   371.73771    -2.00818     0.44548    -0.11886
  Kinetic   550.57658   551.22905   546.16145    -4.71438     0.65306    -0.79511
  Fock        0.00000     0.00000     0.00000     0.00000     0.00000     0.00000
  -------------------------------------------------------------------------------------
  Total      -0.01137     0.00077    -0.01822     0.04465    -0.04266    -0.03841
  in kB      -0.00228     0.00015    -0.00365     0.00894    -0.00854    -0.00769
  external pressure =       -0.00 kB  Pullay stress =        0.00 kB


 VOLUME and BASIS-vectors are now :
 -----------------------------------------------------------------------------
  energy-cutoff  :      520.00
  volume of cell :     8000.00
      direct lattice vectors                 reciprocal lattice vectors
    20.000000000  0.000000000  0.000000000     0.050000000  0.000000000  0.000000000
     0.000000000 20.000000000  0.000000000     0.000000000  0.050000000  0.000000000
     0.000000000  0.000000000 20.000000000     0.000000000  0.000000000  0.050000000

  length of vectors
    20.000000000 20.000000000 20.000000000     0.050000000  0.050000000  0.050000000


 FORCES acting on ions:
    Electron-Ion                     Ewald-Force                    Non-Local-Force
 -----------------------------------------------------------------------------------------------
   -.221E+03 -.147E+03 -.410E+03   0.217E+03 0.145E+03 0.403E+03   0.341E+01 0.228E+01 0.633E+01
   0.221E+03 0.147E+03 0.410E+03   -.218E+03 -.144E+03 -.403E+03   -.342E+01 -.227E+01 -.633E+01
   0.283E+03 0.304E+03 -.261E+03   -.279E+03 -.300E+03 0.258E+03   -.378E+01 -.407E+01 0.349E+01
   -.284E+03 -.303E+03 0.262E+03   0.280E+03 0.299E+03 -.258E+03   0.380E+01 0.405E+01 -.350E+01
 -----------------------------------------------------------------------------------------------
   -.667E-02 0.756E-02 0.107E-02   0.568E-13 0.000E+00 0.000E+00   0.553E-02 -.775E-02 -.147E-02
 
 
 POSITION                                       TOTAL-FORCE (eV/Angst)
 -----------------------------------------------------------------------------------
      0.58519      0.39110      1.08785        -0.002033     -0.003238     -0.002023
     19.41273     19.61113     18.91243         0.002590      0.002319      0.002257
     18.62408     18.52445      1.27098        -0.013183     -0.016213      0.014036
      1.37800      1.47332     18.72874         0.012627      0.017132     -0.014270
 -----------------------------------------------------------------------------------
    total drift:                               -0.001131     -0.000189     -0.000396


--------------------------------------------------------------------------------------------------------



  FREE ENERGIE OF THE ION-ELECTRON SYSTEM (eV)
  ---------------------------------------------------
  free  energy   TOTEN  =       -38.19504012 eV

  energy  without entropy=      -38.19504012  energy(sigma->0) =      -38.19504012
 


--------------------------------------------------------------------------------------------------------


    POTLOK:  cpu time     10.7988: real time     10.7974


--------------------------------------------------------------------------------------------------------


     LOOP+:  cpu time    417.5639: real time    417.6428
    4ORBIT:  cpu time      0.0000: real time      0.0000

 total amount of memory used by VASP MPI-rank0   341463. kBytes
=======================================================================

   base      :      30000. kBytes
   nonlr-proj:       3650. kBytes
   fftplans  :      28721. kBytes
   grid      :     268680. kBytes
   one-center:         62. kBytes
   wavefun   :      10350. kBytes
 
  
  
 General timing and accounting informations for this job:
 ========================================================
  
                  Total CPU time used (sec):      430.681
                            User time (sec):      428.166
                          System time (sec):        2.514
                         Elapsed time (sec):      432.133
  
                   Maximum memory used (kb):     1571900.
                   Average memory used (kb):          N/A
  
                          Minor page faults:        74391
                          Major page faults:            0
                 Voluntary context switches:         6757
