 vasp.6.4.0 14Feb23 (build Jul 14 2023 13:46:40) complex                        
  
 executed on             LinuxIFC date 2023.07.24  03:26:20
 running   64 mpi-ranks, with    1 threads/rank, on    8 nodes
 distrk:  each k-point on   64 cores,    1 groups
 distr:  one band on NCORE=   1 cores,   64 groups


--------------------------------------------------------------------------------------------------------


 INCAR:
   SYSTEM = MgO-rocksalt
   ISMEAR = 0
   SIGMA = 0.05
   EDIFF = 1E-6
   ALGO = ALL
   ISTART = 0
   IBRION = -1
   NSW = 0
   ISYM = 2
   LHFCALC = .TRUE.
   GGA = PE
   IVDW = 11
   VDW_S6 = 1.0
   VDW_SR = 1.287
   VDW_S8 = 0.928
   ENCUT = 520
   PREC = Accurate
   LASPH = .TRUE.
   LREAL = Auto
   ISPIN = 1
   NELM = 200
   NELMIN = 8
   NCORE = 1
   KPAR = 1
   LWAVE = .FALSE.
   LCHARG = .FALSE.

 POTCAR:    PAW_PBE Ag 02Apr2005                  
 -----------------------------------------------------------------------------
|                                                                             |
|           W    W    AA    RRRRR   N    N  II  N    N   GGGG   !!!           |
|           W    W   A  A   R    R  NN   N  II  NN   N  G    G  !!!           |
|           W    W  A    A  R    R  N N  N  II  N N  N  G       !!!           |
|           W WW W  AAAAAA  RRRRR   N  N N  II  N  N N  G  GGG   !            |
|           WW  WW  A    A  R   R   N   NN  II  N   NN  G    G                |
|           W    W  A    A  R    R  N    N  II  N    N   GGGG   !!!           |
|                                                                             |
|     You have selected ISYM=2 for a HF type calculation. This will           |
|     symmetrize the charge density but not the exchange potential. I         |
|     suggest to use ISYM=3 instead. This uses symmetry to obtain the         |
|     orbitals at all k-points in the Brillouin zone, but does not apply      |
|     symmetry to the Hartree potential directly. The resultant charge        |
|     might have lower symmetry than the crystal but, at least, Hartree       |
|     and exchange are fully compatible.                                      |
|                                                                             |
 -----------------------------------------------------------------------------

 POTCAR:    PAW_PBE Ag 02Apr2005                  
   SHA256 =  6550cfa3543261e132c169e1b98a529204624d72be14e2da2e0242bcb74a174d Ag/POTCAR             
   COPYR  = (c) Copyright 02Apr2005 Georg Kresse                                                    
   COPYR  = This file is part of the software VASP. Any use, copying, and all other rights are regul
   COPYR  = If you do not have a valid VASP license, you may not use, copy or distribute this file. 
   VRHFIN =Ag : s1 d10                                                                              
   LEXCH  = PE                                                                                      
   EATOM  =  1037.2675 eV,   76.2370 Ry                                                             
                                                                                                    
   TITEL  = PAW_PBE Ag 02Apr2005                                                                    
   LULTRA =        F    use ultrasoft PP ?                                                          
   IUNSCR =        1    unscreen: 0-lin 1-nonlin 2-no                                               
   RPACOR =    2.000    partial core radius                                                         
   POMASS =  107.868; ZVAL   =   11.000    mass and valenz                                          
   RCORE  =    2.500    outmost cutoff radius                                                       
   RWIGS  =    2.840; RWIGS  =    1.503    wigner-seitz radius (au A)                               
   ENMAX  =  249.844; ENMIN  =  187.383 eV                                                          
   ICORE  =        3    local potential                                                             
   LCOR   =        T    correct aug charges                                                         
   LPAW   =        T    paw PP                                                                      
   EAUG   =  412.496                                                                                
   DEXC   =    0.000                                                                                
   RMAX   =    2.560    core radius for proj-oper                                                   
   RAUG   =    1.300    factor for augmentation sphere                                              
   RDEP   =    2.576    radius for radial grids                                                     
   RDEPT  =    2.072    core radius for aug-charge                                                  
                                                                                                    
   Atomic configuration                                                                             
   12 entries                                                                                       
     n  l   j            E        occ.                                                              
     1  0  0.50    -25324.9161   2.0000                                                             
     2  0  0.50     -3728.5341   2.0000                                                             
     2  1  1.50     -3344.0404   6.0000                                                             
     3  0  0.50      -683.5581   2.0000                                                             
     3  1  1.50      -557.3225   6.0000                                                             
     3  2  2.50      -358.3853  10.0000                                                             
     4  0  0.50       -95.0341   2.0000                                                             
     4  1  1.50       -58.5511   6.0000                                                             
     4  2  2.50        -7.4440  10.0000                                                             
     5  0  0.50        -4.4045   1.0000                                                             
     5  1  0.50        -1.3606   0.0000                                                             
     4  3  2.50        -1.3606   0.0000                                                             
   Description                                                                                      
     l       E           TYP  RCUT    TYP  RCUT                                                     
     2     -7.4439781     23  2.400                                                                 
     2     -8.8045607     23  2.400                                                                 
     0     -4.4044681     23  2.400                                                                 
     0      1.9520038     23  2.400                                                                 
     1     -1.3605826     23  2.500                                                                 
     1     27.2116520     23  2.500                                                                 
     3     -4.0817478     23  2.400                                                                 
  local pseudopotential read in
  partial core-charges read in
  partial kinetic energy density read in
  atomic valenz-charges read in
  non local Contribution for L=           2  read in
    real space projection operators read in
  non local Contribution for L=           2  read in
    real space projection operators read in
  non local Contribution for L=           0  read in
    real space projection operators read in
  non local Contribution for L=           0  read in
    real space projection operators read in
  non local Contribution for L=           1  read in
    real space projection operators read in
  non local Contribution for L=           1  read in
    real space projection operators read in
    PAW grid and wavefunctions read in
 
   number of l-projection  operators is LMAX  =           6
   number of lm-projection operators is LMMAX =          18
 
 -----------------------------------------------------------------------------
|                                                                             |
|               ----> ADVICE to this user running VASP <----                  |
|                                                                             |
|     You have a (more or less) 'small supercell' and for smaller cells       |
|     it is recommended to use the reciprocal-space projection scheme!        |
|     The real-space optimization is not efficient for small cells and it     |
|     is also less accurate ...                                               |
|     Therefore, set LREAL=.FALSE. in the INCAR file.                         |
|                                                                             |
 -----------------------------------------------------------------------------

 Optimization of the real space projectors (new method)

 maximal supplied QI-value         = 15.12
 optimisation between [QCUT,QGAM] = [ 11.64, 23.28] = [ 37.95,151.78] Ry 
 Optimized for a Real-space Cutoff    1.45 Angstroem

   l    n(q)    QCUT    max X(q) W(low)/X(q) W(high)/X(q)  e(spline) 
   2      9    11.641    53.897    0.22E-03    0.42E-04    0.28E-06
   2      9    11.641    52.416    0.23E-03    0.44E-04    0.29E-06
   0     10    11.641   122.045    0.51E-04    0.25E-04    0.16E-06
   0     10    11.641    73.629    0.49E-04    0.24E-04    0.16E-06
   1     10    11.641    15.255    0.99E-04    0.55E-04    0.11E-06
   1     10    11.641     9.562    0.81E-04    0.47E-04    0.95E-07
  PAW_PBE Ag 02Apr2005                  :
 energy of atom  1       EATOM=-1037.2675
 kinetic energy error for atom=    0.0047 (will be added to EATOM!!)
 
 
 POSCAR: Ag
  positions in direct lattice
  velocities in cartesian coordinates
 exchange correlation table for  LEXCH =        8
   RHO(1)=    0.500       N(1)  =     2000
   RHO(2)=  100.500       N(2)  =     4000
 


--------------------------------------------------------------------------------------------------------


 ion  position               nearest neighbor table
   1  0.588  0.521  0.535-   7 2.66   2 2.66   6 2.75   8 2.75
   2  0.596  0.449  0.647-   1 2.66   8 2.66
   3  0.404  0.552  0.353-   6 2.66   5 2.66
   4  0.362  0.392  0.552-   5 2.66   8 2.66
   5  0.412  0.479  0.464-   4 2.66   3 2.66   8 2.75   6 2.75
   6  0.516  0.560  0.425-   7 2.66   3 2.66   1 2.75   5 2.75
   7  0.638  0.608  0.448-   6 2.66   1 2.66
   8  0.484  0.440  0.575-   4 2.66   2 2.66   5 2.75   1 2.75
 
  LATTYP: Found a simple cubic cell.
 ALAT       =    20.0000000000
  
  Lattice vectors:
  
 A1 = (  20.0000000000,   0.0000000000,   0.0000000000)
 A2 = (   0.0000000000,  20.0000000000,   0.0000000000)
 A3 = (   0.0000000000,   0.0000000000,  20.0000000000)


Analysis of symmetry for initial positions (statically):
=====================================================================
 Subroutine PRICEL returns:
 Original cell was already a primitive cell.
 

 Routine SETGRP: Setting up the symmetry group for a 
 simple cubic supercell.


 Subroutine GETGRP returns: Found  1 space group operations
 (whereof  1 operations were pure point group operations)
 out of a pool of 48 trial point group operations.


The static configuration has the point symmetry C_1 .


Analysis of symmetry for dynamics (positions and initial velocities):
=====================================================================
 Subroutine PRICEL returns:
 Original cell was already a primitive cell.
 

 Routine SETGRP: Setting up the symmetry group for a 
 simple cubic supercell.


 Subroutine GETGRP returns: Found  1 space group operations
 (whereof  1 operations were pure point group operations)
 out of a pool of 48 trial point group operations.


The dynamic configuration has the point symmetry C_1 .


 Subroutine INISYM returns: Found  1 space group operations
 (whereof  1 operations are pure point group operations),
 and found     1 'primitive' translations


----------------------------------------------------------------------------------------

                                     Primitive cell                                     

  volume of cell :    8000.0000

  direct lattice vectors                    reciprocal lattice vectors
    20.000000000  0.000000000  0.000000000     0.050000000  0.000000000  0.000000000
     0.000000000 20.000000000  0.000000000     0.000000000  0.050000000  0.000000000
     0.000000000  0.000000000 20.000000000     0.000000000  0.000000000  0.050000000

  length of vectors
    20.000000000 20.000000000 20.000000000     0.050000000  0.050000000  0.050000000

  position of ions in fractional coordinates (direct lattice)
     0.587874898  0.521396625  0.535307139
     0.595841417  0.448902079  0.646532802
     0.403713760  0.551964670  0.353475111
     0.362298954  0.392011629  0.551856992
     0.412026852  0.478744150  0.464230026
     0.515639690  0.560375333  0.424863905
     0.637714130  0.607956760  0.447532726
     0.484207769  0.439914871  0.574757932

  ion indices of the primitive-cell ions
   primitive index   ion index
                 1           1
                 2           2
                 3           3
                 4           4
                 5           5
                 6           6
                 7           7
                 8           8

----------------------------------------------------------------------------------------

 
 
 KPOINTS: KPOINTS created by Atomic Simulation Env

Automatic generation of k-mesh.
 Grid dimensions read from file:
 generate k-points for:    1    1    1

 Generating k-lattice:

  Cartesian coordinates                     Fractional coordinates (reciprocal lattice)
     0.050000000  0.000000000  0.000000000     1.000000000  0.000000000  0.000000000
     0.000000000  0.050000000  0.000000000     0.000000000  1.000000000  0.000000000
     0.000000000  0.000000000  0.050000000     0.000000000  0.000000000  1.000000000

  Length of vectors
     0.050000000  0.050000000  0.050000000

  Shift w.r.t. Gamma in fractional coordinates (k-lattice)
     0.000000000  0.000000000  0.000000000

 
 Subroutine IBZKPT returns following result:
 ===========================================
 
 Found      1 irreducible k-points:
 
 Following reciprocal coordinates:
            Coordinates               Weight
  0.000000  0.000000  0.000000      1.000000
 
 Following cartesian coordinates:
            Coordinates               Weight
  0.000000  0.000000  0.000000      1.000000
 
 
 Subroutine IBZKPT_HF returns following result:
 ==============================================
 
 Found      1 k-points in 1st BZ
 the following      1 k-points will be used (e.g. in the exchange kernel)
 Following reciprocal coordinates:   # in IRBZ
  0.000000  0.000000  0.000000    1.00000000   1 t-inv F


--------------------------------------------------------------------------------------------------------




 Dimension of arrays:
   k-points           NKPTS =      1   k-points in BZ     NKDIM =      1   number of bands    NBANDS=     64
   number of dos      NEDOS =    301   number of ions     NIONS =      8
   non local maximal  LDIM  =      6   non local SUM 2l+1 LMDIM =     18
   total plane-waves  NPLWV = ******
   max r-space proj   IRMAX =   5390   max aug-charges    IRDMAX=  20940
   dimension x,y,z NGX =   150 NGY =  150 NGZ =  150
   dimension x,y,z NGXF=   300 NGYF=  300 NGZF=  300
   support grid    NGXF=   300 NGYF=  300 NGZF=  300
   ions per type =               8
   NGX,Y,Z   is equivalent  to a cutoff of  12.47, 12.47, 12.47 a.u.
   NGXF,Y,Z  is equivalent  to a cutoff of  24.94, 24.94, 24.94 a.u.

 SYSTEM =  MgO-rocksalt                            
 POSCAR =  Ag                                      

 Startparameter for this run:
   NWRITE =      2    write-flag & timer
   PREC   = accura    normal or accurate (medium, high low for compatibility)
   ISTART =      0    job   : 0-new  1-cont  2-samecut
   ICHARG =      2    charge: 1-file 2-atom 10-const
   ISPIN  =      1    spin polarized calculation?
   LNONCOLLINEAR =      F non collinear calculations
   LSORBIT =      F    spin-orbit coupling
   INIWAV =      1    electr: 0-lowe 1-rand  2-diag
   LASPH  =      T    aspherical Exc in radial PAW
 Electronic Relaxation 1
   ENCUT  =  520.0 eV  38.22 Ry    6.18 a.u.  37.19 37.19 37.19*2*pi/ulx,y,z
   ENINI  =  520.0     initial cutoff
   ENAUG  =  412.5 eV  augmentation charge cutoff
   NELM   =    200;   NELMIN=  8; NELMDL= -5     # of ELM steps 
   EDIFF  = 0.1E-05   stopping-criterion for ELM
   LREAL  =      T    real-space projection
   NLSPLINE    = F    spline interpolate recip. space projectors
   LCOMPAT=      F    compatible to vasp.4.4
   GGA_COMPAT  = T    GGA compatible to vasp.4.4-vasp.4.6
   LMAXPAW     = -100 max onsite density
   LMAXMIX     =    2 max onsite mixed and CHGCAR
   VOSKOWN=      0    Vosko Wilk Nusair interpolation
   ROPT   =   -0.00025
 Ionic relaxation
   EDIFFG = 0.1E-04   stopping-criterion for IOM
   NSW    =      0    number of steps for IOM
   NBLOCK =      1;   KBLOCK =      1    inner block; outer block 
   IBRION =     -1    ionic relax: 0-MD 1-quasi-New 2-CG
   NFREE  =      0    steps in history (QN), initial steepest desc. (CG)
   ISIF   =      0    stress and relaxation
   IWAVPR =     10    prediction:  0-non 1-charg 2-wave 3-comb
   ISYM   =      2    0-nonsym 1-usesym 2-fastsym
   LCORR  =      T    Harris-Foulkes like correction to forces

   POTIM  = 0.5000    time-step for ionic-motion
   TEIN   =    0.0    initial temperature
   TEBEG  =    0.0;   TEEND  =   0.0 temperature during run
   SMASS  =  -3.00    Nose mass-parameter (am)
   estimated Nose-frequenzy (Omega)   =  0.10E-29 period in steps = 0.13E+47 mass=  -0.914E-26a.u.
   SCALEE = 1.0000    scale energy and forces
   NPACO  =    256;   APACO  = 10.0  distance and # of slots for P.C.
   PSTRESS=    0.0 pullay stress

  Mass of Ions in am
   POMASS = 107.87
  Ionic Valenz
   ZVAL   =  11.00
  Atomic Wigner-Seitz radii
   RWIGS  =  -1.00
  virtual crystal weights 
   VCA    =   1.00
   NELECT =      88.0000    total number of electrons
   NUPDOWN=      -1.0000    fix difference up-down

 DOS related values:
   EMIN   =  10.00;   EMAX   =-10.00  energy-range for DOS
   EFERMI =   0.00;   METHOD = LEGACY      
   ISMEAR =     0;   SIGMA  =   0.05  broadening in eV -4-tet -1-fermi 0-gaus

 Electronic relaxation 2 (details)
   IALGO  =     58    algorithm
   LDIAG  =      T    sub-space diagonalisation (order eigenvalues)
   LSUBROT=      F    optimize rotation matrix (better conditioning)
   TURBO    =      0    0=normal 1=particle mesh
   IRESTART =      0    0=no restart 2=restart with 2 vectors
   NREBOOT  =      0    no. of reboots
   NMIN     =      0    reboot dimension
   EREF     =   0.00    reference energy to select bands
   IMIX   =      4    mixing-type and parameters
     AMIX     =   0.40;   BMIX     =  1.00
     AMIX_MAG =   1.60;   BMIX_MAG =  1.00
     AMIN     =   0.10
     WC   =   100.;   INIMIX=   1;  MIXPRE=   1;  MAXMIX= -45

 Intra band minimization:
   WEIMIN = 0.0000     energy-eigenvalue tresh-hold
   EBREAK =  0.39E-08  absolut break condition
   DEPER  =   0.30     relativ break condition  

   TIME   =   0.40     timestep for ELM

  volume/ion in A,a.u.               =    1000.00      6748.33
  Fermi-wavevector in a.u.,A,eV,Ry     =   0.364087  0.688026  1.803584  0.132560
  Thomas-Fermi vector in A             =   1.286639
 
 Write flags
   LWAVE        =      F    write WAVECAR
   LDOWNSAMPLE  =      F    k-point downsampling of WAVECAR
   LCHARG       =      F    write CHGCAR
   LVTOT        =      F    write LOCPOT, total local potential
   LVHAR        =      F    write LOCPOT, Hartree potential only
   LELF         =      F    write electronic localiz. function (ELF)
   LORBIT       =      0    0 simple, 1 ext, 2 COOP (PROOUT), +10 PAW based schemes


 Dipole corrections
   LMONO  =      F    monopole corrections only (constant potential shift)
   LDIPOL =      F    correct potential (dipole corrections)
   IDIPOL =      0    1-x, 2-y, 3-z, 4-all directions 
   EPSILON=  1.0000000 bulk dielectric constant

 Exchange correlation treatment:
   GGA     =    PE    GGA type
   LEXCH   =     8    internal setting for exchange type
   LIBXC   =     F    Libxc                    
   VOSKOWN =     0    Vosko Wilk Nusair interpolation
   EXXOEP  =     0    0=HF, 1=EXX-LHF (local Hartree Fock) 2=EXX OEP
   LHFCALC =     T    Hartree Fock is set to
   LSYMGRAD=     F    symmetrize gradient (conserves proper symmetry)
   PRECFOCK=normal    Normal, Fast or Accurate (Low or Medium for compatibility)
   LRHFCALC=     F    long range Hartree Fock
   LRSCOR  =     F    long range correlation only (use DFT for short range part)
   LTHOMAS =     F    Thomas Fermi screening in HF
   LMODELHF=     F    short range full HF, long range fraction AEXX
   FOCKCORR=     1    mode to apply convergence corrections
   LFOCKACE=     T    use Adeptively-Compressed-Exchange operator
   ENCUT4O =  -1.0   cutoff for four orbital integrals eV
   LMAXFOCK=     4    L truncation for augmentation on plane wave grid
   LMAXFOCKAE=  -1    L truncation for all-electron charge restoration on plane wave grid
   NMAXFOCKAE=   1    number of basis functions for all-electron charge restoration
   LFOCKAEDFT=     F  apply the AE augmentation even for DFT
   NKREDX  =     1    reduce k-point grid by
   NKREDY  =     1    reduce k-point grid by
   NKREDZ  =     1    reduce k-point grid by
   SHIFTRED=     F    shift reduced grid of Gamma
   HFKIDENT=     F    idential grid for each k-point
   ODDONLY =     F    use only odd q-grid points
   EVENONLY=     F    use only even q-grid points
   HFALPHA =   -1.0000 decay constant for conv. correction
   MCALPHA =    0.0000 extent of test-charge in conv. correction in multipole expansion
   AEXX    =    0.2500 exact exchange contribution
   HFSCREEN=    0.0000 screening length (either q_TF or 0.3 A-1)
   HFSCREENC=   0.0000 screening length for correlation (either q_TF or 0.3 A-1)
   HFRCUT  =    0.0000 spherical cutoff for potential kernel
   ALDAX   =    0.7500 LDA exchange part
   AGGAX   =    0.7500 GGA exchange part
   ALDAC   =    1.0000 LDA correlation
   AGGAC   =    1.0000 GGA correlation
   ENCUTFOCK=  -1.0 apply spherical cutoff to Coloumb kernel
   NBANDSGWLOW=     1    first orbital included in HF term
   NBLOCK_FOCK=    64    blocking factor in FOCK_ACC

 Linear response parameters
   LEPSILON=     F    determine dielectric tensor
   LRPA    =     F    only Hartree local field effects (RPA)
   LNABLA  =     F    use nabla operator in PAW spheres
   LVEL    =     F    velocity operator in full k-point grid
   CSHIFT  =0.1000    complex shift for real part using Kramers Kronig
   OMEGAMAX=  -1.0    maximum frequency
   DEG_THRESHOLD= 0.2000000E-02 threshold for treating states as degnerate
   RTIME   =   -0.100 relaxation time in fs
  (WPLASMAI=    0.000 imaginary part of plasma frequency in eV, 0.658/RTIME)
   DFIELD  = 0.0000000 0.0000000 0.0000000 field for delta impulse in time
 
  Optional k-point grid parameters
   LKPOINTS_OPT  =     F    use optional k-point grid
   KPOINTS_OPT_MODE=     1    mode for optional k-point grid
 
 Orbital magnetization related:
   ORBITALMAG=     F  switch on orbital magnetization
   LCHIMAG   =     F  perturbation theory with respect to B field
   DQ        =  0.001000  dq finite difference perturbation B field
   LLRAUG    =     F  two centre corrections for induced B field
   LBONE     =     F  B-component reconstruction in AE one-centre
   LVGVCALC  =     T  calculate vGv susceptibility
   LVGVAPPL  =     F  apply vGv susceptibility instead of pGv for G=0

 Random number generation:
   RANDOM_GENERATOR = DEFAULT
   PCG_SEED         = not used


--------------------------------------------------------------------------------------------------------


 Static calculation
 charge density and potential will be updated during run
 non-spin polarized calculation
 Conjugate gradient for all bands (Freysoldt, et al. PRB 79, 241103 (2009))
 preconditioned conjugated gradient                                        
 perform sub-space diagonalisation
    before iterative eigenvector-optimisation
 modified Broyden-mixing scheme, WC =      100.0
 initial mixing is a Kerker type mixing with AMIX =  0.4000 and BMIX =      1.0000
 Hartree-type preconditioning will be used
 using additional bands           20
 real space projection scheme for non local part
 use partial core corrections
 no Harris-corrections to forces 
 use gradient corrections 
 use of overlap-Matrix (Vanderbilt PP)
 Gauss-broadening in eV      SIGMA  =   0.05


--------------------------------------------------------------------------------------------------------


  energy-cutoff  :      520.00
  volume of cell :     8000.00
      direct lattice vectors                 reciprocal lattice vectors
    20.000000000  0.000000000  0.000000000     0.050000000  0.000000000  0.000000000
     0.000000000 20.000000000  0.000000000     0.000000000  0.050000000  0.000000000
     0.000000000  0.000000000 20.000000000     0.000000000  0.000000000  0.050000000

  length of vectors
    20.000000000 20.000000000 20.000000000     0.050000000  0.050000000  0.050000000


 
 k-points in units of 2pi/SCALE and weight: KPOINTS created by Atomic Simulation Env
   0.00000000  0.00000000  0.00000000       1.000
 
 k-points in reciprocal lattice and weights: KPOINTS created by Atomic Simulation Env
   0.00000000  0.00000000  0.00000000       1.000
 
 position of ions in fractional coordinates (direct lattice) 
   0.58787490  0.52139663  0.53530714
   0.59584142  0.44890208  0.64653280
   0.40371376  0.55196467  0.35347511
   0.36229895  0.39201163  0.55185699
   0.41202685  0.47874415  0.46423003
   0.51563969  0.56037533  0.42486391
   0.63771413  0.60795676  0.44753273
   0.48420777  0.43991487  0.57475793
 
 position of ions in cartesian coordinates  (Angst):
  11.75749795 10.42793250 10.70614277
  11.91682835  8.97804158 12.93065603
   8.07427520 11.03929339  7.06950223
   7.24597907  7.84023259 11.03713983
   8.24053703  9.57488299  9.28460052
  10.31279381 11.20750665  8.49727811
  12.75428260 12.15913519  8.95065451
   9.68415539  8.79829742 11.49515865
 


--------------------------------------------------------------------------------------------------------


 k-point   1 :   0.0000 0.0000 0.0000  plane waves:  215503

 maximum and minimum number of plane-waves per node :    215503   215503

 maximum number of plane-waves:    215503
 maximum index in each direction: 
   IXMAX=   37   IYMAX=   37   IZMAX=   37
   IXMIN=  -37   IYMIN=  -37   IZMIN=  -37


 serial   3D FFT for wavefunctions
 parallel 3D FFT for charge:
    minimum data exchange during FFTs selected (reduces bandwidth)


 FFT grid for exact exchange (Hartree Fock) 
  NGX =112; NGY =112; NGZ =112

 
 Radii for the augmentation spheres in the non-local exchange
 for species   1 augmentation radius   1.406 (default was   1.125)
       energy cutoff for augmentation   2080.0
 Maximum index for augmentation-charges in exchange         2050
  SETUP_FOCK is finished

 total amount of memory used by VASP MPI-rank0   237502. kBytes
=======================================================================

   base      :      30000. kBytes
   nonlr-proj:      11184. kBytes
   fftplans  :      28721. kBytes
   grid      :     157056. kBytes
   one-center:        124. kBytes
   HF        :         64. kBytes
   wavefun   :      10353. kBytes
 
     INWAV:  cpu time      0.0005: real time      0.0005
 Broyden mixing: mesh for mixing (old mesh)
   NGX = 75   NGY = 75   NGZ = 75
  (NGX  =300   NGY  =300   NGZ  =300)
  gives a total of 421875 points

 initial charge density was supplied:
 charge density of overlapping atoms calculated
 number of electron      88.0000000 magnetization 
 keeping initial charge density in first step


--------------------------------------------------------------------------------------------------------


 Maximum index for non-local projection operator         5192
 Maximum index for augmentation-charges          896 (set IRDMAX)


--------------------------------------------------------------------------------------------------------


    FEWALD:  cpu time      0.0081: real time      0.0081


--------------------------------------- Ionic step        1  -------------------------------------------




--------------------------------------- Iteration      1(   1)  ---------------------------------------


    POTLOK:  cpu time      0.9584: real time      0.9663
    SETDIJ:  cpu time      0.7717: real time      0.7726
    TRIAL :  cpu time      1.3892: real time      1.4460
    CORREC:  cpu time      0.0015: real time      0.0015
    --------------------------------------------
      LOOP:  cpu time      3.1291: real time      3.1953

 eigenvalue-minimisations  :   128
 total energy-change (2. order) :-0.6812557E+04  (-0.1710174E+04)
 number of electron      88.0000000 magnetization 
 augmentation part       88.0000000 magnetization 

 Free energy of the ion-electron system (eV)
  ---------------------------------------------------
  alpha Z        PSCENC =         6.80462455
  Ewald energy   TEWEN  =      5502.46304071
  -Hartree energ DENC   =    -13432.00567167
  -exchange      EXHF   =         0.00000000
  -V(xc)+E(xc)   XCENC  =       -91.94089005
  PAW double counting   =      8027.69719461   -15153.05434082
  entropy T*S    EENTRO =        -0.04844456
  eigenvalues    EBANDS =        39.96180674
  atomic energy  EATOM  =      8287.56614759
  ---------------------------------------------------
  free energy    TOTEN  =     -6812.55653289 eV

  energy without entropy =    -6812.50808833  energy(sigma->0) =    -6812.53231061
  exchange ACFDT corr.  =         0.00000000  see jH, gK, PRB 81, 115126


--------------------------------------------------------------------------------------------------------




--------------------------------------- Iteration      1(   2)  ---------------------------------------


    TRIAL :  cpu time      2.5175: real time      2.5219
    CORREC:  cpu time      0.0004: real time      0.0004
    --------------------------------------------
      LOOP:  cpu time      2.5206: real time      2.5281

 eigenvalue-minimisations  :   256
 total energy-change (2. order) :-0.8650873E+03  (-0.8646864E+03)
 number of electron      88.0000000 magnetization 
 augmentation part       88.0000000 magnetization 

 Free energy of the ion-electron system (eV)
  ---------------------------------------------------
  alpha Z        PSCENC =         6.80462455
  Ewald energy   TEWEN  =      5502.46304071
  -Hartree energ DENC   =    -13432.00567167
  -exchange      EXHF   =         0.00000000
  -V(xc)+E(xc)   XCENC  =       -91.94089005
  PAW double counting   =      8027.69719461   -15153.05434082
  entropy T*S    EENTRO =        -0.00000000
  eigenvalues    EBANDS =      -825.17390287
  atomic energy  EATOM  =      8287.56614759
  ---------------------------------------------------
  free energy    TOTEN  =     -7677.64379794 eV

  energy without entropy =    -7677.64379794  energy(sigma->0) =    -7677.64379794
  exchange ACFDT corr.  =         0.00000000  see jH, gK, PRB 81, 115126


--------------------------------------------------------------------------------------------------------




--------------------------------------- Iteration      1(   3)  ---------------------------------------


    TRIAL :  cpu time      1.2890: real time      1.2905
    CORREC:  cpu time      0.0004: real time      0.0004
    --------------------------------------------
      LOOP:  cpu time      1.2913: real time      1.2962

 eigenvalue-minimisations  :   128
 total energy-change (2. order) :-0.1082302E+03  (-0.1082299E+03)
 number of electron      88.0000000 magnetization 
 augmentation part       88.0000000 magnetization 

 Free energy of the ion-electron system (eV)
  ---------------------------------------------------
  alpha Z        PSCENC =         6.80462455
  Ewald energy   TEWEN  =      5502.46304071
  -Hartree energ DENC   =    -13432.00567167
  -exchange      EXHF   =         0.00000000
  -V(xc)+E(xc)   XCENC  =       -91.94089005
  PAW double counting   =      8027.69719461   -15153.05434082
  entropy T*S    EENTRO =        -0.00000000
  eigenvalues    EBANDS =      -933.40408695
  atomic energy  EATOM  =      8287.56614759
  ---------------------------------------------------
  free energy    TOTEN  =     -7785.87398202 eV

  energy without entropy =    -7785.87398202  energy(sigma->0) =    -7785.87398202
  exchange ACFDT corr.  =         0.00000000  see jH, gK, PRB 81, 115126


--------------------------------------------------------------------------------------------------------




--------------------------------------- Iteration      1(   4)  ---------------------------------------


    TRIAL :  cpu time      1.8271: real time      1.8286
    CORREC:  cpu time      0.0006: real time      0.0006
    --------------------------------------------
      LOOP:  cpu time      1.8298: real time      1.8344

 eigenvalue-minimisations  :   192
 total energy-change (2. order) :-0.9135670E+00  (-0.9135660E+00)
 number of electron      88.0000000 magnetization 
 augmentation part       88.0000000 magnetization 

 Free energy of the ion-electron system (eV)
  ---------------------------------------------------
  alpha Z        PSCENC =         6.80462455
  Ewald energy   TEWEN  =      5502.46304071
  -Hartree energ DENC   =    -13432.00567167
  -exchange      EXHF   =         0.00000000
  -V(xc)+E(xc)   XCENC  =       -91.94089005
  PAW double counting   =      8027.69719461   -15153.05434082
  entropy T*S    EENTRO =        -0.00000000
  eigenvalues    EBANDS =      -934.31765398
  atomic energy  EATOM  =      8287.56614759
  ---------------------------------------------------
  free energy    TOTEN  =     -7786.78754905 eV

  energy without entropy =    -7786.78754905  energy(sigma->0) =    -7786.78754905
  exchange ACFDT corr.  =         0.00000000  see jH, gK, PRB 81, 115126


--------------------------------------------------------------------------------------------------------




--------------------------------------- Iteration      1(   5)  ---------------------------------------


    POTLOK:  cpu time      0.8726: real time      0.8733
    SETDIJ:  cpu time      0.7672: real time      0.7680
    TRIAL :  cpu time     18.0782: real time     18.1914
    CORREC:  cpu time      0.0005: real time      0.0005
    CHARGE:  cpu time      0.4528: real time      0.4534
    --------------------------------------------
      LOOP:  cpu time     20.1737: real time     20.2924

 eigenvalue-minimisations  :   128
 total energy-change (2. order) : 0.7770798E+04  (-0.6685452E+01)
 number of electron      88.0000014 magnetization 
 augmentation part       43.1834065 magnetization 

 Free energy of the ion-electron system (eV)
  ---------------------------------------------------
  alpha Z        PSCENC =         6.80462455
  Ewald energy   TEWEN  =      5502.46304071
  -Hartree energ DENC   =    -13432.00567167
  -exchange      EXHF   =       227.08111667
  -V(xc)+E(xc)   XCENC  =       -70.93589166
  PAW double counting   =      8005.55180102    -7692.74509373
  entropy T*S    EENTRO =        -0.00000000
  eigenvalues    EBANDS =      -849.76946798
  atomic energy  EATOM  =      8287.56614759
  ---------------------------------------------------
  free energy    TOTEN  =       -15.98939449 eV

  energy without entropy =      -15.98939449  energy(sigma->0) =      -15.98939449
  exchange ACFDT corr.  =        -0.00000000  see jH, gK, PRB 81, 115126


--------------------------------------------------------------------------------------------------------




--------------------------------------- Iteration      1(   6)  ---------------------------------------


    POTLOK:  cpu time      0.9192: real time      0.9200
    SETDIJ:  cpu time      0.7724: real time      0.7731
    TRIAL :  cpu time     16.8937: real time     16.9649
    CORREC:  cpu time     18.5406: real time     18.6778
    CHARGE:  cpu time      0.5195: real time      0.5390
    --------------------------------------------
      LOOP:  cpu time     37.6477: real time     37.8809

 eigenvalue-minimisations  :     0
 total energy-change (2. order) : 0.2102427E+01  (-0.1766930E+01)
 number of electron      88.0000014 magnetization 
 augmentation part       42.5674953 magnetization 

 Free energy of the ion-electron system (eV)
  ---------------------------------------------------
  alpha Z        PSCENC =         6.80462455
  Ewald energy   TEWEN  =      5502.46304071
  -Hartree energ DENC   =    -13678.80348145
  -exchange      EXHF   =       219.09502974
  -V(xc)+E(xc)   XCENC  =       -68.63241260
  PAW double counting   =      9534.52660219    -9232.70115134
  entropy T*S    EENTRO =        -0.00000000
  eigenvalues    EBANDS =      -584.20536674
  atomic energy  EATOM  =      8287.56614759
  ---------------------------------------------------
  free energy    TOTEN  =       -13.88696735 eV

  energy without entropy =      -13.88696735  energy(sigma->0) =      -13.88696735
  exchange ACFDT corr.  =        -0.00000000  see jH, gK, PRB 81, 115126


--------------------------------------------------------------------------------------------------------




--------------------------------------- Iteration      1(   7)  ---------------------------------------


    POTLOK:  cpu time      0.9681: real time      0.9689
    SETDIJ:  cpu time      0.7714: real time      0.7723
    TRIAL :  cpu time     16.5363: real time     16.5517
    CORREC:  cpu time     18.5461: real time     18.6849
    CHARGE:  cpu time      0.5232: real time      0.5485
    --------------------------------------------
      LOOP:  cpu time     37.3564: real time     37.5377

 eigenvalue-minimisations  :     0
 total energy-change (2. order) :-0.1779664E+01  (-0.2742776E+00)
 number of electron      88.0000014 magnetization 
 augmentation part       42.7767716 magnetization 

 Free energy of the ion-electron system (eV)
  ---------------------------------------------------
  alpha Z        PSCENC =         6.80462455
  Ewald energy   TEWEN  =      5502.46304071
  -Hartree energ DENC   =    -13510.94245619
  -exchange      EXHF   =       216.47531631
  -V(xc)+E(xc)   XCENC  =       -70.95940010
  PAW double counting   =      9430.27400983    -9127.00574724
  entropy T*S    EENTRO =        -0.00000000
  eigenvalues    EBANDS =      -750.34216639
  atomic energy  EATOM  =      8287.56614759
  ---------------------------------------------------
  free energy    TOTEN  =       -15.66663093 eV

  energy without entropy =      -15.66663093  energy(sigma->0) =      -15.66663093
  exchange ACFDT corr.  =        -0.00000000  see jH, gK, PRB 81, 115126


--------------------------------------------------------------------------------------------------------




--------------------------------------- Iteration      1(   8)  ---------------------------------------


    POTLOK:  cpu time      0.9785: real time      0.9794
    SETDIJ:  cpu time      0.7699: real time      0.7708
    TRIAL :  cpu time     16.6077: real time     16.6228
    CORREC:  cpu time     18.6260: real time     18.7793
    CHARGE:  cpu time      0.5072: real time      0.5084
    --------------------------------------------
      LOOP:  cpu time     37.4919: real time     37.6669

 eigenvalue-minimisations  :     0
 total energy-change (2. order) :-0.2739643E+00  (-0.1122504E+00)
 number of electron      88.0000014 magnetization 
 augmentation part       42.6961461 magnetization 

 Free energy of the ion-electron system (eV)
  ---------------------------------------------------
  alpha Z        PSCENC =         6.80462455
  Ewald energy   TEWEN  =      5502.46304071
  -Hartree energ DENC   =    -13513.73262261
  -exchange      EXHF   =       217.05348341
  -V(xc)+E(xc)   XCENC  =       -70.47708167
  PAW double counting   =      9431.66494446    -9128.35724228
  entropy T*S    EENTRO =        -0.00000000
  eigenvalues    EBANDS =      -748.92588944
  atomic energy  EATOM  =      8287.56614759
  ---------------------------------------------------
  free energy    TOTEN  =       -15.94059528 eV

  energy without entropy =      -15.94059528  energy(sigma->0) =      -15.94059528
  exchange ACFDT corr.  =        -0.00000000  see jH, gK, PRB 81, 115126


--------------------------------------------------------------------------------------------------------




--------------------------------------- Iteration      1(   9)  ---------------------------------------


    POTLOK:  cpu time      0.9687: real time      0.9696
    SETDIJ:  cpu time      0.7703: real time      0.7710
    TRIAL :  cpu time     16.5974: real time     16.6128
    CORREC:  cpu time     18.4688: real time     18.6378
    CHARGE:  cpu time      0.5305: real time      0.5237
    --------------------------------------------
      LOOP:  cpu time     37.3423: real time     37.5219

 eigenvalue-minimisations  :     0
 total energy-change (2. order) :-0.1115194E+00  (-0.3215782E-01)
 number of electron      88.0000014 magnetization 
 augmentation part       42.7261192 magnetization 

 Free energy of the ion-electron system (eV)
  ---------------------------------------------------
  alpha Z        PSCENC =         6.80462455
  Ewald energy   TEWEN  =      5502.46304071
  -Hartree energ DENC   =    -13498.90549762
  -exchange      EXHF   =       216.74834996
  -V(xc)+E(xc)   XCENC  =       -70.72511005
  PAW double counting   =      9429.31788803    -9125.93436026
  entropy T*S    EENTRO =        -0.00000000
  eigenvalues    EBANDS =      -763.38719762
  atomic energy  EATOM  =      8287.56614759
  ---------------------------------------------------
  free energy    TOTEN  =       -16.05211470 eV

  energy without entropy =      -16.05211470  energy(sigma->0) =      -16.05211470
  exchange ACFDT corr.  =        -0.00000000  see jH, gK, PRB 81, 115126


--------------------------------------------------------------------------------------------------------




--------------------------------------- Iteration      1(  10)  ---------------------------------------


    POTLOK:  cpu time      0.9715: real time      0.9731
    SETDIJ:  cpu time      0.7594: real time      0.7595
    TRIAL :  cpu time     16.7173: real time     16.7337
    CORREC:  cpu time     18.5871: real time     18.7628
    CHARGE:  cpu time      0.5232: real time      0.5360
    --------------------------------------------
      LOOP:  cpu time     37.5609: real time     37.7712

 eigenvalue-minimisations  :     0
 total energy-change (2. order) :-0.3199164E-01  (-0.6650508E-02)
 number of electron      88.0000014 magnetization 
 augmentation part       42.7273389 magnetization 

 Free energy of the ion-electron system (eV)
  ---------------------------------------------------
  alpha Z        PSCENC =         6.80462455
  Ewald energy   TEWEN  =      5502.46304071
  -Hartree energ DENC   =    -13493.74644225
  -exchange      EXHF   =       216.77734186
  -V(xc)+E(xc)   XCENC  =       -70.72163009
  PAW double counting   =      9441.51204171    -9138.03431768
  entropy T*S    EENTRO =        -0.00000000
  eigenvalues    EBANDS =      -768.70491274
  atomic energy  EATOM  =      8287.56614759
  ---------------------------------------------------
  free energy    TOTEN  =       -16.08410634 eV

  energy without entropy =      -16.08410634  energy(sigma->0) =      -16.08410634
  exchange ACFDT corr.  =        -0.00000000  see jH, gK, PRB 81, 115126


--------------------------------------------------------------------------------------------------------




--------------------------------------- Iteration      1(  11)  ---------------------------------------


    POTLOK:  cpu time      0.9251: real time      0.9260
    SETDIJ:  cpu time      0.7694: real time      0.7703
    TRIAL :  cpu time     16.5794: real time     16.5959
    CORREC:  cpu time     18.5587: real time     18.7337
    CHARGE:  cpu time      0.4957: real time      0.4810
    --------------------------------------------
      LOOP:  cpu time     37.3320: real time     37.5145

 eigenvalue-minimisations  :     0
 total energy-change (2. order) :-0.6656612E-02  (-0.1343846E-02)
 number of electron      88.0000014 magnetization 
 augmentation part       42.7255504 magnetization 

 Free energy of the ion-electron system (eV)
  ---------------------------------------------------
  alpha Z        PSCENC =         6.80462455
  Ewald energy   TEWEN  =      5502.46304071
  -Hartree energ DENC   =    -13492.58133491
  -exchange      EXHF   =       216.75186586
  -V(xc)+E(xc)   XCENC  =       -70.75027188
  PAW double counting   =      9445.30053108    -9141.77910833
  entropy T*S    EENTRO =        -0.00000000
  eigenvalues    EBANDS =      -769.86625762
  atomic energy  EATOM  =      8287.56614759
  ---------------------------------------------------
  free energy    TOTEN  =       -16.09076295 eV

  energy without entropy =      -16.09076295  energy(sigma->0) =      -16.09076295
  exchange ACFDT corr.  =        -0.00000000  see jH, gK, PRB 81, 115126


--------------------------------------------------------------------------------------------------------




--------------------------------------- Iteration      1(  12)  ---------------------------------------


    POTLOK:  cpu time      0.9075: real time      0.9083
    SETDIJ:  cpu time      0.7619: real time      0.7628
    TRIAL :  cpu time     16.6140: real time     16.6297
    CORREC:  cpu time     18.7325: real time     18.8888
    CHARGE:  cpu time      0.4926: real time      0.4912
    --------------------------------------------
      LOOP:  cpu time     37.5151: real time     37.6876

 eigenvalue-minimisations  :     0
 total energy-change (2. order) :-0.1344486E-02  (-0.5628717E-03)
 number of electron      88.0000014 magnetization 
 augmentation part       42.7249192 magnetization 

 Free energy of the ion-electron system (eV)
  ---------------------------------------------------
  alpha Z        PSCENC =         6.80462455
  Ewald energy   TEWEN  =      5502.46304071
  -Hartree energ DENC   =    -13492.00048765
  -exchange      EXHF   =       216.74328692
  -V(xc)+E(xc)   XCENC  =       -70.75659100
  PAW double counting   =      9444.91646313    -9141.39321753
  entropy T*S    EENTRO =        -0.00000000
  eigenvalues    EBANDS =      -770.43537417
  atomic energy  EATOM  =      8287.56614759
  ---------------------------------------------------
  free energy    TOTEN  =       -16.09210744 eV

  energy without entropy =      -16.09210744  energy(sigma->0) =      -16.09210744
  exchange ACFDT corr.  =        -0.00000000  see jH, gK, PRB 81, 115126


--------------------------------------------------------------------------------------------------------




--------------------------------------- Iteration      1(  13)  ---------------------------------------


    POTLOK:  cpu time      0.9066: real time      0.9073
    SETDIJ:  cpu time      0.7604: real time      0.7613
    TRIAL :  cpu time     16.7105: real time     16.7262
    CORREC:  cpu time     18.4337: real time     18.5408
    CHARGE:  cpu time      0.6260: real time      0.6941
    --------------------------------------------
      LOOP:  cpu time     37.4405: real time     37.6370

 eigenvalue-minimisations  :     0
 total energy-change (2. order) :-0.5628425E-03  (-0.2192425E-03)
 number of electron      88.0000014 magnetization 
 augmentation part       42.7242516 magnetization 

 Free energy of the ion-electron system (eV)
  ---------------------------------------------------
  alpha Z        PSCENC =         6.80462455
  Ewald energy   TEWEN  =      5502.46304071
  -Hartree energ DENC   =    -13492.32578106
  -exchange      EXHF   =       216.74117589
  -V(xc)+E(xc)   XCENC  =       -70.75659922
  PAW double counting   =      9444.55456794    -9141.04256000
  entropy T*S    EENTRO =        -0.00000000
  eigenvalues    EBANDS =      -770.09728669
  atomic energy  EATOM  =      8287.56614759
  ---------------------------------------------------
  free energy    TOTEN  =       -16.09267028 eV

  energy without entropy =      -16.09267028  energy(sigma->0) =      -16.09267028
  exchange ACFDT corr.  =        -0.00000000  see jH, gK, PRB 81, 115126


--------------------------------------------------------------------------------------------------------




--------------------------------------- Iteration      1(  14)  ---------------------------------------


    POTLOK:  cpu time      0.9030: real time      0.9040
    SETDIJ:  cpu time      0.7776: real time      0.7776
    TRIAL :  cpu time     16.6934: real time     16.7108
    CORREC:  cpu time     18.5393: real time     18.6592
    CHARGE:  cpu time      0.5866: real time      0.6450
    --------------------------------------------
      LOOP:  cpu time     37.5027: real time     37.7032

 eigenvalue-minimisations  :     0
 total energy-change (2. order) :-0.2191789E-03  (-0.7754358E-04)
 number of electron      88.0000014 magnetization 
 augmentation part       42.7240578 magnetization 

 Free energy of the ion-electron system (eV)
  ---------------------------------------------------
  alpha Z        PSCENC =         6.80462455
  Ewald energy   TEWEN  =      5502.46304071
  -Hartree energ DENC   =    -13492.31651393
  -exchange      EXHF   =       216.73838327
  -V(xc)+E(xc)   XCENC  =       -70.75732599
  PAW double counting   =      9444.75427982    -9141.25294660
  entropy T*S    EENTRO =        -0.00000000
  eigenvalues    EBANDS =      -770.09257888
  atomic energy  EATOM  =      8287.56614759
  ---------------------------------------------------
  free energy    TOTEN  =       -16.09288946 eV

  energy without entropy =      -16.09288946  energy(sigma->0) =      -16.09288946
  exchange ACFDT corr.  =        -0.00000000  see jH, gK, PRB 81, 115126


--------------------------------------------------------------------------------------------------------




--------------------------------------- Iteration      1(  15)  ---------------------------------------


    POTLOK:  cpu time      0.9338: real time      0.9345
    SETDIJ:  cpu time      0.7738: real time      0.7747
    TRIAL :  cpu time     16.6669: real time     16.6838
    CORREC:  cpu time     18.5332: real time     18.6634
    CHARGE:  cpu time      0.5699: real time      0.6220
    --------------------------------------------
      LOOP:  cpu time     37.4806: real time     37.6850

 eigenvalue-minimisations  :     0
 total energy-change (2. order) :-0.7754057E-04  (-0.2087494E-04)
 number of electron      88.0000014 magnetization 
 augmentation part       42.7242425 magnetization 

 Free energy of the ion-electron system (eV)
  ---------------------------------------------------
  alpha Z        PSCENC =         6.80462455
  Ewald energy   TEWEN  =      5502.46304071
  -Hartree energ DENC   =    -13492.31511020
  -exchange      EXHF   =       216.73667929
  -V(xc)+E(xc)   XCENC  =       -70.75822250
  PAW double counting   =      9445.44450235    -9141.94722096
  entropy T*S    EENTRO =        -0.00000000
  eigenvalues    EBANDS =      -770.08740783
  atomic energy  EATOM  =      8287.56614759
  ---------------------------------------------------
  free energy    TOTEN  =       -16.09296700 eV

  energy without entropy =      -16.09296700  energy(sigma->0) =      -16.09296700
  exchange ACFDT corr.  =        -0.00000000  see jH, gK, PRB 81, 115126


--------------------------------------------------------------------------------------------------------




--------------------------------------- Iteration      1(  16)  ---------------------------------------


    POTLOK:  cpu time      0.9424: real time      0.9184
    SETDIJ:  cpu time      0.7768: real time      0.7776
    TRIAL :  cpu time     16.7769: real time     16.7929
    CORREC:  cpu time     18.4074: real time     18.5428
    CHARGE:  cpu time      0.5272: real time      0.5478
    --------------------------------------------
      LOOP:  cpu time     37.4339: real time     37.5866

 eigenvalue-minimisations  :     0
 total energy-change (2. order) :-0.2074485E-04  (-0.4423347E-05)
 number of electron      88.0000014 magnetization 
 augmentation part       42.7241049 magnetization 

 Free energy of the ion-electron system (eV)
  ---------------------------------------------------
  alpha Z        PSCENC =         6.80462455
  Ewald energy   TEWEN  =      5502.46304071
  -Hartree energ DENC   =    -13492.39640841
  -exchange      EXHF   =       216.73718763
  -V(xc)+E(xc)   XCENC  =       -70.75766380
  PAW double counting   =      9446.04966423    -9142.55321054
  entropy T*S    EENTRO =        -0.00000000
  eigenvalues    EBANDS =      -770.00636970
  atomic energy  EATOM  =      8287.56614759
  ---------------------------------------------------
  free energy    TOTEN  =       -16.09298775 eV

  energy without entropy =      -16.09298775  energy(sigma->0) =      -16.09298775
  exchange ACFDT corr.  =        -0.00000000  see jH, gK, PRB 81, 115126


--------------------------------------------------------------------------------------------------------




--------------------------------------- Iteration      1(  17)  ---------------------------------------


    POTLOK:  cpu time      0.9060: real time      0.9069
    SETDIJ:  cpu time      0.7742: real time      0.7749
    TRIAL :  cpu time     16.7158: real time     16.7313
    CORREC:  cpu time     18.5008: real time     18.6469
    CHARGE:  cpu time      0.5196: real time      0.5340
    --------------------------------------------
      LOOP:  cpu time     37.4225: real time     37.6003

 eigenvalue-minimisations  :     0
 total energy-change (2. order) :-0.4434982E-05  (-0.1506189E-05)
 number of electron      88.0000014 magnetization 
 augmentation part       42.7240912 magnetization 

 Free energy of the ion-electron system (eV)
  ---------------------------------------------------
  alpha Z        PSCENC =         6.80462455
  Ewald energy   TEWEN  =      5502.46304071
  -Hartree energ DENC   =    -13492.35444096
  -exchange      EXHF   =       216.73673402
  -V(xc)+E(xc)   XCENC  =       -70.75807238
  PAW double counting   =      9446.20850862    -9142.71175068
  entropy T*S    EENTRO =        -0.00000000
  eigenvalues    EBANDS =      -770.04778366
  atomic energy  EATOM  =      8287.56614759
  ---------------------------------------------------
  free energy    TOTEN  =       -16.09299218 eV

  energy without entropy =      -16.09299218  energy(sigma->0) =      -16.09299218
  exchange ACFDT corr.  =        -0.00000000  see jH, gK, PRB 81, 115126


--------------------------------------------------------------------------------------------------------




--------------------------------------- Iteration      1(  18)  ---------------------------------------


    POTLOK:  cpu time      0.8987: real time      0.8997
    SETDIJ:  cpu time      0.7736: real time      0.7736
    TRIAL :  cpu time     16.6027: real time     16.6189
    CORREC:  cpu time     18.5758: real time     18.7202
    CHARGE:  cpu time      0.4855: real time      0.5249
    --------------------------------------------
      LOOP:  cpu time     37.3406: real time     37.5453

 eigenvalue-minimisations  :     0
 total energy-change (2. order) :-0.1504990E-05  (-0.7468943E-06)
 number of electron      88.0000014 magnetization 
 augmentation part       42.7242240 magnetization 

 Free energy of the ion-electron system (eV)
  ---------------------------------------------------
  alpha Z        PSCENC =         6.80462455
  Ewald energy   TEWEN  =      5502.46304071
  -Hartree energ DENC   =    -13492.35288538
  -exchange      EXHF   =       216.73669261
  -V(xc)+E(xc)   XCENC  =       -70.75816814
  PAW double counting   =      9446.27104442    -9142.77418299
  entropy T*S    EENTRO =        -0.00000000
  eigenvalues    EBANDS =      -770.04930706
  atomic energy  EATOM  =      8287.56614759
  ---------------------------------------------------
  free energy    TOTEN  =       -16.09299369 eV

  energy without entropy =      -16.09299369  energy(sigma->0) =      -16.09299369
  exchange ACFDT corr.  =        -0.00000000  see jH, gK, PRB 81, 115126


--------------------------------------------------------------------------------------------------------




--------------------------------------- Iteration      1(  19)  ---------------------------------------


    POTLOK:  cpu time      0.8978: real time      0.8987
    SETDIJ:  cpu time      0.7669: real time      0.7677
    TRIAL :  cpu time     16.7742: real time     16.7905
    CORREC:  cpu time     18.6578: real time     18.8132
    EDDIAG:  cpu time     16.4548: real time     16.5138
    CHARGE:  cpu time      0.5611: real time      0.5618
    --------------------------------------------
      LOOP:  cpu time     54.1160: real time     54.3528

 eigenvalue-minimisations  :     0
 total energy-change (2. order) :-0.5793881E-06  (-0.1013081E-06)
 number of electron      88.0000014 magnetization 
 augmentation part       42.7241601 magnetization 

 Free energy of the ion-electron system (eV)
  ---------------------------------------------------
  alpha Z        PSCENC =         6.80462455
  Ewald energy   TEWEN  =      5502.46304071
  -Hartree energ DENC   =    -13492.37078381
  -exchange      EXHF   =       216.73704610
  -V(xc)+E(xc)   XCENC  =       -70.75771969
  PAW double counting   =      9446.29927562    -9142.80261132
  entropy T*S    EENTRO =        -0.00000000
  eigenvalues    EBANDS =      -770.03222628
  atomic energy  EATOM  =      8287.56614759
  ---------------------------------------------------
  free energy    TOTEN  =       -16.09299426 eV

  energy without entropy =      -16.09299426  energy(sigma->0) =      -16.09299426
  exchange ACFDT corr.  =        -0.00000000  see jH, gK, PRB 81, 115126


--------------------------------------------------------------------------------------------------------


  average scaling for gradient   1.2418


 average (electrostatic) potential at core
  the test charge radii are     1.1249
  (the norm of the test charge is              1.0000)
       1 -75.3230       2 -75.2197       3 -75.2192       4 -75.2207       5 -75.3229
       6 -75.3231       7 -75.2203       8 -75.3234
 
 
 
 E-fermi :  -4.6355     XC(G=0):  -0.3851     alpha+bet : -0.2295

 Fermi energy:        -4.6354579916

 k-point     1 :       0.0000    0.0000    0.0000
  band No.  band energies     occupation 
      1     -10.7498      2.00000
      2     -10.4751      2.00000
      3     -10.4726      2.00000
      4     -10.2175      2.00000
      5      -9.9212      2.00000
      6      -9.7940      2.00000
      7      -9.6977      2.00000
      8      -9.6309      2.00000
      9      -9.6292      2.00000
     10      -9.5531      2.00000
     11      -9.5483      2.00000
     12      -9.5410      2.00000
     13      -9.4370      2.00000
     14      -9.1384      2.00000
     15      -9.0917      2.00000
     16      -9.0897      2.00000
     17      -9.0867      2.00000
     18      -9.0855      2.00000
     19      -9.0403      2.00000
     20      -9.0257      2.00000
     21      -8.9736      2.00000
     22      -8.9398      2.00000
     23      -8.9372      2.00000
     24      -8.8704      2.00000
     25      -8.7316      2.00000
     26      -8.7303      2.00000
     27      -8.7124      2.00000
     28      -8.5593      2.00000
     29      -8.4353      2.00000
     30      -8.3909      2.00000
     31      -8.3711      2.00000
     32      -8.3708      2.00000
     33      -8.3330      2.00000
     34      -8.2791      2.00000
     35      -8.2788      2.00000
     36      -8.2482      2.00000
     37      -8.0383      2.00000
     38      -8.0347      2.00000
     39      -7.9265      2.00000
     40      -7.5832      2.00000
     41      -7.3445      2.00000
     42      -5.9243      2.00000
     43      -5.9225      2.00000
     44      -4.8652      2.00000
     45      -2.5058      0.00000
     46      -1.9010      0.00000
     47      -1.2912      0.00000
     48      -1.2097      0.00000
     49      -1.2079      0.00000
     50      -0.2023      0.00000
     51      -0.1998      0.00000
     52      -0.1792      0.00000
     53      -0.1764      0.00000
     54      -0.1290      0.00000
     55       0.1503      0.00000
     56       0.5192      0.00000
     57       0.5246      0.00000
     58       0.5767      0.00000
     59       0.5812      0.00000
     60       0.5979      0.00000
     61       0.6107      0.00000
     62       0.6643      0.00000
     63       0.6811      0.00000
     64       0.9550      0.00000


--------------------------------------------------------------------------------------------------------


 soft charge-density along one line, spin component           1
         0         1         2         3         4         5         6         7         8         9
 total charge-density along one line
 
 pseudopotential strength for first ion, spin component:           1
 -8.566  -0.006   0.013   0.012  -0.000  -8.634  -0.006   0.013
 -0.006  -8.555   0.007  -0.008  -0.007  -0.006  -8.624   0.007
  0.013   0.007  -8.561  -0.009   0.011   0.013   0.007  -8.630
  0.012  -0.008  -0.009  -8.573  -0.009   0.012  -0.008  -0.009
 -0.000  -0.007   0.011  -0.009  -8.560  -0.000  -0.007   0.011
 -8.634  -0.006   0.013   0.012  -0.000  -8.674  -0.006   0.012
 -0.006  -8.624   0.007  -0.008  -0.007  -0.006  -8.664   0.006
  0.013   0.007  -8.630  -0.009   0.011   0.012   0.006  -8.670
  0.012  -0.008  -0.009  -8.641  -0.008   0.011  -0.007  -0.009
 -0.000  -0.007   0.011  -0.008  -8.628  -0.000  -0.007   0.010
  0.008  -0.018   0.006   0.001  -0.000   0.007  -0.018   0.006
  0.013  -0.030   0.010   0.001  -0.001   0.012  -0.030   0.010
  0.005   0.002  -0.001   0.000  -0.001   0.005   0.002  -0.001
  0.000   0.001   0.002   0.005  -0.000   0.000   0.001   0.002
  0.001   0.000  -0.003   0.002   0.005   0.001   0.000  -0.003
  0.006   0.002  -0.001   0.000  -0.001   0.005   0.002  -0.001
  0.000   0.002   0.002   0.005  -0.000   0.000   0.001   0.002
  0.001   0.000  -0.003   0.002   0.006   0.001   0.000  -0.003
 total augmentation occupancy for first ion, spin component:           1
  2.590  -0.181  -0.002  -0.121  -0.002  -0.588   0.194   0.078   0.251   0.002  -0.646   0.195   0.024  -0.007   0.029   0.001
 -0.181   3.103  -0.270   0.077   0.192   0.194  -1.134   0.342  -0.106  -0.267   1.756  -0.500   0.003  -0.002  -0.003   0.001
 -0.002  -0.270   2.689  -0.016  -0.034   0.078   0.342  -0.714  -0.040   0.045  -0.658   0.180  -0.015   0.010  -0.018   0.001
 -0.121   0.077  -0.016   2.610   0.039   0.251  -0.106  -0.040  -0.649  -0.050   0.062  -0.001  -0.007   0.036   0.031   0.001
 -0.002   0.192  -0.034   0.039   2.550   0.002  -0.267   0.046  -0.050  -0.481   0.196  -0.037   0.009   0.015   0.042  -0.002
 -0.588   0.194   0.078   0.251   0.002   0.574  -0.206  -0.145  -0.365  -0.003   0.598  -0.188  -0.030   0.006  -0.032   0.003
  0.194  -1.134   0.342  -0.106  -0.267  -0.206   1.150  -0.404   0.131   0.331  -1.658   0.513  -0.006  -0.000   0.001   0.000
  0.078   0.342  -0.714  -0.040   0.046  -0.145  -0.404   0.723   0.089  -0.056   0.629  -0.193   0.016  -0.012   0.025  -0.001
  0.251  -0.106  -0.040  -0.649  -0.050  -0.365   0.131   0.089   0.670   0.059  -0.075   0.019   0.005  -0.043  -0.038  -0.001
  0.002  -0.267   0.045  -0.050  -0.481  -0.003   0.331  -0.056   0.059   0.408  -0.204   0.058  -0.008  -0.017  -0.053   0.001
 -0.646   1.756  -0.658   0.062   0.196   0.598  -1.658   0.629  -0.075  -0.204   3.997  -1.189  -0.021  -0.035  -0.087   0.002
  0.195  -0.500   0.180  -0.001  -0.037  -0.188   0.513  -0.193   0.019   0.058  -1.189   0.358   0.007   0.012   0.030  -0.001
  0.024   0.003  -0.015  -0.007   0.009  -0.030  -0.006   0.016   0.005  -0.008  -0.021   0.007   0.095  -0.099   0.028  -0.007
 -0.007  -0.002   0.010   0.036   0.015   0.006  -0.000  -0.012  -0.043  -0.017  -0.035   0.012  -0.099   0.143  -0.016   0.007
  0.029  -0.003  -0.018   0.031   0.042  -0.032   0.001   0.025  -0.038  -0.053  -0.087   0.030   0.028  -0.016   0.045  -0.002
  0.001   0.001   0.001   0.001  -0.002   0.003   0.000  -0.001  -0.001   0.001   0.002  -0.001  -0.007   0.007  -0.002   0.001
  0.001   0.001   0.001   0.000  -0.001  -0.001  -0.000   0.001   0.004   0.001   0.004  -0.001   0.007  -0.010   0.001  -0.000
 -0.002   0.001  -0.001  -0.001  -0.000   0.003  -0.001  -0.002   0.003   0.004   0.009  -0.003  -0.002   0.001  -0.004   0.000


------------------------ aborting loop because EDIFF is reached ----------------------------------------


    FORLOC:  cpu time      0.1184: real time      0.1186
    FORHF :  cpu time      7.8277: real time      7.8862
    FORNL :  cpu time      0.6433: real time      0.6988
    FORCOR:  cpu time      1.5161: real time      1.5177
    OFIELD:  cpu time      0.0012: real time      0.0012
 -----------------------------------------------------------------------------
|                                                                             |
|           W    W    AA    RRRRR   N    N  II  N    N   GGGG   !!!           |
|           W    W   A  A   R    R  NN   N  II  NN   N  G    G  !!!           |
|           W    W  A    A  R    R  N N  N  II  N N  N  G       !!!           |
|           W WW W  AAAAAA  RRRRR   N  N N  II  N  N N  G  GGG   !            |
|           WW  WW  A    A  R   R   N   NN  II  N   NN  G    G                |
|           W    W  A    A  R    R  N    N  II  N    N   GGGG   !!!           |
|                                                                             |
|     Specifying the vdW parameters                                           |
|     VDW_S8 = 0.928                                                          |
|     VDW_SR = 1.287                                                          |
|     in the INCAR file will overwrite the defaults for pbe0. Please make     |
|     sure that is what you intended.                                         |
|                                                                             |
 -----------------------------------------------------------------------------


 ---------------------------------------------------------------------------------------------

         DFTD3 V3.0 Rev 1        
 IVDW         = 11
 DF pbe0      
 parameters
 VDW_S6       =    1.0000
 VDW_S8       =    0.9280
 VDW_SR       =    1.2870
 rs18     =    1.0000
 alpha6   =   14.0000
 alpha8   =   16.0000
 k1-k3    =   16.0000    1.3333   -4.0000
 VDW_RADIUS   =   50.2022 A
 VDW_CNRADIUS =   21.1671 A
 Edisp (eV)   -0.34460

 E6    (eV) :    -0.0775
 E8    (eV) :    -0.2671
 % E8        : 77.50
    FORVDW:  cpu time      0.0403: real time      0.0414

 VOLUME and BASIS-vectors are now :
 -----------------------------------------------------------------------------
  energy-cutoff  :      520.00
  volume of cell :     8000.00
      direct lattice vectors                 reciprocal lattice vectors
    20.000000000  0.000000000  0.000000000     0.050000000  0.000000000  0.000000000
     0.000000000 20.000000000  0.000000000     0.000000000  0.050000000  0.000000000
     0.000000000  0.000000000 20.000000000     0.000000000  0.000000000  0.050000000

  length of vectors
    20.000000000 20.000000000 20.000000000     0.050000000  0.050000000  0.050000000


 FORCES acting on ions:
    Electron-Ion                     Ewald-Force                    Non-Local-Force
 -----------------------------------------------------------------------------------------------
   -.380E+03 -.920E+02 -.154E+03   0.379E+03 0.918E+02 0.153E+03   0.128E+01 0.306E+00 0.520E+00
   -.344E+03 0.184E+03 -.525E+03   0.339E+03 -.181E+03 0.517E+03   0.469E+01 -.249E+01 0.718E+01
   0.345E+03 -.187E+03 0.522E+03   -.340E+03 0.184E+03 -.515E+03   -.472E+01 0.254E+01 -.714E+01
   0.492E+03 0.389E+03 -.187E+03   -.485E+03 -.384E+03 0.184E+03   -.674E+01 -.529E+01 0.254E+01
   0.379E+03 0.934E+02 0.155E+03   -.378E+03 -.931E+02 -.155E+03   -.127E+01 -.322E+00 -.534E+00
   -.677E+02 -.261E+03 0.324E+03   0.675E+02 0.261E+03 -.323E+03   0.221E+00 0.893E+00 -.111E+01
   -.493E+03 -.387E+03 0.188E+03   0.486E+03 0.382E+03 -.185E+03   0.675E+01 0.527E+01 -.255E+01
   0.677E+02 0.262E+03 -.324E+03   -.675E+02 -.261E+03 0.323E+03   -.224E+00 -.895E+00 0.111E+01
 -----------------------------------------------------------------------------------------------
   0.105E-01 -.213E-01 -.114E-01   -.171E-12 0.000E+00 0.568E-13   -.105E-01 0.137E-01 0.137E-01
 
 
 POSITION                                       TOTAL-FORCE (eV/Angst)
 -----------------------------------------------------------------------------------
     11.75750     10.42793     10.70614         0.067397      0.015474      0.030992
     11.91683      8.97804     12.93066         0.102615     -0.055392      0.157237
      8.07428     11.03929      7.06950        -0.103028      0.055082     -0.154917
      7.24598      7.84023     11.03714        -0.151466     -0.123486      0.056341
      8.24054      9.57488      9.28460        -0.067029     -0.011509     -0.031466
     10.31279     11.20751      8.49728         0.005521      0.044513     -0.060221
     12.75428     12.15914      8.95065         0.153140      0.120411     -0.057831
      9.68416      8.79830     11.49516        -0.007151     -0.045092      0.059865
 -----------------------------------------------------------------------------------
    total drift:                               -0.000444     -0.003695      0.002689


--------------------------------------------------------------------------------------------------------



  FREE ENERGIE OF THE ION-ELECTRON SYSTEM (eV)
  ---------------------------------------------------
  free  energy   TOTEN  =       -16.43759531 eV

  energy  without entropy=      -16.43759531  energy(sigma->0) =      -16.43759531
 


--------------------------------------------------------------------------------------------------------


    POTLOK:  cpu time      1.6249: real time      1.6265


--------------------------------------------------------------------------------------------------------


     LOOP+:  cpu time    581.8806: real time    584.9132
    4ORBIT:  cpu time      0.0000: real time      0.0000

 total amount of memory used by VASP MPI-rank0  3557502. kBytes
=======================================================================

   base      :      30000. kBytes
   nonlr-proj:      12048. kBytes
   fftplans  :      28721. kBytes
   grid      :     157056. kBytes
   one-center:        124. kBytes
   HF        :         64. kBytes
   wavefun   :      10353. kBytes
   fock_wrk  :    3319136. kBytes
 
  
  
 General timing and accounting informations for this job:
 ========================================================
  
                  Total CPU time used (sec):      595.554
                            User time (sec):      525.367
                          System time (sec):       70.187
                         Elapsed time (sec):      599.385
  
                   Maximum memory used (kb):     5554504.
                   Average memory used (kb):          N/A
  
                          Minor page faults:      1145967
                          Major page faults:            0
                 Voluntary context switches:         8197
