 vasp.6.3.2 27Jun22 (build Jan 05 2024 11:34:19) complex                        
  
 executed on           IFC15_impi date 2024.01.09  01:34:35
 running  256 mpi-ranks, with    1 threads/rank
 distrk:  each k-point on  256 cores,    1 groups
 distr:  one band on NCORE=   8 cores,   32 groups


--------------------------------------------------------------------------------------------------------


 INCAR:
   SYSTEM = MgO-rocksalt
   ISMEAR = 0
   SIGMA = 0.05
   EDIFF = 1E-6
   ALGO = ALL
   ISTART = 0
   IBRION = -1
   NSW = 0
   ISYM = 2
   METAGGA = M06L
   ENCUT = 520
   PREC = Accurate
   LASPH = .TRUE.
   LREAL = Auto
   ISPIN = 1
   NELM = 2000
   NELMIN = 8
   NCORE = 8
   LWAVE = .FALSE.
   LCHARG = .FALSE.

 POTCAR:    PAW_PBE Cu 22Jun2005                  
 POTCAR:    PAW_PBE Cu 22Jun2005                  
   SHA256 =  0e71e558f37a4e8407882b4609ceaae59938afaad9ced71dfe8490308a0ab630 Cu/POTCAR             
   COPYR  = (c) Copyright 22Jun2005 Georg Kresse                                                    
   COPYR  = This file is part of the software VASP. Any use, copying, and all other rights are regul
   COPYR  = If you do not have a valid VASP license, you may not use, copy or distribute this file. 
   VRHFIN =Cu: d10 p1                                                                               
   LEXCH  = PE                                                                                      
   EATOM  =  1390.9808 eV,  102.2342 Ry                                                             
                                                                                                    
   TITEL  = PAW_PBE Cu 22Jun2005                                                                    
   LULTRA =        F    use ultrasoft PP ?                                                          
   IUNSCR =        1    unscreen: 0-lin 1-nonlin 2-no                                               
   RPACOR =    2.000    partial core radius                                                         
   POMASS =   63.546; ZVAL   =   11.000    mass and valenz                                          
   RCORE  =    2.300    outmost cutoff radius                                                       
   RWIGS  =    2.200; RWIGS  =    1.164    wigner-seitz radius (au A)                               
   ENMAX  =  295.446; ENMIN  =  221.585 eV                                                          
   ICORE  =        3    local potential                                                             
   LCOR   =        T    correct aug charges                                                         
   LPAW   =        T    paw PP                                                                      
   EAUG   =  586.980                                                                                
   DEXC   =    0.000                                                                                
   RMAX   =    2.344    core radius for proj-oper                                                   
   RAUG   =    1.300    factor for augmentation sphere                                              
   RDEP   =    2.302    radius for radial grids                                                     
   RDEPT  =    1.771    core radius for aug-charge                                                  
                                                                                                    
   Atomic configuration                                                                             
    9 entries                                                                                       
     n  l   j            E        occ.                                                              
     1  0  0.50     -8850.2468   2.0000                                                             
     2  0  0.50     -1062.3498   2.0000                                                             
     2  1  1.50      -916.8226   6.0000                                                             
     3  0  0.50      -114.6929   2.0000                                                             
     3  1  1.50       -72.1325   6.0000                                                             
     3  2  2.50        -5.0394  10.0000                                                             
     4  0  0.50        -4.6097   1.0000                                                             
     4  1  0.50        -4.0817   0.0000                                                             
     4  3  2.50        -1.3606   0.0000                                                             
   Description                                                                                      
     l       E           TYP  RCUT    TYP  RCUT                                                     
     2     -5.0393973     23  2.200                                                                 
     2     10.8846608     23  2.200                                                                 
     0     -4.6097109     23  2.200                                                                 
     0      8.2520465     23  2.200                                                                 
     1     -2.7211652     23  2.200                                                                 
     1     21.7055443     23  2.200                                                                 
     3      2.7211652     23  2.300                                                                 
  local pseudopotential read in
  partial core-charges read in
  partial kinetic energy density read in
  atomic valenz-charges read in
  non local Contribution for L=           2  read in
    real space projection operators read in
  non local Contribution for L=           2  read in
    real space projection operators read in
  non local Contribution for L=           0  read in
    real space projection operators read in
  non local Contribution for L=           0  read in
    real space projection operators read in
  non local Contribution for L=           1  read in
    real space projection operators read in
  non local Contribution for L=           1  read in
    real space projection operators read in
    PAW grid and wavefunctions read in
 
   number of l-projection  operators is LMAX  =           6
   number of lm-projection operators is LMMAX =          18
 
 -----------------------------------------------------------------------------
|                                                                             |
|               ----> ADVICE to this user running VASP <----                  |
|                                                                             |
|     You have a (more or less) 'small supercell' and for smaller cells       |
|     it is recommended to use the reciprocal-space projection scheme!        |
|     The real-space optimization is not efficient for small cells and it     |
|     is also less accurate ...                                               |
|     Therefore, set LREAL=.FALSE. in the INCAR file.                         |
|                                                                             |
 -----------------------------------------------------------------------------

 Optimization of the real space projectors (new method)

 maximal supplied QI-value         = 16.25
 optimisation between [QCUT,QGAM] = [ 11.54, 23.24] = [ 37.28,151.24] Ry 
 Optimized for a Real-space Cutoff    1.53 Angstroem

   l    n(q)    QCUT    max X(q) W(low)/X(q) W(high)/X(q)  e(spline) 
   2     10    11.539     4.610    0.96E-04    0.13E-03    0.19E-06
   2     10    11.539     8.522    0.16E-03    0.21E-03    0.28E-06
   0     11    11.539    51.609    0.45E-04    0.31E-04    0.11E-06
   0     11    11.539    27.747    0.39E-04    0.29E-04    0.10E-06
   1     10    11.539    20.408    0.70E-05    0.38E-04    0.18E-06
   1     10    11.539    13.425    0.66E-05    0.34E-04    0.17E-06
  PAW_PBE Cu 22Jun2005                  :
 energy of atom  1       EATOM=-1390.9808
 kinetic energy error for atom=    0.0037 (will be added to EATOM!!)
 
 
 POSCAR: Cu
  positions in direct lattice
  No initial velocities read in

 METAGGA = M06L     LMAXTAU =  6    LMIXTAU =  F

 exchange correlation table for  LEXCH =        8
   RHO(1)=    0.500       N(1)  =     2000
   RHO(2)=  100.500       N(2)  =     4000

 VTST: version 4.1, (05/19/21)

 CHAIN: initializing optimizer
 
 OPT: Using VASP Dynamics algorithm
 CHAIN: Read ICHAIN            0
 
 POSCAR: Cu
  positions in direct lattice
  No initial velocities read in
 


--------------------------------------------------------------------------------------------------------


 ion  position               nearest neighbor table
   1  0.538  0.562  0.615-   2 2.24
   2  0.462  0.638  0.615-   1 2.24
 
  LATTYP: Found a simple tetragonal cell.
 ALAT       =    21.1388521970
 C/A-ratio  =     1.0461251639
  
  Lattice vectors:
  
 A1 = (  21.1388521970,   0.0000000000,   0.0000000000)
 A2 = (   0.0000000000,  21.1388521970,   0.0000000000)
 A3 = (   0.0000000000,   0.0000000000,  22.1138852197)


Analysis of symmetry for initial positions (statically):
=====================================================================
 Subroutine PRICEL returns:
 Original cell was already a primitive cell.
 

 Routine SETGRP: Setting up the symmetry group for a 
 simple tetragonal supercell.


 Subroutine GETGRP returns: Found  8 space group operations
 (whereof  1 operations were pure point group operations)
 out of a pool of 16 trial point group operations.


The static configuration has the point symmetry C_1 .
 The point group associated with its full space group is D_2h.


Analysis of symmetry for dynamics (positions and initial velocities):
=====================================================================
 Subroutine PRICEL returns:
 Original cell was already a primitive cell.
 

 Routine SETGRP: Setting up the symmetry group for a 
 simple tetragonal supercell.


 Subroutine GETGRP returns: Found  8 space group operations
 (whereof  1 operations were pure point group operations)
 out of a pool of 16 trial point group operations.


The dynamic configuration has the point symmetry C_1 .
 The point group associated with its full space group is D_2h.


 Subroutine INISYM returns: Found  8 space group operations
 (whereof  1 operations are pure point group operations),
 and found     1 'primitive' translations


----------------------------------------------------------------------------------------

                                     Primitive cell                                     

  volume of cell :    9881.6133

  direct lattice vectors                    reciprocal lattice vectors
    21.138852197  0.000000000  0.000000000     0.047306258  0.000000000  0.000000000
     0.000000000 21.138852197  0.000000000     0.000000000  0.047306258  0.000000000
     0.000000000  0.000000000 22.113885220     0.000000000  0.000000000  0.045220457

  length of vectors
    21.138852197 21.138852197 22.113885220     0.047306258  0.047306258  0.045220457

  position of ions in fractional coordinates (direct lattice)
     0.537531089  0.562468875  0.614848637
     0.462468911  0.637531053  0.614848637

  ion indices of the primitive-cell ions
   primitive index   ion index
                 1           1
                 2           2

----------------------------------------------------------------------------------------

 
 
 KPOINTS: KPOINTS created by Atomic Simulation Env

Automatic generation of k-mesh.
 Grid dimensions read from file:
 generate k-points for:    1    1    1

 Generating k-lattice:

  Cartesian coordinates                     Fractional coordinates (reciprocal lattice)
     0.047306258  0.000000000  0.000000000     1.000000000  0.000000000  0.000000000
     0.000000000  0.047306258  0.000000000     0.000000000  1.000000000  0.000000000
     0.000000000  0.000000000  0.045220457     0.000000000  0.000000000  1.000000000

  Length of vectors
     0.047306258  0.047306258  0.045220457

  Shift w.r.t. Gamma in fractional coordinates (k-lattice)
     0.000000000  0.000000000  0.000000000

 
 Subroutine IBZKPT returns following result:
 ===========================================
 
 Found      1 irreducible k-points:
 
 Following reciprocal coordinates:
            Coordinates               Weight
  0.000000  0.000000  0.000000      1.000000
 
 Following cartesian coordinates:
            Coordinates               Weight
  0.000000  0.000000  0.000000      1.000000
 


--------------------------------------------------------------------------------------------------------




 Dimension of arrays:
   k-points           NKPTS =      1   k-points in BZ     NKDIM =      1   number of bands    NBANDS=     32
   number of dos      NEDOS =    301   number of ions     NIONS =      2
   non local maximal  LDIM  =      6   non local SUM 2l+1 LMDIM =     18
   total plane-waves  NPLWV = ******
   max r-space proj   IRMAX =   6628   max aug-charges    IRDMAX=  12805
   dimension x,y,z NGX =   160 NGY =  160 NGZ =  168
   dimension x,y,z NGXF=   320 NGYF=  320 NGZF=  336
   support grid    NGXF=   320 NGYF=  320 NGZF=  336
   ions per type =               2
   NGX,Y,Z   is equivalent  to a cutoff of  12.58, 12.58, 12.63 a.u.
   NGXF,Y,Z  is equivalent  to a cutoff of  25.17, 25.17, 25.26 a.u.

 SYSTEM =  MgO-rocksalt                            
 POSCAR =  Cu                                      

 Startparameter for this run:
   NWRITE =      2    write-flag & timer
   PREC   = accura    normal or accurate (medium, high low for compatibility)
   ISTART =      0    job   : 0-new  1-cont  2-samecut
   ICHARG =      2    charge: 1-file 2-atom 10-const
   ISPIN  =      1    spin polarized calculation?
   LNONCOLLINEAR =      F non collinear calculations
   LSORBIT =      F    spin-orbit coupling
   INIWAV =      1    electr: 0-lowe 1-rand  2-diag
   LASPH  =      T    aspherical Exc in radial PAW
 Electronic Relaxation 1
   ENCUT  =  520.0 eV  38.22 Ry    6.18 a.u.  39.30 39.30 41.12*2*pi/ulx,y,z
   ENINI  =  520.0     initial cutoff
   ENAUG  =  587.0 eV  augmentation charge cutoff
   NELM   =   2000;   NELMIN=  8; NELMDL= -5     # of ELM steps 
   EDIFF  = 0.1E-05   stopping-criterion for ELM
   LREAL  =      T    real-space projection
   NLSPLINE    = F    spline interpolate recip. space projectors
   LCOMPAT=      F    compatible to vasp.4.4
   GGA_COMPAT  = T    GGA compatible to vasp.4.4-vasp.4.6
   LMAXPAW     = -100 max onsite density
   LMAXMIX     =    2 max onsite mixed and CHGCAR
   VOSKOWN=      0    Vosko Wilk Nusair interpolation
   ROPT   =   -0.00025
 Ionic relaxation
   EDIFFG = 0.1E-04   stopping-criterion for IOM
   NSW    =      0    number of steps for IOM
   NBLOCK =      1;   KBLOCK =      1    inner block; outer block 
   IBRION =     -1    ionic relax: 0-MD 1-quasi-New 2-CG
   NFREE  =      0    steps in history (QN), initial steepest desc. (CG)
   ISIF   =      2    stress and relaxation
   IWAVPR =     10    prediction:  0-non 1-charg 2-wave 3-comb
   ISYM   =      2    0-nonsym 1-usesym 2-fastsym
   LCORR  =      T    Harris-Foulkes like correction to forces

   POTIM  = 0.5000    time-step for ionic-motion
   TEIN   =    0.0    initial temperature
   TEBEG  =    0.0;   TEEND  =   0.0 temperature during run
   SMASS  =  -3.00    Nose mass-parameter (am)
   estimated Nose-frequenzy (Omega)   =  0.10E-29 period in steps = 0.13E+47 mass=  -0.102E-25a.u.
   SCALEE = 1.0000    scale energy and forces
   NPACO  =    256;   APACO  = 10.0  distance and # of slots for P.C.
   PSTRESS=    0.0 pullay stress

  Mass of Ions in am
   POMASS =  63.55
  Ionic Valenz
   ZVAL   =  11.00
  Atomic Wigner-Seitz radii
   RWIGS  =  -1.00
  virtual crystal weights 
   VCA    =   1.00
   NELECT =      22.0000    total number of electrons
   NUPDOWN=      -1.0000    fix difference up-down

 DOS related values:
   EMIN   =  10.00;   EMAX   =-10.00  energy-range for DOS
   EFERMI =   0.00
   ISMEAR =     0;   SIGMA  =   0.05  broadening in eV -4-tet -1-fermi 0-gaus

 Electronic relaxation 2 (details)
   IALGO  =     58    algorithm
   LDIAG  =      T    sub-space diagonalisation (order eigenvalues)
   LSUBROT=      F    optimize rotation matrix (better conditioning)
   TURBO    =      0    0=normal 1=particle mesh
   IRESTART =      0    0=no restart 2=restart with 2 vectors
   NREBOOT  =      0    no. of reboots
   NMIN     =      0    reboot dimension
   EREF     =   0.00    reference energy to select bands
   IMIX   =      4    mixing-type and parameters
     AMIX     =   0.40;   BMIX     =  1.00
     AMIX_MAG =   1.60;   BMIX_MAG =  1.00
     AMIN     =   0.10
     WC   =   100.;   INIMIX=   1;  MIXPRE=   1;  MAXMIX= -45

 Intra band minimization:
   WEIMIN = 0.0000     energy-eigenvalue tresh-hold
   EBREAK =  0.78E-08  absolut break condition
   DEPER  =   0.30     relativ break condition  

   TIME   =   0.40     timestep for ELM

  volume/ion in A,a.u.               =    4940.81     33342.21
  Fermi-wavevector in a.u.,A,eV,Ry     =   0.213767  0.403960  0.621734  0.045696
  Thomas-Fermi vector in A             =   0.985879
 
 Write flags
   LWAVE        =      F    write WAVECAR
   LDOWNSAMPLE  =      F    k-point downsampling of WAVECAR
   LCHARG       =      F    write CHGCAR
   LVTOT        =      F    write LOCPOT, total local potential
   LVHAR        =      F    write LOCPOT, Hartree potential only
   LELF         =      F    write electronic localiz. function (ELF)
   LORBIT       =      0    0 simple, 1 ext, 2 COOP (PROOUT), +10 PAW based schemes


 Dipole corrections
   LMONO  =      F    monopole corrections only (constant potential shift)
   LDIPOL =      F    correct potential (dipole corrections)
   IDIPOL =      0    1-x, 2-y, 3-z, 4-all directions 
   EPSILON=  1.0000000 bulk dielectric constant

 Exchange correlation treatment:
   GGA     =    --    GGA type
   LEXCH   =     8    internal setting for exchange type
   LIBXC   =     F    Libxc                    
   VOSKOWN =     0    Vosko Wilk Nusair interpolation
   LHFCALC =     F    Hartree Fock is set to
   LHFONE  =     F    Hartree Fock one center treatment
   AEXX    =    0.0000 exact exchange contribution

 Linear response parameters
   LEPSILON=     F    determine dielectric tensor
   LRPA    =     F    only Hartree local field effects (RPA)
   LNABLA  =     F    use nabla operator in PAW spheres
   LVEL    =     F    velocity operator in full k-point grid
   CSHIFT  =0.1000    complex shift for real part using Kramers Kronig
   OMEGAMAX=  -1.0    maximum frequency
   DEG_THRESHOLD= 0.2000000E-02 threshold for treating states as degnerate
   RTIME   =   -0.100 relaxation time in fs
  (WPLASMAI=    0.000 imaginary part of plasma frequency in eV, 0.658/RTIME)
   DFIELD  = 0.0000000 0.0000000 0.0000000 field for delta impulse in time
 
  Optional k-point grid parameters
   LKPOINTS_OPT  =     F    use optional k-point grid
   KPOINTS_OPT_MODE=     1    mode for optional k-point grid
 
 Orbital magnetization related:
   ORBITALMAG=     F  switch on orbital magnetization
   LCHIMAG   =     F  perturbation theory with respect to B field
   DQ        =  0.001000  dq finite difference perturbation B field
   LLRAUG    =     F  two centre corrections for induced B field



--------------------------------------------------------------------------------------------------------


 Static calculation
 charge density and potential will be updated during run
 non-spin polarized calculation
 Conjugate gradient for all bands (Freysoldt, et al. PRB 79, 241103 (2009))
 preconditioned conjugated gradient                                        
 perform sub-space diagonalisation
    before iterative eigenvector-optimisation
 modified Broyden-mixing scheme, WC =      100.0
 initial mixing is a Kerker type mixing with AMIX =  0.4000 and BMIX =      1.0000
 Hartree-type preconditioning will be used
 using additional bands           21
 real space projection scheme for non local part
 use partial core corrections
 no Harris-corrections to forces 
 use gradient corrections 
 use of overlap-Matrix (Vanderbilt PP)
 Gauss-broadening in eV      SIGMA  =   0.05


--------------------------------------------------------------------------------------------------------


  energy-cutoff  :      520.00
  volume of cell :     9881.61
      direct lattice vectors                 reciprocal lattice vectors
    21.138852197  0.000000000  0.000000000     0.047306258  0.000000000  0.000000000
     0.000000000 21.138852197  0.000000000     0.000000000  0.047306258  0.000000000
     0.000000000  0.000000000 22.113885220     0.000000000  0.000000000  0.045220457

  length of vectors
    21.138852197 21.138852197 22.113885220     0.047306258  0.047306258  0.045220457


 
 k-points in units of 2pi/SCALE and weight: KPOINTS created by Atomic Simulation Env
   0.00000000  0.00000000  0.00000000       1.000
 
 k-points in reciprocal lattice and weights: KPOINTS created by Atomic Simulation Env
   0.00000000  0.00000000  0.00000000       1.000
 
 position of ions in fractional coordinates (direct lattice) 
   0.53753109  0.56246888  0.61484864
   0.46246891  0.63753105  0.61484864
 
 position of ions in cartesian coordinates  (Angst):
  11.36279024 11.88994642 13.59669218
   9.77606196 13.47667470 13.59669218
 


--------------------------------------------------------------------------------------------------------


 k-point   1 :   0.0000 0.0000 0.0000  plane waves:  265979

 maximum and minimum number of plane-waves per node :     33256    33239

 maximum number of plane-waves:    265979
 maximum index in each direction: 
   IXMAX=   39   IYMAX=   39   IZMAX=   41
   IXMIN=  -39   IYMIN=  -39   IZMIN=  -41


 real space projection operators:
  total allocation   :       1799.72 KBytes
  max/ min on nodes  :        227.81        221.20


 parallel 3D FFT for wavefunctions:
    minimum data exchange during FFTs selected (reduces bandwidth)
 parallel 3D FFT for charge:
    minimum data exchange during FFTs selected (reduces bandwidth)


 total amount of memory used by VASP MPI-rank0   105503. kBytes
=======================================================================

   base      :      30000. kBytes
   nonlr-proj:        504. kBytes
   fftplans  :      22537. kBytes
   grid      :      50851. kBytes
   one-center:         15. kBytes
   wavefun   :       1596. kBytes
 
     INWAV:  cpu time      0.0001: real time      0.0001
 Broyden mixing: mesh for mixing (old mesh)
   NGX = 79   NGY = 79   NGZ = 83
  (NGX  =320   NGY  =320   NGZ  =336)
  gives a total of 518003 points

 initial charge density was supplied:
 charge density of overlapping atoms calculated
 number of electron      22.0000000 magnetization 
 keeping initial charge density in first step


--------------------------------------------------------------------------------------------------------


 Maximum index for non-local projection operator          810
 Maximum index for augmentation-charges            0 (set IRDMAX)


--------------------------------------------------------------------------------------------------------


 First call to EWALD:  gamma=   0.083
 Maximum number of real-space cells 3x 3x 3
 Maximum number of reciprocal cells 3x 3x 3

    FEWALD:  cpu time      0.0068: real time      0.0068


--------------------------------------- Iteration      1(   1)  ---------------------------------------


    POTLOK:  cpu time      0.4539: real time      0.4611
    SETDIJ:  cpu time      4.7781: real time      4.7806
    TRIAL :  cpu time      0.7474: real time      0.7961
    CORREC:  cpu time      0.0024: real time      0.0024
    --------------------------------------------
      LOOP:  cpu time      5.9871: real time      6.0470

 eigenvalue-minimisations  :    64
 total energy-change (2. order) : 0.1136517E+03  (-0.2931678E+03)
 number of electron      22.0000000 magnetization 
 augmentation part       22.0000000 magnetization 

 Free energy of the ion-electron system (eV)
  ---------------------------------------------------
  alpha Z        PSCENC =         0.29603589
  Ewald energy   TEWEN  =       318.01082684
  -Hartree energ DENC   =     -2860.44585664
  -exchange      EXHF   =         0.00000000
  -V(xc)+E(xc)   XCENC  =       -18.12927635
  PAW double counting   =      2544.02776163    -2664.72066228
  entropy T*S    EENTRO =        -0.05182481
  eigenvalues    EBANDS =        12.71055211
  atomic energy  EATOM  =      2781.95410799
  ---------------------------------------------------
  free energy    TOTEN  =       113.65166437 eV

  energy without entropy =      113.70348919  energy(sigma->0) =      113.67757678


--------------------------------------------------------------------------------------------------------




--------------------------------------- Iteration      1(   2)  ---------------------------------------


    TRIAL :  cpu time      1.0945: real time      1.1002
    CORREC:  cpu time      0.0009: real time      0.0009
    --------------------------------------------
      LOOP:  cpu time      1.0981: real time      1.1108

 eigenvalue-minimisations  :   128
 total energy-change (2. order) :-0.1049069E+03  (-0.1039237E+03)
 number of electron      22.0000000 magnetization 
 augmentation part       22.0000000 magnetization 

 Free energy of the ion-electron system (eV)
  ---------------------------------------------------
  alpha Z        PSCENC =         0.29603589
  Ewald energy   TEWEN  =       318.01082684
  -Hartree energ DENC   =     -2860.44585664
  -exchange      EXHF   =         0.00000000
  -V(xc)+E(xc)   XCENC  =       -18.12927635
  PAW double counting   =      2544.02776163    -2664.72066228
  entropy T*S    EENTRO =        -0.00000000
  eigenvalues    EBANDS =       -92.24814750
  atomic energy  EATOM  =      2781.95410799
  ---------------------------------------------------
  free energy    TOTEN  =         8.74478958 eV

  energy without entropy =        8.74478958  energy(sigma->0) =        8.74478958


--------------------------------------------------------------------------------------------------------




--------------------------------------- Iteration      1(   3)  ---------------------------------------


    TRIAL :  cpu time      0.6689: real time      0.6692
    CORREC:  cpu time      0.0009: real time      0.0009
    --------------------------------------------
      LOOP:  cpu time      0.6714: real time      0.6795

 eigenvalue-minimisations  :    64
 total energy-change (2. order) :-0.2880616E+01  (-0.2880616E+01)
 number of electron      22.0000000 magnetization 
 augmentation part       22.0000000 magnetization 

 Free energy of the ion-electron system (eV)
  ---------------------------------------------------
  alpha Z        PSCENC =         0.29603589
  Ewald energy   TEWEN  =       318.01082684
  -Hartree energ DENC   =     -2860.44585664
  -exchange      EXHF   =         0.00000000
  -V(xc)+E(xc)   XCENC  =       -18.12927635
  PAW double counting   =      2544.02776163    -2664.72066228
  entropy T*S    EENTRO =        -0.00000000
  eigenvalues    EBANDS =       -95.12876386
  atomic energy  EATOM  =      2781.95410799
  ---------------------------------------------------
  free energy    TOTEN  =         5.86417322 eV

  energy without entropy =        5.86417322  energy(sigma->0) =        5.86417322


--------------------------------------------------------------------------------------------------------




--------------------------------------- Iteration      1(   4)  ---------------------------------------


    TRIAL :  cpu time      0.6659: real time      0.6663
    CORREC:  cpu time      0.0009: real time      0.0009
    --------------------------------------------
      LOOP:  cpu time      0.6684: real time      0.6761

 eigenvalue-minimisations  :    64
 total energy-change (2. order) :-0.5996831E-01  (-0.5996831E-01)
 number of electron      22.0000000 magnetization 
 augmentation part       22.0000000 magnetization 

 Free energy of the ion-electron system (eV)
  ---------------------------------------------------
  alpha Z        PSCENC =         0.29603589
  Ewald energy   TEWEN  =       318.01082684
  -Hartree energ DENC   =     -2860.44585664
  -exchange      EXHF   =         0.00000000
  -V(xc)+E(xc)   XCENC  =       -18.12927635
  PAW double counting   =      2544.02776163    -2664.72066228
  entropy T*S    EENTRO =        -0.00000000
  eigenvalues    EBANDS =       -95.18873217
  atomic energy  EATOM  =      2781.95410799
  ---------------------------------------------------
  free energy    TOTEN  =         5.80420491 eV

  energy without entropy =        5.80420491  energy(sigma->0) =        5.80420491


--------------------------------------------------------------------------------------------------------




--------------------------------------- Iteration      1(   5)  ---------------------------------------


    TRIAL :  cpu time      1.0774: real time      1.0786
    CORREC:  cpu time      0.0009: real time      0.0009
    CHARGE:  cpu time     16.9953: real time     17.0021
    --------------------------------------------
      LOOP:  cpu time     18.0759: real time     18.0915

 eigenvalue-minimisations  :   128
 total energy-change (2. order) :-0.9698375E-03  (-0.9698375E-03)
 number of electron      22.0000025 magnetization 
 augmentation part       15.6635927 magnetization 

 Free energy of the ion-electron system (eV)
  ---------------------------------------------------
  alpha Z        PSCENC =         0.29603589
  Ewald energy   TEWEN  =       318.01082684
  -Hartree energ DENC   =     -2860.44585664
  -exchange      EXHF   =         0.00000000
  -V(xc)+E(xc)   XCENC  =       -18.12927635
  PAW double counting   =      2544.02776163    -2664.72066228
  entropy T*S    EENTRO =        -0.00000000
  eigenvalues    EBANDS =       -95.18970201
  atomic energy  EATOM  =      2781.95410799
  ---------------------------------------------------
  free energy    TOTEN  =         5.80323507 eV

  energy without entropy =        5.80323507  energy(sigma->0) =        5.80323507


--------------------------------------------------------------------------------------------------------




--------------------------------------- Iteration      1(   6)  ---------------------------------------


    POTLOK:  cpu time      1.0094: real time      1.0098
    SETDIJ:  cpu time      4.1285: real time      4.1313
    TRIAL :  cpu time      0.6864: real time      0.6885
    CORREC:  cpu time     22.7589: real time     22.7719
    CHARGE:  cpu time     17.2918: real time     17.3014
    --------------------------------------------
      LOOP:  cpu time     45.8784: real time     45.9151

 eigenvalue-minimisations  :     0
 total energy-change (2. order) :-0.8645032E+01  (-0.7703411E+01)
 number of electron      22.0000023 magnetization 
 augmentation part       14.6874016 magnetization 

 Free energy of the ion-electron system (eV)
  ---------------------------------------------------
  alpha Z        PSCENC =         0.29603589
  Ewald energy   TEWEN  =       318.01082684
  -Hartree energ DENC   =     -3004.56601993
  -exchange      EXHF   =         0.00000000
  -V(xc)+E(xc)   XCENC  =        -3.73897605
  PAW double counting   =      2975.78860771    -3132.95358950
  entropy T*S    EENTRO =        -0.00000000
  eigenvalues    EBANDS =        62.36721004
  atomic energy  EATOM  =      2781.95410799
  ---------------------------------------------------
  free energy    TOTEN  =        -2.84179702 eV

  energy without entropy =       -2.84179702  energy(sigma->0) =       -2.84179702


--------------------------------------------------------------------------------------------------------




--------------------------------------- Iteration      1(   7)  ---------------------------------------


    POTLOK:  cpu time      1.0380: real time      1.0393
    SETDIJ:  cpu time      4.1237: real time      4.1254
    TRIAL :  cpu time      0.6315: real time      0.6399
    CORREC:  cpu time     22.7135: real time     22.7260
    CHARGE:  cpu time     17.2735: real time     17.2838
    --------------------------------------------
      LOOP:  cpu time     45.7842: real time     45.8275

 eigenvalue-minimisations  :     0
 total energy-change (2. order) :-0.8545112E+01  (-0.4624670E+00)
 number of electron      22.0000023 magnetization 
 augmentation part       14.4136393 magnetization 

 Free energy of the ion-electron system (eV)
  ---------------------------------------------------
  alpha Z        PSCENC =         0.29603589
  Ewald energy   TEWEN  =       318.01082684
  -Hartree energ DENC   =     -2876.90532141
  -exchange      EXHF   =         0.00000000
  -V(xc)+E(xc)   XCENC  =        -1.17596800
  PAW double counting   =      2847.13537090    -2972.74828355
  entropy T*S    EENTRO =        -0.00000000
  eigenvalues    EBANDS =      -107.95367725
  atomic energy  EATOM  =      2781.95410799
  ---------------------------------------------------
  free energy    TOTEN  =       -11.38690860 eV

  energy without entropy =      -11.38690860  energy(sigma->0) =      -11.38690860


--------------------------------------------------------------------------------------------------------




--------------------------------------- Iteration      1(   8)  ---------------------------------------


    POTLOK:  cpu time      1.0182: real time      1.0187
    SETDIJ:  cpu time      4.1191: real time      4.1213
    TRIAL :  cpu time      0.6363: real time      0.6369
    CORREC:  cpu time     22.7226: real time     22.7345
    CHARGE:  cpu time     17.2463: real time     17.2572
    --------------------------------------------
      LOOP:  cpu time     45.7538: real time     45.7801

 eigenvalue-minimisations  :     0
 total energy-change (2. order) :-0.4724307E+00  (-0.7417619E+00)
 number of electron      22.0000023 magnetization 
 augmentation part       14.2607932 magnetization 

 Free energy of the ion-electron system (eV)
  ---------------------------------------------------
  alpha Z        PSCENC =         0.29603589
  Ewald energy   TEWEN  =       318.01082684
  -Hartree energ DENC   =     -2848.11477995
  -exchange      EXHF   =         0.00000000
  -V(xc)+E(xc)   XCENC  =        -0.31892286
  PAW double counting   =      2794.24957325    -2913.15412161
  entropy T*S    EENTRO =        -0.00000000
  eigenvalues    EBANDS =      -144.78205884
  atomic energy  EATOM  =      2781.95410799
  ---------------------------------------------------
  free energy    TOTEN  =       -11.85933930 eV

  energy without entropy =      -11.85933930  energy(sigma->0) =      -11.85933930


--------------------------------------------------------------------------------------------------------




--------------------------------------- Iteration      1(   9)  ---------------------------------------


    POTLOK:  cpu time      1.1564: real time      1.1568
    SETDIJ:  cpu time      4.1370: real time      4.1399
    TRIAL :  cpu time      0.6372: real time      0.6369
    CORREC:  cpu time     22.7936: real time     22.8071
    CHARGE:  cpu time     17.3202: real time     17.3285
    --------------------------------------------
      LOOP:  cpu time     46.0476: real time     46.0808

 eigenvalue-minimisations  :     0
 total energy-change (2. order) :-0.7422388E+00  (-0.1710087E+00)
 number of electron      22.0000023 magnetization 
 augmentation part       14.3696407 magnetization 

 Free energy of the ion-electron system (eV)
  ---------------------------------------------------
  alpha Z        PSCENC =         0.29603589
  Ewald energy   TEWEN  =       318.01082684
  -Hartree energ DENC   =     -2857.21045276
  -exchange      EXHF   =         0.00000000
  -V(xc)+E(xc)   XCENC  =         0.59443216
  PAW double counting   =      2679.83585851    -2799.76719955
  entropy T*S    EENTRO =        -0.00000000
  eigenvalues    EBANDS =      -136.31518717
  atomic energy  EATOM  =      2781.95410799
  ---------------------------------------------------
  free energy    TOTEN  =       -12.60157809 eV

  energy without entropy =      -12.60157809  energy(sigma->0) =      -12.60157809


--------------------------------------------------------------------------------------------------------




--------------------------------------- Iteration      1(  10)  ---------------------------------------


    POTLOK:  cpu time      1.3385: real time      1.3397
    SETDIJ:  cpu time      4.1316: real time      4.1341
    TRIAL :  cpu time      0.6358: real time      0.6365
    CORREC:  cpu time     22.7289: real time     22.7445
    CHARGE:  cpu time     17.2324: real time     17.2443
    --------------------------------------------
      LOOP:  cpu time     46.0701: real time     46.1107

 eigenvalue-minimisations  :     0
 total energy-change (2. order) :-0.1705524E+00  (-0.7146290E-01)
 number of electron      22.0000023 magnetization 
 augmentation part       14.4290796 magnetization 

 Free energy of the ion-electron system (eV)
  ---------------------------------------------------
  alpha Z        PSCENC =         0.29603589
  Ewald energy   TEWEN  =       318.01082684
  -Hartree energ DENC   =     -2878.34545860
  -exchange      EXHF   =         0.00000000
  -V(xc)+E(xc)   XCENC  =         0.37641751
  PAW double counting   =      2665.16839728    -2789.73071882
  entropy T*S    EENTRO =        -0.00000000
  eigenvalues    EBANDS =      -110.50173857
  atomic energy  EATOM  =      2781.95410799
  ---------------------------------------------------
  free energy    TOTEN  =       -12.77213048 eV

  energy without entropy =      -12.77213048  energy(sigma->0) =      -12.77213048


--------------------------------------------------------------------------------------------------------




--------------------------------------- Iteration      1(  11)  ---------------------------------------


    POTLOK:  cpu time      1.1369: real time      1.1375
    SETDIJ:  cpu time      4.1342: real time      4.1363
    TRIAL :  cpu time      0.6358: real time      0.6363
    CORREC:  cpu time     22.6081: real time     22.6231
    CHARGE:  cpu time     17.3261: real time     17.3378
    --------------------------------------------
      LOOP:  cpu time     45.8454: real time     45.8837

 eigenvalue-minimisations  :     0
 total energy-change (2. order) :-0.7147452E-01  (-0.5898673E-01)
 number of electron      22.0000023 magnetization 
 augmentation part       14.3754598 magnetization 

 Free energy of the ion-electron system (eV)
  ---------------------------------------------------
  alpha Z        PSCENC =         0.29603589
  Ewald energy   TEWEN  =       318.01082684
  -Hartree energ DENC   =     -2886.96839528
  -exchange      EXHF   =         0.00000000
  -V(xc)+E(xc)   XCENC  =         0.15498938
  PAW double counting   =      2652.80088213    -2779.86457580
  entropy T*S    EENTRO =        -0.00000000
  eigenvalues    EBANDS =       -99.22747614
  atomic energy  EATOM  =      2781.95410799
  ---------------------------------------------------
  free energy    TOTEN  =       -12.84360500 eV

  energy without entropy =      -12.84360500  energy(sigma->0) =      -12.84360500


--------------------------------------------------------------------------------------------------------




--------------------------------------- Iteration      1(  12)  ---------------------------------------


    POTLOK:  cpu time      1.0750: real time      1.0756
    SETDIJ:  cpu time      4.1235: real time      4.1267
    TRIAL :  cpu time      0.6372: real time      0.6370
    CORREC:  cpu time     22.6320: real time     22.6479
    CHARGE:  cpu time     17.3535: real time     17.3648
    --------------------------------------------
      LOOP:  cpu time     45.8325: real time     45.8638

 eigenvalue-minimisations  :     0
 total energy-change (2. order) :-0.6150204E-01  (-0.1362649E-01)
 number of electron      22.0000023 magnetization 
 augmentation part       14.3356470 magnetization 

 Free energy of the ion-electron system (eV)
  ---------------------------------------------------
  alpha Z        PSCENC =         0.29603589
  Ewald energy   TEWEN  =       318.01082684
  -Hartree energ DENC   =     -2878.49187217
  -exchange      EXHF   =         0.00000000
  -V(xc)+E(xc)   XCENC  =         0.22014068
  PAW double counting   =      2632.52005048    -2758.58527622
  entropy T*S    EENTRO =        -0.00000000
  eigenvalues    EBANDS =      -108.82912053
  atomic energy  EATOM  =      2781.95410799
  ---------------------------------------------------
  free energy    TOTEN  =       -12.90510704 eV

  energy without entropy =      -12.90510704  energy(sigma->0) =      -12.90510704


--------------------------------------------------------------------------------------------------------




--------------------------------------- Iteration      1(  13)  ---------------------------------------


    POTLOK:  cpu time      1.0293: real time      1.0298
    SETDIJ:  cpu time      4.1303: real time      4.1335
    TRIAL :  cpu time      0.6366: real time      0.6364
    CORREC:  cpu time     22.5072: real time     22.5219
    CHARGE:  cpu time     17.3433: real time     17.3616
    --------------------------------------------
      LOOP:  cpu time     45.6580: real time     45.6947

 eigenvalue-minimisations  :     0
 total energy-change (2. order) :-0.1385808E-01  (-0.2257959E-01)
 number of electron      22.0000023 magnetization 
 augmentation part       14.3294602 magnetization 

 Free energy of the ion-electron system (eV)
  ---------------------------------------------------
  alpha Z        PSCENC =         0.29603589
  Ewald energy   TEWEN  =       318.01082684
  -Hartree energ DENC   =     -2872.55863140
  -exchange      EXHF   =         0.00000000
  -V(xc)+E(xc)   XCENC  =         0.30763334
  PAW double counting   =      2628.59858581    -2753.49304512
  entropy T*S    EENTRO =        -0.00000000
  eigenvalues    EBANDS =      -116.03447847
  atomic energy  EATOM  =      2781.95410799
  ---------------------------------------------------
  free energy    TOTEN  =       -12.91896512 eV

  energy without entropy =      -12.91896512  energy(sigma->0) =      -12.91896512


--------------------------------------------------------------------------------------------------------




--------------------------------------- Iteration      1(  14)  ---------------------------------------


    POTLOK:  cpu time      0.8839: real time      0.8845
    SETDIJ:  cpu time      4.1372: real time      4.1396
    TRIAL :  cpu time      0.5778: real time      0.5785
    CORREC:  cpu time     22.3917: real time     22.4067
    CHARGE:  cpu time     17.2748: real time     17.2847
    --------------------------------------------
      LOOP:  cpu time     45.2698: real time     45.3077

 eigenvalue-minimisations  :     0
 total energy-change (2. order) :-0.2238149E-01  (-0.7971777E-02)
 number of electron      22.0000023 magnetization 
 augmentation part       14.3568498 magnetization 

 Free energy of the ion-electron system (eV)
  ---------------------------------------------------
  alpha Z        PSCENC =         0.29603589
  Ewald energy   TEWEN  =       318.01082684
  -Hartree energ DENC   =     -2871.07397470
  -exchange      EXHF   =         0.00000000
  -V(xc)+E(xc)   XCENC  =         0.29262758
  PAW double counting   =      2634.60718371    -2759.11545610
  entropy T*S    EENTRO =        -0.00000000
  eigenvalues    EBANDS =      -117.91269782
  atomic energy  EATOM  =      2781.95410799
  ---------------------------------------------------
  free energy    TOTEN  =       -12.94134661 eV

  energy without entropy =      -12.94134661  energy(sigma->0) =      -12.94134661


--------------------------------------------------------------------------------------------------------




--------------------------------------- Iteration      1(  15)  ---------------------------------------


    POTLOK:  cpu time      0.8348: real time      0.8351
    SETDIJ:  cpu time      4.1343: real time      4.1374
    TRIAL :  cpu time      0.6370: real time      0.6377
    CORREC:  cpu time     22.4283: real time     22.4403
    CHARGE:  cpu time     17.3263: real time     17.3344
    --------------------------------------------
      LOOP:  cpu time     45.3659: real time     45.3985

 eigenvalue-minimisations  :     0
 total energy-change (2. order) :-0.7867855E-02  (-0.4457939E-02)
 number of electron      22.0000023 magnetization 
 augmentation part       14.3756436 magnetization 

 Free energy of the ion-electron system (eV)
  ---------------------------------------------------
  alpha Z        PSCENC =         0.29603589
  Ewald energy   TEWEN  =       318.01082684
  -Hartree energ DENC   =     -2874.73976702
  -exchange      EXHF   =         0.00000000
  -V(xc)+E(xc)   XCENC  =         0.20916712
  PAW double counting   =      2641.28186065    -2766.51593008
  entropy T*S    EENTRO =        -0.00000000
  eigenvalues    EBANDS =      -113.44551586
  atomic energy  EATOM  =      2781.95410799
  ---------------------------------------------------
  free energy    TOTEN  =       -12.94921447 eV

  energy without entropy =      -12.94921447  energy(sigma->0) =      -12.94921447


--------------------------------------------------------------------------------------------------------




--------------------------------------- Iteration      1(  16)  ---------------------------------------


    POTLOK:  cpu time      0.8080: real time      0.8085
    SETDIJ:  cpu time      4.1221: real time      4.1246
    TRIAL :  cpu time      0.6397: real time      0.6403
    CORREC:  cpu time     22.4672: real time     22.4792
    CHARGE:  cpu time     17.3532: real time     17.3630
    --------------------------------------------
      LOOP:  cpu time     45.4029: real time     45.4284

 eigenvalue-minimisations  :     0
 total energy-change (2. order) :-0.4462104E-02  (-0.4151386E-02)
 number of electron      22.0000023 magnetization 
 augmentation part       14.3672215 magnetization 

 Free energy of the ion-electron system (eV)
  ---------------------------------------------------
  alpha Z        PSCENC =         0.29603589
  Ewald energy   TEWEN  =       318.01082684
  -Hartree energ DENC   =     -2877.59465692
  -exchange      EXHF   =         0.00000000
  -V(xc)+E(xc)   XCENC  =         0.15995636
  PAW double counting   =      2647.02781676    -2772.77729071
  entropy T*S    EENTRO =        -0.00000000
  eigenvalues    EBANDS =      -110.03047277
  atomic energy  EATOM  =      2781.95410799
  ---------------------------------------------------
  free energy    TOTEN  =       -12.95367657 eV

  energy without entropy =      -12.95367657  energy(sigma->0) =      -12.95367657


--------------------------------------------------------------------------------------------------------




--------------------------------------- Iteration      1(  17)  ---------------------------------------


    POTLOK:  cpu time      0.7862: real time      0.7869
    SETDIJ:  cpu time      4.1288: real time      4.1312
    TRIAL :  cpu time      0.6362: real time      0.6368
    CORREC:  cpu time     22.4004: real time     22.4122
    CHARGE:  cpu time     17.4234: real time     17.4319
    --------------------------------------------
      LOOP:  cpu time     45.3778: real time     45.4102

 eigenvalue-minimisations  :     0
 total energy-change (2. order) :-0.4192818E-02  (-0.1055269E-02)
 number of electron      22.0000023 magnetization 
 augmentation part       14.3557878 magnetization 

 Free energy of the ion-electron system (eV)
  ---------------------------------------------------
  alpha Z        PSCENC =         0.29603589
  Ewald energy   TEWEN  =       318.01082684
  -Hartree energ DENC   =     -2876.87424836
  -exchange      EXHF   =         0.00000000
  -V(xc)+E(xc)   XCENC  =         0.18884694
  PAW double counting   =      2650.56812320    -2776.08443509
  entropy T*S    EENTRO =        -0.00000000
  eigenvalues    EBANDS =      -111.01712680
  atomic energy  EATOM  =      2781.95410799
  ---------------------------------------------------
  free energy    TOTEN  =       -12.95786939 eV

  energy without entropy =      -12.95786939  energy(sigma->0) =      -12.95786939


--------------------------------------------------------------------------------------------------------




--------------------------------------- Iteration      1(  18)  ---------------------------------------


    POTLOK:  cpu time      0.7794: real time      0.7799
    SETDIJ:  cpu time      4.1274: real time      4.1306
    TRIAL :  cpu time      0.6382: real time      0.6381
    CORREC:  cpu time     22.3793: real time     22.3915
    CHARGE:  cpu time     17.3475: real time     17.3568
    --------------------------------------------
      LOOP:  cpu time     45.2743: real time     45.3339

 eigenvalue-minimisations  :     0
 total energy-change (2. order) :-0.1046502E-02  (-0.1362473E-02)
 number of electron      22.0000023 magnetization 
 augmentation part       14.3488441 magnetization 

 Free energy of the ion-electron system (eV)
  ---------------------------------------------------
  alpha Z        PSCENC =         0.29603589
  Ewald energy   TEWEN  =       318.01082684
  -Hartree energ DENC   =     -2875.57069116
  -exchange      EXHF   =         0.00000000
  -V(xc)+E(xc)   XCENC  =         0.22519319
  PAW double counting   =      2650.62135708    -2775.83771210
  entropy T*S    EENTRO =        -0.00000000
  eigenvalues    EBANDS =      -112.65803363
  atomic energy  EATOM  =      2781.95410799
  ---------------------------------------------------
  free energy    TOTEN  =       -12.95891589 eV

  energy without entropy =      -12.95891589  energy(sigma->0) =      -12.95891589


--------------------------------------------------------------------------------------------------------




--------------------------------------- Iteration      1(  19)  ---------------------------------------


    POTLOK:  cpu time      0.7429: real time      0.7436
    SETDIJ:  cpu time      4.1347: real time      4.1372
    TRIAL :  cpu time      0.6388: real time      0.6394
    CORREC:  cpu time     22.3501: real time     22.3622
    CHARGE:  cpu time     17.3237: real time     17.3317
    --------------------------------------------
      LOOP:  cpu time     45.1944: real time     45.2268

 eigenvalue-minimisations  :     0
 total energy-change (2. order) :-0.1364885E-02  (-0.7184074E-03)
 number of electron      22.0000023 magnetization 
 augmentation part       14.3546530 magnetization 

 Free energy of the ion-electron system (eV)
  ---------------------------------------------------
  alpha Z        PSCENC =         0.29603589
  Ewald energy   TEWEN  =       318.01082684
  -Hartree energ DENC   =     -2875.25228218
  -exchange      EXHF   =         0.00000000
  -V(xc)+E(xc)   XCENC  =         0.25668674
  PAW double counting   =      2651.20786044    -2776.30286057
  entropy T*S    EENTRO =        -0.00000000
  eigenvalues    EBANDS =      -113.13065592
  atomic energy  EATOM  =      2781.95410799
  ---------------------------------------------------
  free energy    TOTEN  =       -12.96028078 eV

  energy without entropy =      -12.96028078  energy(sigma->0) =      -12.96028078


--------------------------------------------------------------------------------------------------------




--------------------------------------- Iteration      1(  20)  ---------------------------------------


    POTLOK:  cpu time      0.7308: real time      0.7314
    SETDIJ:  cpu time      4.1340: real time      4.1372
    TRIAL :  cpu time      0.6362: real time      0.6360
    CORREC:  cpu time     22.3910: real time     22.4053
    CHARGE:  cpu time     17.3734: real time     17.3853
    --------------------------------------------
      LOOP:  cpu time     45.2694: real time     45.3076

 eigenvalue-minimisations  :     0
 total energy-change (2. order) :-0.7307465E-03  (-0.3102599E-03)
 number of electron      22.0000023 magnetization 
 augmentation part       14.3599746 magnetization 

 Free energy of the ion-electron system (eV)
  ---------------------------------------------------
  alpha Z        PSCENC =         0.29603589
  Ewald energy   TEWEN  =       318.01082684
  -Hartree energ DENC   =     -2876.39690308
  -exchange      EXHF   =         0.00000000
  -V(xc)+E(xc)   XCENC  =         0.24646674
  PAW double counting   =      2652.08911393    -2777.39600923
  entropy T*S    EENTRO =        -0.00000000
  eigenvalues    EBANDS =      -111.76465060
  atomic energy  EATOM  =      2781.95410799
  ---------------------------------------------------
  free energy    TOTEN  =       -12.96101152 eV

  energy without entropy =      -12.96101152  energy(sigma->0) =      -12.96101152


--------------------------------------------------------------------------------------------------------




--------------------------------------- Iteration      1(  21)  ---------------------------------------


    POTLOK:  cpu time      0.7152: real time      0.7158
    SETDIJ:  cpu time      4.1273: real time      4.1297
    TRIAL :  cpu time      0.6326: real time      0.6333
    CORREC:  cpu time     22.2815: real time     22.2961
    CHARGE:  cpu time     17.3342: real time     17.3460
    --------------------------------------------
      LOOP:  cpu time     45.0955: real time     45.1347

 eigenvalue-minimisations  :     0
 total energy-change (2. order) :-0.3105339E-03  (-0.4182358E-03)
 number of electron      22.0000023 magnetization 
 augmentation part       14.3590097 magnetization 

 Free energy of the ion-electron system (eV)
  ---------------------------------------------------
  alpha Z        PSCENC =         0.29603589
  Ewald energy   TEWEN  =       318.01082684
  -Hartree energ DENC   =     -2877.15643680
  -exchange      EXHF   =         0.00000000
  -V(xc)+E(xc)   XCENC  =         0.22935986
  PAW double counting   =      2652.05859713    -2777.53093521
  entropy T*S    EENTRO =        -0.00000000
  eigenvalues    EBANDS =      -110.82287775
  atomic energy  EATOM  =      2781.95410799
  ---------------------------------------------------
  free energy    TOTEN  =       -12.96132206 eV

  energy without entropy =      -12.96132206  energy(sigma->0) =      -12.96132206


--------------------------------------------------------------------------------------------------------




--------------------------------------- Iteration      1(  22)  ---------------------------------------


    POTLOK:  cpu time      0.7133: real time      0.7140
    SETDIJ:  cpu time      4.1202: real time      4.1234
    TRIAL :  cpu time      0.6339: real time      0.6338
    CORREC:  cpu time     22.3575: real time     22.3726
    CHARGE:  cpu time     17.2577: real time     17.2710
    --------------------------------------------
      LOOP:  cpu time     45.0860: real time     45.1267

 eigenvalue-minimisations  :     0
 total energy-change (2. order) :-0.4188323E-03  (-0.1233510E-03)
 number of electron      22.0000023 magnetization 
 augmentation part       14.3555192 magnetization 

 Free energy of the ion-electron system (eV)
  ---------------------------------------------------
  alpha Z        PSCENC =         0.29603589
  Ewald energy   TEWEN  =       318.01082684
  -Hartree energ DENC   =     -2876.93858380
  -exchange      EXHF   =         0.00000000
  -V(xc)+E(xc)   XCENC  =         0.22414901
  PAW double counting   =      2650.70545495    -2776.15914096
  entropy T*S    EENTRO =        -0.00000000
  eigenvalues    EBANDS =      -111.05459081
  atomic energy  EATOM  =      2781.95410799
  ---------------------------------------------------
  free energy    TOTEN  =       -12.96174089 eV

  energy without entropy =      -12.96174089  energy(sigma->0) =      -12.96174089


--------------------------------------------------------------------------------------------------------




--------------------------------------- Iteration      1(  23)  ---------------------------------------


    POTLOK:  cpu time      0.7091: real time      0.7089
    SETDIJ:  cpu time      4.1241: real time      4.1271
    TRIAL :  cpu time      0.6355: real time      0.6361
    CORREC:  cpu time     22.2615: real time     22.2766
    CHARGE:  cpu time     17.3668: real time     17.3784
    --------------------------------------------
      LOOP:  cpu time     45.1017: real time     45.1402

 eigenvalue-minimisations  :     0
 total energy-change (2. order) :-0.1174147E-03  (-0.9578935E-04)
 number of electron      22.0000023 magnetization 
 augmentation part       14.3535251 magnetization 

 Free energy of the ion-electron system (eV)
  ---------------------------------------------------
  alpha Z        PSCENC =         0.29603589
  Ewald energy   TEWEN  =       318.01082684
  -Hartree energ DENC   =     -2876.43024529
  -exchange      EXHF   =         0.00000000
  -V(xc)+E(xc)   XCENC  =         0.23147870
  PAW double counting   =      2650.00501533    -2775.35795928
  entropy T*S    EENTRO =        -0.00000000
  eigenvalues    EBANDS =      -111.67111848
  atomic energy  EATOM  =      2781.95410799
  ---------------------------------------------------
  free energy    TOTEN  =       -12.96185831 eV

  energy without entropy =      -12.96185831  energy(sigma->0) =      -12.96185831


--------------------------------------------------------------------------------------------------------




--------------------------------------- Iteration      1(  24)  ---------------------------------------


    POTLOK:  cpu time      0.7017: real time      0.7024
    SETDIJ:  cpu time      4.1324: real time      4.1348
    TRIAL :  cpu time      0.6360: real time      0.6367
    CORREC:  cpu time     22.3314: real time     22.3465
    CHARGE:  cpu time     17.2741: real time     17.2857
    --------------------------------------------
      LOOP:  cpu time     45.0873: real time     45.1180

 eigenvalue-minimisations  :     0
 total energy-change (2. order) :-0.9705084E-04  (-0.9883825E-04)
 number of electron      22.0000023 magnetization 
 augmentation part       14.3554072 magnetization 

 Free energy of the ion-electron system (eV)
  ---------------------------------------------------
  alpha Z        PSCENC =         0.29603589
  Ewald energy   TEWEN  =       318.01082684
  -Hartree energ DENC   =     -2876.16329477
  -exchange      EXHF   =         0.00000000
  -V(xc)+E(xc)   XCENC  =         0.23633972
  PAW double counting   =      2649.62679818    -2774.91608729
  entropy T*S    EENTRO =        -0.00000000
  eigenvalues    EBANDS =      -112.00668191
  atomic energy  EATOM  =      2781.95410799
  ---------------------------------------------------
  free energy    TOTEN  =       -12.96195536 eV

  energy without entropy =      -12.96195536  energy(sigma->0) =      -12.96195536


--------------------------------------------------------------------------------------------------------




--------------------------------------- Iteration      1(  25)  ---------------------------------------


    POTLOK:  cpu time      0.6982: real time      0.6987
    SETDIJ:  cpu time      4.1354: real time      4.1386
    TRIAL :  cpu time      0.6371: real time      0.6376
    CORREC:  cpu time     22.2757: real time     22.2899
    CHARGE:  cpu time     17.3079: real time     17.3207
    --------------------------------------------
      LOOP:  cpu time     45.0583: real time     45.0980

 eigenvalue-minimisations  :     0
 total energy-change (2. order) :-0.9931057E-04  (-0.2346504E-04)
 number of electron      22.0000023 magnetization 
 augmentation part       14.3572693 magnetization 

 Free energy of the ion-electron system (eV)
  ---------------------------------------------------
  alpha Z        PSCENC =         0.29603589
  Ewald energy   TEWEN  =       318.01082684
  -Hartree energ DENC   =     -2876.44642104
  -exchange      EXHF   =         0.00000000
  -V(xc)+E(xc)   XCENC  =         0.23134009
  PAW double counting   =      2649.71229757    -2775.04511704
  entropy T*S    EENTRO =        -0.00000000
  eigenvalues    EBANDS =      -111.67512497
  atomic energy  EATOM  =      2781.95410799
  ---------------------------------------------------
  free energy    TOTEN  =       -12.96205467 eV

  energy without entropy =      -12.96205467  energy(sigma->0) =      -12.96205467


--------------------------------------------------------------------------------------------------------




--------------------------------------- Iteration      1(  26)  ---------------------------------------


    POTLOK:  cpu time      0.6972: real time      0.6976
    SETDIJ:  cpu time      4.1373: real time      4.1398
    TRIAL :  cpu time      0.6368: real time      0.6375
    CORREC:  cpu time     22.2576: real time     22.2728
    CHARGE:  cpu time     17.2514: real time     17.2623
    --------------------------------------------
      LOOP:  cpu time     44.9836: real time     45.0215

 eigenvalue-minimisations  :     0
 total energy-change (2. order) :-0.2364752E-04  (-0.2438935E-04)
 number of electron      22.0000023 magnetization 
 augmentation part       14.3574698 magnetization 

 Free energy of the ion-electron system (eV)
  ---------------------------------------------------
  alpha Z        PSCENC =         0.29603589
  Ewald energy   TEWEN  =       318.01082684
  -Hartree energ DENC   =     -2876.69926275
  -exchange      EXHF   =         0.00000000
  -V(xc)+E(xc)   XCENC  =         0.22639780
  PAW double counting   =      2649.94831622    -2775.32857343
  entropy T*S    EENTRO =        -0.00000000
  eigenvalues    EBANDS =      -111.36992687
  atomic energy  EATOM  =      2781.95410799
  ---------------------------------------------------
  free energy    TOTEN  =       -12.96207831 eV

  energy without entropy =      -12.96207831  energy(sigma->0) =      -12.96207831


--------------------------------------------------------------------------------------------------------




--------------------------------------- Iteration      1(  27)  ---------------------------------------


    POTLOK:  cpu time      0.7064: real time      0.7070
    SETDIJ:  cpu time      4.1308: real time      4.1333
    TRIAL :  cpu time      0.6360: real time      0.6365
    CORREC:  cpu time     22.2095: real time     22.2249
    CHARGE:  cpu time     17.2421: real time     17.2538
    --------------------------------------------
      LOOP:  cpu time     44.9386: real time     44.9697

 eigenvalue-minimisations  :     0
 total energy-change (2. order) :-0.2435675E-04  (-0.9650668E-05)
 number of electron      22.0000023 magnetization 
 augmentation part       14.3566062 magnetization 

 Free energy of the ion-electron system (eV)
  ---------------------------------------------------
  alpha Z        PSCENC =         0.29603589
  Ewald energy   TEWEN  =       318.01082684
  -Hartree energ DENC   =     -2876.69889554
  -exchange      EXHF   =         0.00000000
  -V(xc)+E(xc)   XCENC  =         0.22587598
  PAW double counting   =      2650.12646081    -2775.50241462
  entropy T*S    EENTRO =        -0.00000000
  eigenvalues    EBANDS =      -111.37410001
  atomic energy  EATOM  =      2781.95410799
  ---------------------------------------------------
  free energy    TOTEN  =       -12.96210267 eV

  energy without entropy =      -12.96210267  energy(sigma->0) =      -12.96210267


--------------------------------------------------------------------------------------------------------




--------------------------------------- Iteration      1(  28)  ---------------------------------------


    POTLOK:  cpu time      0.6993: real time      0.7000
    SETDIJ:  cpu time      4.1158: real time      4.1191
    TRIAL :  cpu time      0.6377: real time      0.6375
    CORREC:  cpu time     22.2712: real time     22.2861
    CHARGE:  cpu time     17.2588: real time     17.2700
    --------------------------------------------
      LOOP:  cpu time     44.9863: real time     45.0260

 eigenvalue-minimisations  :     0
 total energy-change (2. order) :-0.8328809E-05  (-0.4925511E-05)
 number of electron      22.0000023 magnetization 
 augmentation part       14.3560463 magnetization 

 Free energy of the ion-electron system (eV)
  ---------------------------------------------------
  alpha Z        PSCENC =         0.29603589
  Ewald energy   TEWEN  =       318.01082684
  -Hartree energ DENC   =     -2876.56589379
  -exchange      EXHF   =         0.00000000
  -V(xc)+E(xc)   XCENC  =         0.22819416
  PAW double counting   =      2650.10911865    -2775.45734467
  entropy T*S    EENTRO =        -0.00000000
  eigenvalues    EBANDS =      -111.53715606
  atomic energy  EATOM  =      2781.95410799
  ---------------------------------------------------
  free energy    TOTEN  =       -12.96211100 eV

  energy without entropy =      -12.96211100  energy(sigma->0) =      -12.96211100


--------------------------------------------------------------------------------------------------------




--------------------------------------- Iteration      1(  29)  ---------------------------------------


    POTLOK:  cpu time      0.7004: real time      0.7013
    SETDIJ:  cpu time      4.1223: real time      4.1253
    TRIAL :  cpu time      0.6328: real time      0.6334
    CORREC:  cpu time     22.1738: real time     22.2097
    CHARGE:  cpu time     17.2866: real time     17.2988
    --------------------------------------------
      LOOP:  cpu time     44.9218: real time     44.9828

 eigenvalue-minimisations  :     0
 total energy-change (2. order) :-0.4578085E-05  (-0.1043693E-04)
 number of electron      22.0000023 magnetization 
 augmentation part       14.3560493 magnetization 

 Free energy of the ion-electron system (eV)
  ---------------------------------------------------
  alpha Z        PSCENC =         0.29603589
  Ewald energy   TEWEN  =       318.01082684
  -Hartree energ DENC   =     -2876.48067436
  -exchange      EXHF   =         0.00000000
  -V(xc)+E(xc)   XCENC  =         0.22972741
  PAW double counting   =      2650.09682122    -2775.42844153
  entropy T*S    EENTRO =        -0.00000000
  eigenvalues    EBANDS =      -111.64051903
  atomic energy  EATOM  =      2781.95410799
  ---------------------------------------------------
  free energy    TOTEN  =       -12.96211558 eV

  energy without entropy =      -12.96211558  energy(sigma->0) =      -12.96211558


--------------------------------------------------------------------------------------------------------




--------------------------------------- Iteration      1(  30)  ---------------------------------------


    POTLOK:  cpu time      0.7022: real time      0.7021
    SETDIJ:  cpu time      4.1352: real time      4.1385
    TRIAL :  cpu time      0.5710: real time      0.5717
    CORREC:  cpu time     22.3354: real time     22.3515
    CHARGE:  cpu time     17.2154: real time     17.2262
    --------------------------------------------
      LOOP:  cpu time     44.9622: real time     45.0017

 eigenvalue-minimisations  :     0
 total energy-change (2. order) :-0.9961383E-05  (-0.3682300E-05)
 number of electron      22.0000023 magnetization 
 augmentation part       14.3568332 magnetization 

 Free energy of the ion-electron system (eV)
  ---------------------------------------------------
  alpha Z        PSCENC =         0.29603589
  Ewald energy   TEWEN  =       318.01082684
  -Hartree energ DENC   =     -2876.46828884
  -exchange      EXHF   =         0.00000000
  -V(xc)+E(xc)   XCENC  =         0.22990277
  PAW double counting   =      2650.18883952    -2775.52118089
  entropy T*S    EENTRO =        -0.00000000
  eigenvalues    EBANDS =      -111.65236881
  atomic energy  EATOM  =      2781.95410799
  ---------------------------------------------------
  free energy    TOTEN  =       -12.96212554 eV

  energy without entropy =      -12.96212554  energy(sigma->0) =      -12.96212554


--------------------------------------------------------------------------------------------------------




--------------------------------------- Iteration      1(  31)  ---------------------------------------


    POTLOK:  cpu time      0.6998: real time      0.7005
    SETDIJ:  cpu time      4.1157: real time      4.1181
    TRIAL :  cpu time      0.6351: real time      0.6356
    CORREC:  cpu time     22.2213: real time     22.2366
    CHARGE:  cpu time     17.2635: real time     17.2751
    --------------------------------------------
      LOOP:  cpu time     44.9384: real time     44.9775

 eigenvalue-minimisations  :     0
 total energy-change (2. order) :-0.3451978E-05  (-0.2703418E-05)
 number of electron      22.0000023 magnetization 
 augmentation part       14.3564092 magnetization 

 Free energy of the ion-electron system (eV)
  ---------------------------------------------------
  alpha Z        PSCENC =         0.29603589
  Ewald energy   TEWEN  =       318.01082684
  -Hartree energ DENC   =     -2876.57485317
  -exchange      EXHF   =         0.00000000
  -V(xc)+E(xc)   XCENC  =         0.22808114
  PAW double counting   =      2650.30596081    -2775.66215247
  entropy T*S    EENTRO =        -0.00000000
  eigenvalues    EBANDS =      -111.52013601
  atomic energy  EATOM  =      2781.95410799
  ---------------------------------------------------
  free energy    TOTEN  =       -12.96212899 eV

  energy without entropy =      -12.96212899  energy(sigma->0) =      -12.96212899


--------------------------------------------------------------------------------------------------------




--------------------------------------- Iteration      1(  32)  ---------------------------------------


    POTLOK:  cpu time      0.6981: real time      0.6989
    SETDIJ:  cpu time      4.1300: real time      4.1324
    TRIAL :  cpu time      0.6366: real time      0.6372
    CORREC:  cpu time     22.3099: real time     22.3246
    CHARGE:  cpu time     17.3150: real time     17.3264
    --------------------------------------------
      LOOP:  cpu time     45.1018: real time     45.1317

 eigenvalue-minimisations  :     0
 total energy-change (2. order) :-0.2295732E-05  (-0.1878529E-05)
 number of electron      22.0000023 magnetization 
 augmentation part       14.3562954 magnetization 

 Free energy of the ion-electron system (eV)
  ---------------------------------------------------
  alpha Z        PSCENC =         0.29603589
  Ewald energy   TEWEN  =       318.01082684
  -Hartree energ DENC   =     -2876.51825328
  -exchange      EXHF   =         0.00000000
  -V(xc)+E(xc)   XCENC  =         0.22932824
  PAW double counting   =      2650.25336451    -2775.59783132
  entropy T*S    EENTRO =        -0.00000000
  eigenvalues    EBANDS =      -111.58971016
  atomic energy  EATOM  =      2781.95410799
  ---------------------------------------------------
  free energy    TOTEN  =       -12.96213129 eV

  energy without entropy =      -12.96213129  energy(sigma->0) =      -12.96213129


--------------------------------------------------------------------------------------------------------




--------------------------------------- Iteration      1(  33)  ---------------------------------------


    POTLOK:  cpu time      0.7017: real time      0.7022
    SETDIJ:  cpu time      4.1154: real time      4.1187
    TRIAL :  cpu time      0.6375: real time      0.6373
    CORREC:  cpu time     22.2859: real time     22.3008
    CHARGE:  cpu time     17.3251: real time     17.3381
    --------------------------------------------
      LOOP:  cpu time     45.0698: real time     45.1108

 eigenvalue-minimisations  :     0
 total energy-change (2. order) :-0.1952765E-05  (-0.3444567E-05)
 number of electron      22.0000023 magnetization 
 augmentation part       14.3572540 magnetization 

 Free energy of the ion-electron system (eV)
  ---------------------------------------------------
  alpha Z        PSCENC =         0.29603589
  Ewald energy   TEWEN  =       318.01082684
  -Hartree energ DENC   =     -2876.50591866
  -exchange      EXHF   =         0.00000000
  -V(xc)+E(xc)   XCENC  =         0.22977727
  PAW double counting   =      2650.21963578    -2775.56140612
  entropy T*S    EENTRO =        -0.00000000
  eigenvalues    EBANDS =      -111.60519222
  atomic energy  EATOM  =      2781.95410799
  ---------------------------------------------------
  free energy    TOTEN  =       -12.96213324 eV

  energy without entropy =      -12.96213324  energy(sigma->0) =      -12.96213324


--------------------------------------------------------------------------------------------------------




--------------------------------------- Iteration      1(  34)  ---------------------------------------


    POTLOK:  cpu time      0.7016: real time      0.7015
    SETDIJ:  cpu time      4.1261: real time      4.1294
    TRIAL :  cpu time      0.5697: real time      0.5704
    CORREC:  cpu time     22.2670: real time     22.2822
    CHARGE:  cpu time     17.2859: real time     17.2966
    --------------------------------------------
      LOOP:  cpu time     44.9538: real time     44.9926

 eigenvalue-minimisations  :     0
 total energy-change (2. order) : 0.5045604E-05  (-0.5296067E-05)
 number of electron      22.0000023 magnetization 
 augmentation part       14.3565047 magnetization 

 Free energy of the ion-electron system (eV)
  ---------------------------------------------------
  alpha Z        PSCENC =         0.29603589
  Ewald energy   TEWEN  =       318.01082684
  -Hartree energ DENC   =     -2876.64572139
  -exchange      EXHF   =         0.00000000
  -V(xc)+E(xc)   XCENC  =         0.22745707
  PAW double counting   =      2650.21772879    -2775.58801620
  entropy T*S    EENTRO =        -0.00000000
  eigenvalues    EBANDS =      -111.43454718
  atomic energy  EATOM  =      2781.95410799
  ---------------------------------------------------
  free energy    TOTEN  =       -12.96212819 eV

  energy without entropy =      -12.96212819  energy(sigma->0) =      -12.96212819


--------------------------------------------------------------------------------------------------------




--------------------------------------- Iteration      1(  35)  ---------------------------------------


    POTLOK:  cpu time      0.7003: real time      0.7008
    SETDIJ:  cpu time      4.1291: real time      4.1316
    TRIAL :  cpu time      0.6356: real time      0.6362
    CORREC:  cpu time     22.3403: real time     22.3556
    CHARGE:  cpu time     17.3726: real time     17.3843
    --------------------------------------------
      LOOP:  cpu time     45.1898: real time     45.2206

 eigenvalue-minimisations  :     0
 total energy-change (2. order) :-0.4058822E-05  (-0.9750325E-06)
 number of electron      22.0000023 magnetization 
 augmentation part       14.3563138 magnetization 

 Free energy of the ion-electron system (eV)
  ---------------------------------------------------
  alpha Z        PSCENC =         0.29603589
  Ewald energy   TEWEN  =       318.01082684
  -Hartree energ DENC   =     -2876.53894734
  -exchange      EXHF   =         0.00000000
  -V(xc)+E(xc)   XCENC  =         0.22940871
  PAW double counting   =      2650.14674447    -2775.49540151
  entropy T*S    EENTRO =        -0.00000000
  eigenvalues    EBANDS =      -111.56490728
  atomic energy  EATOM  =      2781.95410799
  ---------------------------------------------------
  free energy    TOTEN  =       -12.96213225 eV

  energy without entropy =      -12.96213225  energy(sigma->0) =      -12.96213225


--------------------------------------------------------------------------------------------------------




--------------------------------------- Iteration      1(  36)  ---------------------------------------


    POTLOK:  cpu time      0.7028: real time      0.7034
    SETDIJ:  cpu time      4.1213: real time      4.1245
    TRIAL :  cpu time      0.6381: real time      0.6380
    CORREC:  cpu time     22.3477: real time     22.3604
    CHARGE:  cpu time     17.3512: real time     17.3596
    --------------------------------------------
      LOOP:  cpu time     45.1639: real time     45.2529

 eigenvalue-minimisations  :     0
 total energy-change (2. order) :-0.7583667E-06  (-0.1528342E-05)
 number of electron      22.0000023 magnetization 
 augmentation part       14.3564201 magnetization 

 Free energy of the ion-electron system (eV)
  ---------------------------------------------------
  alpha Z        PSCENC =         0.29603589
  Ewald energy   TEWEN  =       318.01082684
  -Hartree energ DENC   =     -2876.50990090
  -exchange      EXHF   =         0.00000000
  -V(xc)+E(xc)   XCENC  =         0.22984924
  PAW double counting   =      2650.13085510    -2775.47377030
  entropy T*S    EENTRO =        -0.00000000
  eigenvalues    EBANDS =      -111.60013687
  atomic energy  EATOM  =      2781.95410799
  ---------------------------------------------------
  free energy    TOTEN  =       -12.96213301 eV

  energy without entropy =      -12.96213301  energy(sigma->0) =      -12.96213301


--------------------------------------------------------------------------------------------------------




--------------------------------------- Iteration      1(  37)  ---------------------------------------


    POTLOK:  cpu time      0.7025: real time      0.7023
    SETDIJ:  cpu time      4.1194: real time      4.1225
    TRIAL :  cpu time      0.6353: real time      0.6358
    CORREC:  cpu time     22.3181: real time     22.3298
    CHARGE:  cpu time     17.2699: real time     17.2775
    --------------------------------------------
      LOOP:  cpu time     45.0505: real time     45.0819

 eigenvalue-minimisations  :     0
 total energy-change (2. order) :-0.1276707E-05  ( 0.4474062E-06)
 number of electron      22.0000023 magnetization 
 augmentation part       14.3564826 magnetization 

 Free energy of the ion-electron system (eV)
  ---------------------------------------------------
  alpha Z        PSCENC =         0.29603589
  Ewald energy   TEWEN  =       318.01082684
  -Hartree energ DENC   =     -2876.51855089
  -exchange      EXHF   =         0.00000000
  -V(xc)+E(xc)   XCENC  =         0.22938524
  PAW double counting   =      2650.15105798    -2775.49617665
  entropy T*S    EENTRO =        -0.00000000
  eigenvalues    EBANDS =      -111.58882068
  atomic energy  EATOM  =      2781.95410799
  ---------------------------------------------------
  free energy    TOTEN  =       -12.96213429 eV

  energy without entropy =      -12.96213429  energy(sigma->0) =      -12.96213429


--------------------------------------------------------------------------------------------------------




--------------------------------------- Iteration      1(  38)  ---------------------------------------


    POTLOK:  cpu time      0.6975: real time      0.6980
    SETDIJ:  cpu time      4.1379: real time      4.1402
    TRIAL :  cpu time      0.5699: real time      0.5704
    CORREC:  cpu time     22.2323: real time     22.2453
    EDDIAG:  cpu time      0.1613: real time      0.1633
    CHARGE:  cpu time     17.3201: real time     17.3287
    --------------------------------------------
      LOOP:  cpu time     45.1226: real time     45.1581

 eigenvalue-minimisations  :     0
 total energy-change (2. order) :-0.5287402E-06  (-0.3616158E-07)
 number of electron      22.0000023 magnetization 
 augmentation part       14.3564648 magnetization 

 Free energy of the ion-electron system (eV)
  ---------------------------------------------------
  alpha Z        PSCENC =         0.29603589
[...]
  462                      m_alltoallv_z                         0.051573             57  10
  463                      map_scatter                           0.095048             57  10
  464            m_sumb_d                              2.006356                       20   5
  465            fft3d_mpi                             0.513635                       38   5
  466              fftbrc_mpi                            0.471725                     38   6
  467                fftbas_plan_mpi                       0.471614                   38   7
  468                  dfftw_execute                         0.137180                114   8
  469                  map_backward                          0.127208                 38   8
  470                    map_gather                            0.031593               38   9
  471                    m_alltoallv_z                         0.091235               38   9
  472                    map_scatter                           0.003850               38   9
  473                  map_forward                           0.181125                 38   8
  474                    map_gather                            0.011581               19   9
  475                    m_alltoallv_z                         0.146811               19   9
  476                    map_scatter                           0.022283               19   9
  477          fft3d_mpi                             0.189478                         19   4
  478            fftbrc_mpi                            0.178462                       19   5
  479              fftbas_plan_mpi                       0.178394                     19   6
  480                dfftw_execute                         0.056152                   57   7
  481                map_forward                           0.107973                   38   7
  482                  map_gather                            0.009337                 19   8
  483                  m_alltoallv_z                         0.075584                 19   8
  484                  map_scatter                           0.022664                 19   8
  485          m_sumb_d                              0.010634                         18   4
  486        potxc_metagga                         0.585827                            1   3
  487          fft3d_mpi                             0.377722                         14   4
  488            fftbrc_mpi                            0.368970                       14   5
  489              fftbas_plan_mpi                       0.368929                     14   6
  490                dfftw_execute                         0.045189                   42   7
  491                map_forward                           0.052698                   16   7
  492                  map_gather                            0.004563                  8   8
  493                  m_alltoallv_z                         0.038619                  8   8
  494                  map_scatter                           0.009337                  8   8
  495                map_backward                          0.259604                   12   7
  496                  map_gather                            0.006825                  6   8
  497                  m_alltoallv_z                         0.248648                  6   8
  498                  map_scatter                           0.003998                  6   8
  499          m_sumb_d                              0.001080                          3   4
  500        fortau                                0.008518                            1   3
  501          m_sumb_d                              0.001297                          1   4
  502        forhar                                0.007461                            1   3
  503          m_sumb_d                              0.000363                          1   4
  504        strehar                               0.005956                            1   3
  505          m_sumb_d                              0.000299                          1   4
  506        m_bcast_d                             0.000603                            2   3
  507      potlok                                0.075297                              1   2
  508        fft3d_mpi                             0.058650                            5   3
  509          fftbrc_mpi                            0.054453                          5   4
  510            fftbas_plan_mpi                       0.054437                        5   5
  511              dfftw_execute                         0.016972                     15   6
  512              map_forward                           0.020210                      6   6
  513                map_gather                            0.001209                    4   7
  514                m_alltoallv_z                         0.012434                    4   7
  515                map_scatter                           0.006496                    4   7
  516              map_backward                          0.013391                      4   6
  517                map_gather                            0.002224                    2   7
  518                m_alltoallv_z                         0.009897                    2   7
  519                map_scatter                           0.001223                    2   7
  520        pothar                                0.002719                            1   3
  521          m_sumb_d                              0.001432                          1   4
  522        m_bcast_d                             0.007634                            1   3
  523      potlok_metagga                        0.627883                              1   2
  524        fft3d_mpi                             0.420442                           17   3
  525          fftbrc_mpi                            0.408208                         17   4
  526            fftbas_plan_mpi                       0.408155                       17   5
  527              dfftw_execute                         0.053663                     51   6
  528              map_forward                           0.070704                     22   6
  529                map_gather                            0.005169                   13   7
  530                m_alltoallv_z                         0.050700                   13   7
  531                map_scatter                           0.014569                   13   7
  532              map_backward                          0.269832                     12   6
  533                map_gather                            0.006512                    6   7
  534                m_alltoallv_z                         0.259258                    6   7
  535                map_scatter                           0.003935                    6   7
  536        m_sumb_d                              0.000558                            3   3
  537        m_bcast_d                             0.013875                            2   3
  538      set_dd_magatom                        0.000001                              1   2
  539      set_dd_paw                            4.157284                              1   2
  540        set_rsgf_all                          0.000002                            1   3
  541        m_sumb_d                              4.157140                            7   3
 
 Flat profile
 ============
 
             routine name                   CPU           calls
 ---------------------------------------------------------------
 set_kineden                           935.226993          86
 m_sumb_d                              399.839364        3264
 set_charge                            114.203907          67
 m_alltoallv_z                          26.331557        4028
 potlok_metagga                         25.012392          68
 dfftw_execute                          22.665175       11013
 total_time                             22.409480           1
 map_scatter                             4.962521        4028
 map_gather                              4.191326        4028
 m_alltoall_d                            3.083363        1264
 fftbas_plan_mpi                         2.497318        3671
 fftwav_mpi                              2.310153        1041
 m_bcast_d                               1.560196         247
 fft3d_mpi                               1.497413        3671
 kinhamil_tau                            1.459354         190
 map_forward                             1.417122        4216
 edwav                                   0.583027          66
 elmin_all                               0.567609           1
 eccp_tau                                0.529366         137
 potlok                                  0.368508          68
 fftext_mpi                              0.289392         793
 lapack                                  0.247070          19
 m_bcast_z                               0.222392          52
 soft_charge                             0.208287          67
 potxc_metagga                           0.207025           1
 vhamil                                  0.156591          53
 lincom                                  0.145326         197
 pw_charge                               0.137209          67
 augmentation_charge                     0.130113          67
 orth1                                   0.114679         152
 stretau                                 0.097354           1
 pothar                                  0.091632          68
 redis_pw                                0.053172         364
 fft_gq                                  0.050886          67
 w1_dscal                                0.050163          33
 brgrid                                  0.049893           1
 setdij_                                 0.043233          95
 inisym                                  0.042884           1
 map_backward                            0.033361        3126
 rspher_all                              0.026405          14
 eddav                                   0.022790           5
 ggemm                                   0.021442          19
 choleski                                0.021119          66
 phaser                                  0.021001          51
 redis_proj                              0.014082         900
 set_dd_paw                              0.009458          69
 w1_copy                                 0.008935          57
 eddiag                                  0.007496          34
 fortau                                  0.007221           1
 forloc                                  0.007182           1
 forhar                                  0.007098           1
 rpromu_gemm                             0.007013          26
 densta                                  0.006978          78
 fftbas_mpi                              0.006373        1834
 strelo                                  0.006159           1
 fftbrc_mpi                              0.005835        1837
 strehar                                 0.005657           1
 force_and_stress                        0.005428           1
 fewald                                  0.005245           1
 racc0                                   0.004994          33
 stufak                                  0.004947           1
 overl                                   0.004634         199
 rpro1                                   0.004592          47
 orthch                                  0.004365          66
 gemm                                    0.002939          38
 depsum                                  0.002379          67
 apply_precond                           0.002263          14
 rpro_isp                                0.002250          13
 setup_precond                           0.002044           5
 crrexp_mul_work_add                     0.002028         104
 crrexp_mul_wave                         0.001507         120
 racc0mu                                 0.000962          19
 redis_pw_all                            0.000844          66
 rsp                                     0.000683           1
 rpromu                                  0.000534          13
 fordep                                  0.000503           1
 hamiltmu_tau                            0.000481          19
 strnlr                                  0.000478           1
 hamilt_local_tau                        0.000432          34
 newband                                 0.000410          24
 strkin                                  0.000358           1
 overl1                                  0.000313          19
 redis_pw_over_bands                     0.000307          67
 crpa_reader                             0.000227           1
 raccmu_                                 0.000211          19
 set_rsgf_all                            0.000138          69
 fornlr                                  0.000136           1
 rcp                                     0.000080           1
 w1_projall                              0.000066          14
 proall                                  0.000033           1
 vectorpot                               0.000029           1
 posmap                                  0.000024           2
 truncate_high_frequency_w1              0.000022          24
 rotate_active_occupied_orbital          0.000020           1
 set_dd_magatom                          0.000010           2
 shift_bands_between_low_high            0.000007           1
 ---------------------------------------------------------------
  summed up times    1573.35597801208     
 
 Accumulative profile
 ====================
 
             routine name                   CPU           calls
 ---------------------------------------------------------------
 total_time                           1573.355978           1
 elmin_all                            1522.725305           1
 set_kineden                          1045.590827          86
 m_sumb_d                              399.839364        3264
 set_dd_paw                            285.301534          69
 set_charge                            131.935105          67
 fft3d_mpi                              63.608002        3671
 fftbas_plan_mpi                        62.098381        3671
 potlok_metagga                         49.825500          68
 fftbrc_mpi                             35.358533        1837
 fftbas_mpi                             26.752056        1834
 m_alltoallv_z                          26.331557        4028
 force_and_stress                       22.856453           1
 dfftw_execute                          22.665175       11013
 kinhamil_tau                           22.213718         190
 edwav                                  21.130030          66
 map_backward                           19.431817        3126
 fftwav_mpi                             18.243418        1041
 stretau                                17.797415           1
 map_forward                            17.504071        4216
 eccp_tau                               16.480453         137
 fftext_mpi                             11.115991         793
 eddiag                                  5.322701          34
 potlok                                  5.080541          68
 map_scatter                             4.962521        4028
 eddav                                   4.298773           5
 hamilt_local_tau                        4.289640          34
 map_gather                              4.191326        4028
 soft_charge                             4.039191          67
 m_alltoall_d                            3.083363        1264
 redis_proj                              2.310782         900
 hamiltmu_tau                            2.143454          19
 m_bcast_d                               1.560196         247
 augmentation_charge                     0.926756          67
 redis_pw                                0.839835         364
 fft_gq                                  0.832170          67
 newband                                 0.700456          24
 potxc_metagga                           0.585827           1
 lapack                                  0.247070          19
 rpro_isp                                0.245107          13
 orthch                                  0.222425          66
 m_bcast_z                               0.222392          52
 depsum                                  0.204661          67
 strnlr                                  0.191367           1
 pothar                                  0.159510          68
 vhamil                                  0.156591          53
 lincom                                  0.145326         197
 pw_charge                               0.137209          67
 densta                                  0.117377          78
 orth1                                   0.114679         152
 redis_pw_over_bands                     0.082098          67
 redis_pw_all                            0.081791          66
 setdij_                                 0.079241          95
 fornlr                                  0.071142           1
 w1_dscal                                0.050163          33
 brgrid                                  0.049893           1
 inisym                                  0.042908           1
 proall                                  0.032207           1
 rspher_all                              0.026405          14
 ggemm                                   0.021442          19
 choleski                                0.021119          66
 phaser                                  0.021001          51
 racc0                                   0.014215          33
 forloc                                  0.013817           1
 rpro1                                   0.009577          47
 w1_copy                                 0.008935          57
 rpromu                                  0.008802          13
 fortau                                  0.008518           1
 raccmu_                                 0.008328          19
 racc0mu                                 0.007803          19
 forhar                                  0.007461           1
 rpromu_gemm                             0.007013          26
 strelo                                  0.007007           1
 fewald                                  0.006449           1
 strehar                                 0.005956           1
 stufak                                  0.004947           1
 fordep                                  0.004869           1
 overl                                   0.004634         199
 w1_projall                              0.002979          14
 gemm                                    0.002939          38
 setup_precond                           0.002618           5
 apply_precond                           0.002263          14
 crrexp_mul_work_add                     0.002028         104
 crrexp_mul_wave                         0.001507         120
 strkin                                  0.000740           1
 rsp                                     0.000683           1
 overl1                                  0.000313          19
 crpa_reader                             0.000227           1
 set_rsgf_all                            0.000138          69
 rcp                                     0.000080           1
 vectorpot                               0.000029           1
 posmap                                  0.000024           2
 truncate_high_frequency_w1              0.000022          24
 rotate_active_occupied_orbital          0.000020           1
 set_dd_magatom                          0.000010           2
 shift_bands_between_low_high            0.000007           1
 ---------------------------------------------------------------
 
Profiling took   0.074780  0.027190  0.007535  0.006320 seconds
Profiling took   0.096964 seconds
