 vasp.6.4.0 14Feb23 (build Jul 14 2023 13:46:40) complex                        
  
 executed on             LinuxIFC date 2023.07.24  03:37:39
 running   64 mpi-ranks, with    1 threads/rank, on    8 nodes
 distrk:  each k-point on   64 cores,    1 groups
 distr:  one band on NCORE=   1 cores,   64 groups


--------------------------------------------------------------------------------------------------------


 INCAR:
   SYSTEM = MgO-rocksalt
   ISMEAR = 0
   SIGMA = 0.05
   EDIFF = 1E-6
   ALGO = ALL
   ISTART = 0
   IBRION = -1
   NSW = 0
   ISYM = 2
   LHFCALC = .TRUE.
   GGA = B5
   AEXX = 0.2
   AGGAX = 0.72
   AGGAC = 0.81
   ALDAC = 0.19
   IVDW = 11
   VDW_S6 = 1.0
   VDW_SR = 1.261
   VDW_S8 = 1.703
   ENCUT = 520
   PREC = Accurate
   LASPH = .TRUE.
   LREAL = Auto
   ISPIN = 1
   NELM = 200
   NELMIN = 8
   NCORE = 1
   KPAR = 1
   LWAVE = .FALSE.
   LCHARG = .FALSE.

 POTCAR:    PAW_PBE Au 04Oct2007                  
 -----------------------------------------------------------------------------
|                                                                             |
|           W    W    AA    RRRRR   N    N  II  N    N   GGGG   !!!           |
|           W    W   A  A   R    R  NN   N  II  NN   N  G    G  !!!           |
|           W    W  A    A  R    R  N N  N  II  N N  N  G       !!!           |
|           W WW W  AAAAAA  RRRRR   N  N N  II  N  N N  G  GGG   !            |
|           WW  WW  A    A  R   R   N   NN  II  N   NN  G    G                |
|           W    W  A    A  R    R  N    N  II  N    N   GGGG   !!!           |
|                                                                             |
|     You have selected ISYM=2 for a HF type calculation. This will           |
|     symmetrize the charge density but not the exchange potential. I         |
|     suggest to use ISYM=3 instead. This uses symmetry to obtain the         |
|     orbitals at all k-points in the Brillouin zone, but does not apply      |
|     symmetry to the Hartree potential directly. The resultant charge        |
|     might have lower symmetry than the crystal but, at least, Hartree       |
|     and exchange are fully compatible.                                      |
|                                                                             |
 -----------------------------------------------------------------------------

 POTCAR:    PAW_PBE Au 04Oct2007                  
   SHA256 =  d0044ae04e2bdce24051b198fc5c053d722a5bc6fe3c3b100514a13fc5d2db88 Au/POTCAR             
   COPYR  = (c) Copyright 04Oct2007 Georg Kresse                                                    
   COPYR  = This file is part of the software VASP. Any use, copying, and all other rights are regul
   COPYR  = If you do not have a valid VASP license, you may not use, copy or distribute this file. 
   VRHFIN =Au: s1d10                                                                                
   LEXCH  = PE                                                                                      
   EATOM  =   926.0867 eV,   68.0654 Ry                                                             
                                                                                                    
   TITEL  = PAW_PBE Au 04Oct2007                                                                    
   LULTRA =        F    use ultrasoft PP ?                                                          
   IUNSCR =        1    unscreen: 0-lin 1-nonlin 2-no                                               
   RPACOR =    2.330    partial core radius                                                         
   POMASS =  196.966; ZVAL   =   11.000    mass and valenz                                          
   RCORE  =    2.500    outmost cutoff radius                                                       
   RWIGS  =    2.840; RWIGS  =    1.503    wigner-seitz radius (au A)                               
   ENMAX  =  229.943; ENMIN  =  172.457 eV                                                          
   ICORE  =        3    local potential                                                             
   LCOR   =        T    correct aug charges                                                         
   LPAW   =        T    paw PP                                                                      
   EAUG   =  356.670                                                                                
   DEXC   =    0.000                                                                                
   RMAX   =    2.562    core radius for proj-oper                                                   
   RAUG   =    1.300    factor for augmentation sphere                                              
   RDEP   =    2.598    radius for radial grids                                                     
   RDEPT  =    2.193    core radius for aug-charge                                                  
                                                                                                    
   Atomic configuration                                                                             
   16 entries                                                                                       
     n  l   j            E        occ.                                                              
     1  0  0.50    -80748.5001   2.0000                                                             
     2  0  0.50    -14244.7466   2.0000                                                             
     2  1  1.50    -12310.9591   6.0000                                                             
     3  0  0.50     -3362.1768   2.0000                                                             
     3  1  1.50     -2801.5463   6.0000                                                             
     3  2  2.50     -2203.8206  10.0000                                                             
     4  0  0.50      -729.8168   2.0000                                                             
     4  1  1.50      -546.0527   6.0000                                                             
     4  2  2.50      -325.7302  10.0000                                                             
     4  3  3.50       -81.1472  14.0000                                                             
     5  0  0.50      -108.3201   2.0000                                                             
     5  1  1.50       -59.7479   6.0000                                                             
     5  2  2.50        -6.8783  10.0000                                                             
     6  0  0.50        -5.7602   1.0000                                                             
     6  1  1.50        -6.8029   0.0000                                                             
     5  3  2.50        -1.3606   0.0000                                                             
   Description                                                                                      
     l       E           TYP  RCUT    TYP  RCUT                                                     
     2     -6.8782861     23  2.500                                                                 
     2     -8.2388687     23  2.500                                                                 
     0     -5.7601759     23  2.500                                                                 
     0     -0.8493231     23  2.500                                                                 
     1     -2.7211652     23  2.500                                                                 
     1     27.2116520     23  2.500                                                                 
     3     -1.3605826     23  2.500                                                                 
  local pseudopotential read in
  partial core-charges read in
  partial kinetic energy density read in
  atomic valenz-charges read in
  non local Contribution for L=           2  read in
    real space projection operators read in
  non local Contribution for L=           2  read in
    real space projection operators read in
  non local Contribution for L=           0  read in
    real space projection operators read in
  non local Contribution for L=           0  read in
    real space projection operators read in
  non local Contribution for L=           1  read in
    real space projection operators read in
  non local Contribution for L=           1  read in
    real space projection operators read in
    PAW grid and wavefunctions read in
 
   number of l-projection  operators is LMAX  =           6
   number of lm-projection operators is LMMAX =          18
 
 -----------------------------------------------------------------------------
|                                                                             |
|               ----> ADVICE to this user running VASP <----                  |
|                                                                             |
|     You have a (more or less) 'small supercell' and for smaller cells       |
|     it is recommended to use the reciprocal-space projection scheme!        |
|     The real-space optimization is not efficient for small cells and it     |
|     is also less accurate ...                                               |
|     Therefore, set LREAL=.FALSE. in the INCAR file.                         |
|                                                                             |
 -----------------------------------------------------------------------------

 Optimization of the real space projectors (new method)

 maximal supplied QI-value         = 15.12
 optimisation between [QCUT,QGAM] = [ 11.64, 23.28] = [ 37.95,151.78] Ry 
 Optimized for a Real-space Cutoff    1.49 Angstroem

   l    n(q)    QCUT    max X(q) W(low)/X(q) W(high)/X(q)  e(spline) 
   2      9    11.641    60.898    0.24E-03    0.10E-03    0.19E-06
   2      9    11.641    58.894    0.25E-03    0.10E-03    0.19E-06
   0     10    11.641   109.617    0.73E-04    0.33E-04    0.11E-06
   0     10    11.641    75.026    0.71E-04    0.32E-04    0.11E-06
   1     10    11.641    16.344    0.27E-04    0.97E-04    0.16E-06
   1     10    11.641    10.160    0.23E-04    0.77E-04    0.13E-06
 -----------------------------------------------------------------------------
|                                                                             |
|               ----> ADVICE to this user running VASP <----                  |
|                                                                             |
|     You enforced a specific xc type in the INCAR file but a different       |
|     type was found in the POTCAR file.                                      |
|     I HOPE YOU KNOW WHAT YOU ARE DOING!                                     |
|                                                                             |
 -----------------------------------------------------------------------------

  PAW_PBE Au 04Oct2007                  :
 energy of atom  1       EATOM= -926.0867
 kinetic energy error for atom=    0.0034 (will be added to EATOM!!)
 
 
 POSCAR: au4
  positions in direct lattice
  velocities in cartesian coordinates
 exchange correlation table for  LEXCH =       12
   RHO(1)=    0.500       N(1)  =     2000
   RHO(2)=  100.500       N(2)  =     4000
 


--------------------------------------------------------------------------------------------------------


 ion  position               nearest neighbor table
   1  0.972  0.107  0.999-   4 2.58   3 2.66
   2  0.960  0.861  0.953-   3 2.51
   3  0.993  0.975  0.992-   2 2.51   4 2.66   1 2.66
   4  0.076  0.057  0.056-   1 2.58   3 2.66
 
  LATTYP: Found a simple cubic cell.
 ALAT       =    20.0000000000
  
  Lattice vectors:
  
 A1 = (  20.0000000000,   0.0000000000,   0.0000000000)
 A2 = (   0.0000000000,  20.0000000000,   0.0000000000)
 A3 = (   0.0000000000,   0.0000000000,  20.0000000000)


Analysis of symmetry for initial positions (statically):
=====================================================================
 Subroutine PRICEL returns:
 Original cell was already a primitive cell.
 

 Routine SETGRP: Setting up the symmetry group for a 
 simple cubic supercell.


 Subroutine GETGRP returns: Found  1 space group operations
 (whereof  1 operations were pure point group operations)
 out of a pool of 48 trial point group operations.


The static configuration has the point symmetry C_1 .


Analysis of symmetry for dynamics (positions and initial velocities):
=====================================================================
 Subroutine PRICEL returns:
 Original cell was already a primitive cell.
 

 Routine SETGRP: Setting up the symmetry group for a 
 simple cubic supercell.


 Subroutine GETGRP returns: Found  1 space group operations
 (whereof  1 operations were pure point group operations)
 out of a pool of 48 trial point group operations.


The dynamic configuration has the point symmetry C_1 .


 Subroutine INISYM returns: Found  1 space group operations
 (whereof  1 operations are pure point group operations),
 and found     1 'primitive' translations


----------------------------------------------------------------------------------------

                                     Primitive cell                                     

  volume of cell :    8000.0000

  direct lattice vectors                    reciprocal lattice vectors
    20.000000000  0.000000000  0.000000000     0.050000000  0.000000000  0.000000000
     0.000000000 20.000000000  0.000000000     0.000000000  0.050000000  0.000000000
     0.000000000  0.000000000 20.000000000     0.000000000  0.000000000  0.050000000

  length of vectors
    20.000000000 20.000000000 20.000000000     0.050000000  0.050000000  0.050000000

  position of ions in fractional coordinates (direct lattice)
     0.971513168  0.106654628  0.999023488
     0.959562945  0.860818041  0.953391080
     0.992833549  0.975340255  0.991717852
     0.076090339  0.057187077  0.055867579

  ion indices of the primitive-cell ions
   primitive index   ion index
                 1           1
                 2           2
                 3           3
                 4           4

----------------------------------------------------------------------------------------

 
 
 KPOINTS: KPOINTS created by Atomic Simulation Env

Automatic generation of k-mesh.
 Grid dimensions read from file:
 generate k-points for:    1    1    1

 Generating k-lattice:

  Cartesian coordinates                     Fractional coordinates (reciprocal lattice)
     0.050000000  0.000000000  0.000000000     1.000000000  0.000000000  0.000000000
     0.000000000  0.050000000  0.000000000     0.000000000  1.000000000  0.000000000
     0.000000000  0.000000000  0.050000000     0.000000000  0.000000000  1.000000000

  Length of vectors
     0.050000000  0.050000000  0.050000000

  Shift w.r.t. Gamma in fractional coordinates (k-lattice)
     0.000000000  0.000000000  0.000000000

 
 Subroutine IBZKPT returns following result:
 ===========================================
 
 Found      1 irreducible k-points:
 
 Following reciprocal coordinates:
            Coordinates               Weight
  0.000000  0.000000  0.000000      1.000000
 
 Following cartesian coordinates:
            Coordinates               Weight
  0.000000  0.000000  0.000000      1.000000
 
 
 Subroutine IBZKPT_HF returns following result:
 ==============================================
 
 Found      1 k-points in 1st BZ
 the following      1 k-points will be used (e.g. in the exchange kernel)
 Following reciprocal coordinates:   # in IRBZ
  0.000000  0.000000  0.000000    1.00000000   1 t-inv F


--------------------------------------------------------------------------------------------------------




 Dimension of arrays:
   k-points           NKPTS =      1   k-points in BZ     NKDIM =      1   number of bands    NBANDS=     64
   number of dos      NEDOS =    301   number of ions     NIONS =      4
   non local maximal  LDIM  =      6   non local SUM 2l+1 LMDIM =     18
   total plane-waves  NPLWV = ******
   max r-space proj   IRMAX =   5885   max aug-charges    IRDMAX=  25995
   dimension x,y,z NGX =   150 NGY =  150 NGZ =  150
   dimension x,y,z NGXF=   300 NGYF=  300 NGZF=  300
   support grid    NGXF=   300 NGYF=  300 NGZF=  300
   ions per type =               4
   NGX,Y,Z   is equivalent  to a cutoff of  12.47, 12.47, 12.47 a.u.
   NGXF,Y,Z  is equivalent  to a cutoff of  24.94, 24.94, 24.94 a.u.

 SYSTEM =  MgO-rocksalt                            
 POSCAR =  au4                                     

 Startparameter for this run:
   NWRITE =      2    write-flag & timer
   PREC   = accura    normal or accurate (medium, high low for compatibility)
   ISTART =      0    job   : 0-new  1-cont  2-samecut
   ICHARG =      2    charge: 1-file 2-atom 10-const
   ISPIN  =      1    spin polarized calculation?
   LNONCOLLINEAR =      F non collinear calculations
   LSORBIT =      F    spin-orbit coupling
   INIWAV =      1    electr: 0-lowe 1-rand  2-diag
   LASPH  =      T    aspherical Exc in radial PAW
 Electronic Relaxation 1
   ENCUT  =  520.0 eV  38.22 Ry    6.18 a.u.  37.19 37.19 37.19*2*pi/ulx,y,z
   ENINI  =  520.0     initial cutoff
   ENAUG  =  356.7 eV  augmentation charge cutoff
   NELM   =    200;   NELMIN=  8; NELMDL= -5     # of ELM steps 
   EDIFF  = 0.1E-05   stopping-criterion for ELM
   LREAL  =      T    real-space projection
   NLSPLINE    = F    spline interpolate recip. space projectors
   LCOMPAT=      F    compatible to vasp.4.4
   GGA_COMPAT  = T    GGA compatible to vasp.4.4-vasp.4.6
   LMAXPAW     = -100 max onsite density
   LMAXMIX     =    2 max onsite mixed and CHGCAR
   VOSKOWN=      0    Vosko Wilk Nusair interpolation
   ROPT   =   -0.00025
 Ionic relaxation
   EDIFFG = 0.1E-04   stopping-criterion for IOM
   NSW    =      0    number of steps for IOM
   NBLOCK =      1;   KBLOCK =      1    inner block; outer block 
   IBRION =     -1    ionic relax: 0-MD 1-quasi-New 2-CG
   NFREE  =      0    steps in history (QN), initial steepest desc. (CG)
   ISIF   =      0    stress and relaxation
   IWAVPR =     10    prediction:  0-non 1-charg 2-wave 3-comb
   ISYM   =      2    0-nonsym 1-usesym 2-fastsym
   LCORR  =      T    Harris-Foulkes like correction to forces

   POTIM  = 0.5000    time-step for ionic-motion
   TEIN   =    0.0    initial temperature
   TEBEG  =    0.0;   TEEND  =   0.0 temperature during run
   SMASS  =  -3.00    Nose mass-parameter (am)
   estimated Nose-frequenzy (Omega)   =  0.10E-29 period in steps = 0.13E+47 mass=  -0.914E-26a.u.
   SCALEE = 1.0000    scale energy and forces
   NPACO  =    256;   APACO  = 10.0  distance and # of slots for P.C.
   PSTRESS=    0.0 pullay stress

  Mass of Ions in am
   POMASS = 196.97
  Ionic Valenz
   ZVAL   =  11.00
  Atomic Wigner-Seitz radii
   RWIGS  =  -1.00
  virtual crystal weights 
   VCA    =   1.00
   NELECT =      44.0000    total number of electrons
   NUPDOWN=      -1.0000    fix difference up-down

 DOS related values:
   EMIN   =  10.00;   EMAX   =-10.00  energy-range for DOS
   EFERMI =   0.00;   METHOD = LEGACY      
   ISMEAR =     0;   SIGMA  =   0.05  broadening in eV -4-tet -1-fermi 0-gaus

 Electronic relaxation 2 (details)
   IALGO  =     58    algorithm
   LDIAG  =      T    sub-space diagonalisation (order eigenvalues)
   LSUBROT=      F    optimize rotation matrix (better conditioning)
   TURBO    =      0    0=normal 1=particle mesh
   IRESTART =      0    0=no restart 2=restart with 2 vectors
   NREBOOT  =      0    no. of reboots
   NMIN     =      0    reboot dimension
   EREF     =   0.00    reference energy to select bands
   IMIX   =      4    mixing-type and parameters
     AMIX     =   0.40;   BMIX     =  1.00
     AMIX_MAG =   1.60;   BMIX_MAG =  1.00
     AMIN     =   0.10
     WC   =   100.;   INIMIX=   1;  MIXPRE=   1;  MAXMIX= -45

 Intra band minimization:
   WEIMIN = 0.0000     energy-eigenvalue tresh-hold
   EBREAK =  0.39E-08  absolut break condition
   DEPER  =   0.30     relativ break condition  

   TIME   =   0.40     timestep for ELM

  volume/ion in A,a.u.               =    2000.00     13496.67
  Fermi-wavevector in a.u.,A,eV,Ry     =   0.288976  0.546086  1.136187  0.083507
  Thomas-Fermi vector in A             =   1.146265
 
 Write flags
   LWAVE        =      F    write WAVECAR
   LDOWNSAMPLE  =      F    k-point downsampling of WAVECAR
   LCHARG       =      F    write CHGCAR
   LVTOT        =      F    write LOCPOT, total local potential
   LVHAR        =      F    write LOCPOT, Hartree potential only
   LELF         =      F    write electronic localiz. function (ELF)
   LORBIT       =      0    0 simple, 1 ext, 2 COOP (PROOUT), +10 PAW based schemes


 Dipole corrections
   LMONO  =      F    monopole corrections only (constant potential shift)
   LDIPOL =      F    correct potential (dipole corrections)
   IDIPOL =      0    1-x, 2-y, 3-z, 4-all directions 
   EPSILON=  1.0000000 bulk dielectric constant

 Exchange correlation treatment:
   GGA     =    B5    GGA type
   LEXCH   =    12    internal setting for exchange type
   LIBXC   =     F    Libxc                    
   VOSKOWN =     0    Vosko Wilk Nusair interpolation
   EXXOEP  =     0    0=HF, 1=EXX-LHF (local Hartree Fock) 2=EXX OEP
   LHFCALC =     T    Hartree Fock is set to
   LSYMGRAD=     F    symmetrize gradient (conserves proper symmetry)
   PRECFOCK=normal    Normal, Fast or Accurate (Low or Medium for compatibility)
   LRHFCALC=     F    long range Hartree Fock
   LRSCOR  =     F    long range correlation only (use DFT for short range part)
   LTHOMAS =     F    Thomas Fermi screening in HF
   LMODELHF=     F    short range full HF, long range fraction AEXX
   FOCKCORR=     1    mode to apply convergence corrections
   LFOCKACE=     T    use Adeptively-Compressed-Exchange operator
   ENCUT4O =  -1.0   cutoff for four orbital integrals eV
   LMAXFOCK=     4    L truncation for augmentation on plane wave grid
   LMAXFOCKAE=  -1    L truncation for all-electron charge restoration on plane wave grid
   NMAXFOCKAE=   1    number of basis functions for all-electron charge restoration
   LFOCKAEDFT=     F  apply the AE augmentation even for DFT
   NKREDX  =     1    reduce k-point grid by
   NKREDY  =     1    reduce k-point grid by
   NKREDZ  =     1    reduce k-point grid by
   SHIFTRED=     F    shift reduced grid of Gamma
   HFKIDENT=     F    idential grid for each k-point
   ODDONLY =     F    use only odd q-grid points
   EVENONLY=     F    use only even q-grid points
   HFALPHA =   -1.0000 decay constant for conv. correction
   MCALPHA =    0.0000 extent of test-charge in conv. correction in multipole expansion
   AEXX    =    0.2000 exact exchange contribution
   HFSCREEN=    0.0000 screening length (either q_TF or 0.3 A-1)
   HFSCREENC=   0.0000 screening length for correlation (either q_TF or 0.3 A-1)
   HFRCUT  =    0.0000 spherical cutoff for potential kernel
   ALDAX   =    0.8000 LDA exchange part
   AGGAX   =    0.7200 GGA exchange part
   ALDAC   =    0.1900 LDA correlation
   AGGAC   =    0.8100 GGA correlation
   ENCUTFOCK=  -1.0 apply spherical cutoff to Coloumb kernel
   NBANDSGWLOW=     1    first orbital included in HF term
   NBLOCK_FOCK=    64    blocking factor in FOCK_ACC

 Linear response parameters
   LEPSILON=     F    determine dielectric tensor
   LRPA    =     F    only Hartree local field effects (RPA)
   LNABLA  =     F    use nabla operator in PAW spheres
   LVEL    =     F    velocity operator in full k-point grid
   CSHIFT  =0.1000    complex shift for real part using Kramers Kronig
   OMEGAMAX=  -1.0    maximum frequency
   DEG_THRESHOLD= 0.2000000E-02 threshold for treating states as degnerate
   RTIME   =   -0.100 relaxation time in fs
  (WPLASMAI=    0.000 imaginary part of plasma frequency in eV, 0.658/RTIME)
   DFIELD  = 0.0000000 0.0000000 0.0000000 field for delta impulse in time
 
  Optional k-point grid parameters
   LKPOINTS_OPT  =     F    use optional k-point grid
   KPOINTS_OPT_MODE=     1    mode for optional k-point grid
 
 Orbital magnetization related:
   ORBITALMAG=     F  switch on orbital magnetization
   LCHIMAG   =     F  perturbation theory with respect to B field
   DQ        =  0.001000  dq finite difference perturbation B field
   LLRAUG    =     F  two centre corrections for induced B field
   LBONE     =     F  B-component reconstruction in AE one-centre
   LVGVCALC  =     T  calculate vGv susceptibility
   LVGVAPPL  =     F  apply vGv susceptibility instead of pGv for G=0

 Random number generation:
   RANDOM_GENERATOR = DEFAULT
   PCG_SEED         = not used


--------------------------------------------------------------------------------------------------------


 Static calculation
 charge density and potential will be updated during run
 non-spin polarized calculation
 Conjugate gradient for all bands (Freysoldt, et al. PRB 79, 241103 (2009))
 preconditioned conjugated gradient                                        
 perform sub-space diagonalisation
    before iterative eigenvector-optimisation
 modified Broyden-mixing scheme, WC =      100.0
 initial mixing is a Kerker type mixing with AMIX =  0.4000 and BMIX =      1.0000
 Hartree-type preconditioning will be used
 using additional bands           42
 real space projection scheme for non local part
 use partial core corrections
 no Harris-corrections to forces 
 use gradient corrections 
 use of overlap-Matrix (Vanderbilt PP)
 Gauss-broadening in eV      SIGMA  =   0.05


--------------------------------------------------------------------------------------------------------


  energy-cutoff  :      520.00
  volume of cell :     8000.00
      direct lattice vectors                 reciprocal lattice vectors
    20.000000000  0.000000000  0.000000000     0.050000000  0.000000000  0.000000000
     0.000000000 20.000000000  0.000000000     0.000000000  0.050000000  0.000000000
     0.000000000  0.000000000 20.000000000     0.000000000  0.000000000  0.050000000

  length of vectors
    20.000000000 20.000000000 20.000000000     0.050000000  0.050000000  0.050000000


 
 k-points in units of 2pi/SCALE and weight: KPOINTS created by Atomic Simulation Env
   0.00000000  0.00000000  0.00000000       1.000
 
 k-points in reciprocal lattice and weights: KPOINTS created by Atomic Simulation Env
   0.00000000  0.00000000  0.00000000       1.000
 
 position of ions in fractional coordinates (direct lattice) 
   0.97151317  0.10665463  0.99902349
   0.95956294  0.86081804  0.95339108
   0.99283355  0.97534025  0.99171785
   0.07609034  0.05718708  0.05586758
 
 position of ions in cartesian coordinates  (Angst):
  19.43026335  2.13309255 19.98046977
  19.19125889 17.21636081 19.06782160
  19.85667098 19.50680509 19.83435705
   1.52180678  1.14374154  1.11735158
 


--------------------------------------------------------------------------------------------------------


 k-point   1 :   0.0000 0.0000 0.0000  plane waves:  215503

 maximum and minimum number of plane-waves per node :    215503   215503

 maximum number of plane-waves:    215503
 maximum index in each direction: 
   IXMAX=   37   IYMAX=   37   IZMAX=   37
   IXMIN=  -37   IYMIN=  -37   IZMIN=  -37


 serial   3D FFT for wavefunctions
 parallel 3D FFT for charge:
    minimum data exchange during FFTs selected (reduces bandwidth)


 FFT grid for exact exchange (Hartree Fock) 
  NGX =112; NGY =112; NGZ =112

 
 Radii for the augmentation spheres in the non-local exchange
 for species   1 augmentation radius   1.512 (default was   1.210)
       energy cutoff for augmentation   2080.0
 Maximum index for augmentation-charges in exchange         2553
  SETUP_FOCK is finished

 total amount of memory used by VASP MPI-rank0   232654. kBytes
=======================================================================

   base      :      30000. kBytes
   nonlr-proj:       6401. kBytes
   fftplans  :      28721. kBytes
   grid      :     157056. kBytes
   one-center:         62. kBytes
   HF        :         64. kBytes
   wavefun   :      10350. kBytes
 
     INWAV:  cpu time      0.0004: real time      0.0005
 Broyden mixing: mesh for mixing (old mesh)
   NGX = 75   NGY = 75   NGZ = 75
  (NGX  =300   NGY  =300   NGZ  =300)
  gives a total of 421875 points

 initial charge density was supplied:
 charge density of overlapping atoms calculated
 number of electron      44.0000000 magnetization 
 keeping initial charge density in first step


--------------------------------------------------------------------------------------------------------


 Maximum index for non-local projection operator         5694
 Maximum index for augmentation-charges         1022 (set IRDMAX)


--------------------------------------------------------------------------------------------------------


    FEWALD:  cpu time      0.0013: real time      0.0013


--------------------------------------- Ionic step        1  -------------------------------------------




--------------------------------------- Iteration      1(   1)  ---------------------------------------


    POTLOK:  cpu time      0.9080: real time      0.9140
    SETDIJ:  cpu time      0.7380: real time      0.7388
    TRIAL :  cpu time      1.3402: real time      1.3955
    CORREC:  cpu time      0.0015: real time      0.0015
    --------------------------------------------
      LOOP:  cpu time      2.9931: real time      3.0560

 eigenvalue-minimisations  :   128
 total energy-change (2. order) :-0.1061871E+05  (-0.8461173E+03)
 number of electron      44.0000000 magnetization 
 augmentation part       44.0000000 magnetization 

 Free energy of the ion-electron system (eV)
  ---------------------------------------------------
  alpha Z        PSCENC =         2.32959210
  Ewald energy   TEWEN  =      1433.62714800
  -Hartree energ DENC   =     -4980.45595042
  -exchange      EXHF   =         0.00000000
  -V(xc)+E(xc)   XCENC  =        57.06399068
  PAW double counting   =      3496.39001341   -14305.00768493
  entropy T*S    EENTRO =        -0.03002948
  eigenvalues    EBANDS =       -17.99134114
  atomic energy  EATOM  =      3695.36854794
  ---------------------------------------------------
  free energy    TOTEN  =    -10618.70571385 eV

  energy without entropy =   -10618.67568437  energy(sigma->0) =   -10618.69069911
  exchange ACFDT corr.  =         0.00000000  see jH, gK, PRB 81, 115126


--------------------------------------------------------------------------------------------------------




--------------------------------------- Iteration      1(   2)  ---------------------------------------


    TRIAL :  cpu time      2.3963: real time      2.4011
    CORREC:  cpu time      0.0004: real time      0.0004
    --------------------------------------------
      LOOP:  cpu time      2.3992: real time      2.4071

 eigenvalue-minimisations  :   256
 total energy-change (2. order) :-0.3678632E+03  (-0.3674804E+03)
 number of electron      44.0000000 magnetization 
 augmentation part       44.0000000 magnetization 

 Free energy of the ion-electron system (eV)
  ---------------------------------------------------
  alpha Z        PSCENC =         2.32959210
  Ewald energy   TEWEN  =      1433.62714800
  -Hartree energ DENC   =     -4980.45595042
  -exchange      EXHF   =         0.00000000
  -V(xc)+E(xc)   XCENC  =        57.06399068
  PAW double counting   =      3496.39001341   -14305.00768493
  entropy T*S    EENTRO =        -0.00000000
  eigenvalues    EBANDS =      -385.88459848
  atomic energy  EATOM  =      3695.36854794
  ---------------------------------------------------
  free energy    TOTEN  =    -10986.56894171 eV

  energy without entropy =   -10986.56894171  energy(sigma->0) =   -10986.56894171
  exchange ACFDT corr.  =         0.00000000  see jH, gK, PRB 81, 115126


--------------------------------------------------------------------------------------------------------




--------------------------------------- Iteration      1(   3)  ---------------------------------------


    TRIAL :  cpu time      1.2112: real time      1.2118
    CORREC:  cpu time      0.0005: real time      0.0005
    --------------------------------------------
      LOOP:  cpu time      1.2135: real time      1.2175

 eigenvalue-minimisations  :   128
 total energy-change (2. order) :-0.3339009E+02  (-0.3339002E+02)
 number of electron      44.0000000 magnetization 
 augmentation part       44.0000000 magnetization 

 Free energy of the ion-electron system (eV)
  ---------------------------------------------------
  alpha Z        PSCENC =         2.32959210
  Ewald energy   TEWEN  =      1433.62714800
  -Hartree energ DENC   =     -4980.45595042
  -exchange      EXHF   =         0.00000000
  -V(xc)+E(xc)   XCENC  =        57.06399068
  PAW double counting   =      3496.39001341   -14305.00768493
  entropy T*S    EENTRO =        -0.00000000
  eigenvalues    EBANDS =      -419.27468715
  atomic energy  EATOM  =      3695.36854794
  ---------------------------------------------------
  free energy    TOTEN  =    -11019.95903038 eV

  energy without entropy =   -11019.95903038  energy(sigma->0) =   -11019.95903038
  exchange ACFDT corr.  =         0.00000000  see jH, gK, PRB 81, 115126


--------------------------------------------------------------------------------------------------------




--------------------------------------- Iteration      1(   4)  ---------------------------------------


    TRIAL :  cpu time      1.2143: real time      1.2163
    CORREC:  cpu time      0.0005: real time      0.0005
    --------------------------------------------
      LOOP:  cpu time      1.2169: real time      1.2220

 eigenvalue-minimisations  :   128
 total energy-change (2. order) :-0.2161737E+00  (-0.2161739E+00)
 number of electron      44.0000000 magnetization 
 augmentation part       44.0000000 magnetization 

 Free energy of the ion-electron system (eV)
  ---------------------------------------------------
  alpha Z        PSCENC =         2.32959210
  Ewald energy   TEWEN  =      1433.62714800
  -Hartree energ DENC   =     -4980.45595042
  -exchange      EXHF   =         0.00000000
  -V(xc)+E(xc)   XCENC  =        57.06399068
  PAW double counting   =      3496.39001341   -14305.00768493
  entropy T*S    EENTRO =        -0.00000000
  eigenvalues    EBANDS =      -419.49086089
  atomic energy  EATOM  =      3695.36854794
  ---------------------------------------------------
  free energy    TOTEN  =    -11020.17520412 eV

  energy without entropy =   -11020.17520412  energy(sigma->0) =   -11020.17520412
  exchange ACFDT corr.  =         0.00000000  see jH, gK, PRB 81, 115126


--------------------------------------------------------------------------------------------------------




--------------------------------------- Iteration      1(   5)  ---------------------------------------


    POTLOK:  cpu time      2.5848: real time      2.5871
    SETDIJ:  cpu time      2.2337: real time      2.2359
    TRIAL :  cpu time     18.7273: real time     18.8353
    CORREC:  cpu time      0.0007: real time      0.0007
    CHARGE:  cpu time      0.4585: real time      0.4588
    --------------------------------------------
      LOOP:  cpu time     24.0070: real time     24.1231

 eigenvalue-minimisations  :   128
 total energy-change (2. order) : 0.1101261E+05  (-0.3693113E+01)
 number of electron      44.0000003 magnetization 
 augmentation part       16.3550446 magnetization 

 Free energy of the ion-electron system (eV)
  ---------------------------------------------------
  alpha Z        PSCENC =         2.32959210
  Ewald energy   TEWEN  =      1433.62714800
  -Hartree energ DENC   =     -4980.45595042
  -exchange      EXHF   =        82.45544858
  -V(xc)+E(xc)   XCENC  =        43.97953107
  PAW double counting   =      3508.71535969    -3425.39321165
  entropy T*S    EENTRO =        -0.00000000
  eigenvalues    EBANDS =      -368.19543150
  atomic energy  EATOM  =      3695.36854794
  ---------------------------------------------------
  free energy    TOTEN  =        -7.56896619 eV

  energy without entropy =       -7.56896619  energy(sigma->0) =       -7.56896619
  exchange ACFDT corr.  =        -0.00000000  see jH, gK, PRB 81, 115126


--------------------------------------------------------------------------------------------------------




--------------------------------------- Iteration      1(   6)  ---------------------------------------


    POTLOK:  cpu time      3.1410: real time      3.1440
    SETDIJ:  cpu time      2.2222: real time      2.2236
    TRIAL :  cpu time     17.0934: real time     17.1670
    CORREC:  cpu time     22.3256: real time     22.4590
    CHARGE:  cpu time      0.5228: real time      0.5417
    --------------------------------------------
      LOOP:  cpu time     45.3077: real time     45.5419

 eigenvalue-minimisations  :     0
 total energy-change (2. order) : 0.1309393E+01  (-0.7582609E+00)
 number of electron      44.0000003 magnetization 
 augmentation part       16.2964059 magnetization 

 Free energy of the ion-electron system (eV)
  ---------------------------------------------------
  alpha Z        PSCENC =         2.32959210
  Ewald energy   TEWEN  =      1433.62714800
  -Hartree energ DENC   =     -5009.45537247
  -exchange      EXHF   =        79.09793728
  -V(xc)+E(xc)   XCENC  =        43.91121997
  PAW double counting   =      4151.59319673    -4073.46678841
  entropy T*S    EENTRO =        -0.00000000
  eigenvalues    EBANDS =      -329.26505431
  atomic energy  EATOM  =      3695.36854794
  ---------------------------------------------------
  free energy    TOTEN  =        -6.25957319 eV

  energy without entropy =       -6.25957319  energy(sigma->0) =       -6.25957319
  exchange ACFDT corr.  =        -0.00000000  see jH, gK, PRB 81, 115126


--------------------------------------------------------------------------------------------------------




--------------------------------------- Iteration      1(   7)  ---------------------------------------


    POTLOK:  cpu time      3.1724: real time      3.1745
    SETDIJ:  cpu time      2.2278: real time      2.2300
    TRIAL :  cpu time     16.9109: real time     16.9234
    CORREC:  cpu time     22.4105: real time     22.5516
    CHARGE:  cpu time      0.5329: real time      0.5463
    --------------------------------------------
      LOOP:  cpu time     45.2592: real time     45.4344

 eigenvalue-minimisations  :     0
 total energy-change (2. order) :-0.7584909E+00  (-0.1535832E+00)
 number of electron      44.0000003 magnetization 
 augmentation part       16.3636455 magnetization 

 Free energy of the ion-electron system (eV)
  ---------------------------------------------------
  alpha Z        PSCENC =         2.32959210
  Ewald energy   TEWEN  =      1433.62714800
  -Hartree energ DENC   =     -4972.78575795
  -exchange      EXHF   =        78.67199711
  -V(xc)+E(xc)   XCENC  =        43.37878668
  PAW double counting   =      4099.73082915    -4021.50081408
  entropy T*S    EENTRO =        -0.00000000
  eigenvalues    EBANDS =      -365.83839306
  atomic energy  EATOM  =      3695.36854794
  ---------------------------------------------------
  free energy    TOTEN  =        -7.01806410 eV

  energy without entropy =       -7.01806410  energy(sigma->0) =       -7.01806410
  exchange ACFDT corr.  =        -0.00000000  see jH, gK, PRB 81, 115126


--------------------------------------------------------------------------------------------------------




--------------------------------------- Iteration      1(   8)  ---------------------------------------


    POTLOK:  cpu time      3.1769: real time      3.1797
    SETDIJ:  cpu time      2.2320: real time      2.2336
    TRIAL :  cpu time     16.8069: real time     16.8212
    CORREC:  cpu time     22.4862: real time     22.6405
    CHARGE:  cpu time      0.5191: real time      0.5174
    --------------------------------------------
      LOOP:  cpu time     45.2272: real time     45.3988

 eigenvalue-minimisations  :     0
 total energy-change (2. order) :-0.1536273E+00  (-0.6597874E-01)
 number of electron      44.0000003 magnetization 
 augmentation part       16.3303617 magnetization 

 Free energy of the ion-electron system (eV)
  ---------------------------------------------------
  alpha Z        PSCENC =         2.32959210
  Ewald energy   TEWEN  =      1433.62714800
  -Hartree energ DENC   =     -4979.01584164
  -exchange      EXHF   =        78.83923702
  -V(xc)+E(xc)   XCENC  =        43.64005476
  PAW double counting   =      4101.81505589    -4023.47271861
  entropy T*S    EENTRO =        -0.00000000
  eigenvalues    EBANDS =      -360.30276691
  atomic energy  EATOM  =      3695.36854794
  ---------------------------------------------------
  free energy    TOTEN  =        -7.17169145 eV

  energy without entropy =       -7.17169145  energy(sigma->0) =       -7.17169145
  exchange ACFDT corr.  =        -0.00000000  see jH, gK, PRB 81, 115126


--------------------------------------------------------------------------------------------------------




--------------------------------------- Iteration      1(   9)  ---------------------------------------


    POTLOK:  cpu time      3.1864: real time      3.1894
    SETDIJ:  cpu time      2.2291: real time      2.2306
    TRIAL :  cpu time     16.7606: real time     16.7743
    CORREC:  cpu time     22.4668: real time     22.6351
    CHARGE:  cpu time      0.4797: real time      0.5024
    --------------------------------------------
      LOOP:  cpu time     45.1288: real time     45.3382

 eigenvalue-minimisations  :     0
 total energy-change (2. order) :-0.6503077E-01  (-0.1444838E-01)
 number of electron      44.0000003 magnetization 
 augmentation part       16.3295646 magnetization 

 Free energy of the ion-electron system (eV)
  ---------------------------------------------------
  alpha Z        PSCENC =         2.32959210
  Ewald energy   TEWEN  =      1433.62714800
  -Hartree energ DENC   =     -4976.57097592
  -exchange      EXHF   =        78.74856252
  -V(xc)+E(xc)   XCENC  =        43.53237820
  PAW double counting   =      4100.55480371    -4022.35116055
  entropy T*S    EENTRO =        -0.00000000
  eigenvalues    EBANDS =      -362.47561821
  atomic energy  EATOM  =      3695.36854794
  ---------------------------------------------------
  free energy    TOTEN  =        -7.23672222 eV

  energy without entropy =       -7.23672222  energy(sigma->0) =       -7.23672222
  exchange ACFDT corr.  =        -0.00000000  see jH, gK, PRB 81, 115126


--------------------------------------------------------------------------------------------------------




--------------------------------------- Iteration      1(  10)  ---------------------------------------


    POTLOK:  cpu time      3.1454: real time      3.1474
    SETDIJ:  cpu time      2.2299: real time      2.2321
    TRIAL :  cpu time     16.6613: real time     16.6753
    CORREC:  cpu time     22.3083: real time     22.4827
    CHARGE:  cpu time      0.5096: real time      0.5244
    --------------------------------------------
      LOOP:  cpu time     44.8585: real time     45.0694

 eigenvalue-minimisations  :     0
 total energy-change (2. order) :-0.1447679E-01  (-0.3486164E-02)
 number of electron      44.0000003 magnetization 
 augmentation part       16.3433350 magnetization 

 Free energy of the ion-electron system (eV)
  ---------------------------------------------------
  alpha Z        PSCENC =         2.32959210
  Ewald energy   TEWEN  =      1433.62714800
  -Hartree energ DENC   =     -4974.21793386
  -exchange      EXHF   =        78.71726574
  -V(xc)+E(xc)   XCENC  =        43.49307810
  PAW double counting   =      4103.74827552    -4025.49966456
  entropy T*S    EENTRO =        -0.00000000
  eigenvalues    EBANDS =      -364.81750798
  atomic energy  EATOM  =      3695.36854794
  ---------------------------------------------------
  free energy    TOTEN  =        -7.25119901 eV

  energy without entropy =       -7.25119901  energy(sigma->0) =       -7.25119901
  exchange ACFDT corr.  =        -0.00000000  see jH, gK, PRB 81, 115126


--------------------------------------------------------------------------------------------------------




--------------------------------------- Iteration      1(  11)  ---------------------------------------


    POTLOK:  cpu time      3.0154: real time      3.0175
    SETDIJ:  cpu time      2.2227: real time      2.2241
    TRIAL :  cpu time     16.7871: real time     16.8018
    CORREC:  cpu time     22.0422: real time     22.2182
    CHARGE:  cpu time      0.4896: real time      0.4982
    --------------------------------------------
      LOOP:  cpu time     44.5608: real time     44.7673

 eigenvalue-minimisations  :     0
 total energy-change (2. order) :-0.3482620E-02  (-0.1324018E-02)
 number of electron      44.0000003 magnetization 
 augmentation part       16.3381331 magnetization 

 Free energy of the ion-electron system (eV)
  ---------------------------------------------------
  alpha Z        PSCENC =         2.32959210
  Ewald energy   TEWEN  =      1433.62714800
  -Hartree energ DENC   =     -4975.82992697
  -exchange      EXHF   =        78.74726944
  -V(xc)+E(xc)   XCENC  =        43.53803700
  PAW double counting   =      4108.70985320    -4030.40861412
  entropy T*S    EENTRO =        -0.00000000
  eigenvalues    EBANDS =      -363.33658821
  atomic energy  EATOM  =      3695.36854794
  ---------------------------------------------------
  free energy    TOTEN  =        -7.25468163 eV

  energy without entropy =       -7.25468163  energy(sigma->0) =       -7.25468163
  exchange ACFDT corr.  =        -0.00000000  see jH, gK, PRB 81, 115126


--------------------------------------------------------------------------------------------------------




--------------------------------------- Iteration      1(  12)  ---------------------------------------


    POTLOK:  cpu time      2.8952: real time      2.8982
    SETDIJ:  cpu time      2.2314: real time      2.2328
    TRIAL :  cpu time     16.8437: real time     16.8585
    CORREC:  cpu time     21.9443: real time     22.1289
    CHARGE:  cpu time      0.4440: real time      0.4476
    --------------------------------------------
      LOOP:  cpu time     44.3623: real time     44.5734

 eigenvalue-minimisations  :     0
 total energy-change (2. order) :-0.1324981E-02  (-0.4319058E-03)
 number of electron      44.0000003 magnetization 
 augmentation part       16.3399969 magnetization 

 Free energy of the ion-electron system (eV)
  ---------------------------------------------------
  alpha Z        PSCENC =         2.32959210
  Ewald energy   TEWEN  =      1433.62714800
  -Hartree energ DENC   =     -4974.73590471
  -exchange      EXHF   =        78.72712342
  -V(xc)+E(xc)   XCENC  =        43.51179283
  PAW double counting   =      4108.44192960    -4030.14519466
  entropy T*S    EENTRO =        -0.00000000
  eigenvalues    EBANDS =      -364.38104113
  atomic energy  EATOM  =      3695.36854794
  ---------------------------------------------------
  free energy    TOTEN  =        -7.25600661 eV

  energy without entropy =       -7.25600661  energy(sigma->0) =       -7.25600661
  exchange ACFDT corr.  =        -0.00000000  see jH, gK, PRB 81, 115126


--------------------------------------------------------------------------------------------------------




--------------------------------------- Iteration      1(  13)  ---------------------------------------


    POTLOK:  cpu time      2.7139: real time      2.7161
    SETDIJ:  cpu time      2.2271: real time      2.2286
    TRIAL :  cpu time     16.8580: real time     16.8723
    CORREC:  cpu time     22.0493: real time     22.2205
    CHARGE:  cpu time      0.5897: real time      0.5896
    --------------------------------------------
      LOOP:  cpu time     44.4413: real time     44.6344

 eigenvalue-minimisations  :     0
 total energy-change (2. order) :-0.4347222E-03  (-0.1224369E-03)
 number of electron      44.0000003 magnetization 
 augmentation part       16.3405868 magnetization 

 Free energy of the ion-electron system (eV)
  ---------------------------------------------------
  alpha Z        PSCENC =         2.32959210
  Ewald energy   TEWEN  =      1433.62714800
  -Hartree energ DENC   =     -4975.04745224
  -exchange      EXHF   =        78.73135494
  -V(xc)+E(xc)   XCENC  =        43.51812896
  PAW double counting   =      4109.28639824    -4030.98119126
  entropy T*S    EENTRO =        -0.00000000
  eigenvalues    EBANDS =      -364.08896801
  atomic energy  EATOM  =      3695.36854794
  ---------------------------------------------------
  free energy    TOTEN  =        -7.25644134 eV

  energy without entropy =       -7.25644134  energy(sigma->0) =       -7.25644134
  exchange ACFDT corr.  =        -0.00000000  see jH, gK, PRB 81, 115126


--------------------------------------------------------------------------------------------------------




--------------------------------------- Iteration      1(  14)  ---------------------------------------


    POTLOK:  cpu time      2.6750: real time      2.6770
    SETDIJ:  cpu time      2.2260: real time      2.2282
    TRIAL :  cpu time     16.9400: real time     16.9534
    CORREC:  cpu time     21.9053: real time     22.0181
    CHARGE:  cpu time      0.5602: real time      0.6228
    --------------------------------------------
      LOOP:  cpu time     44.3097: real time     44.5063

 eigenvalue-minimisations  :     0
 total energy-change (2. order) :-0.1263451E-03  (-0.2889336E-04)
 number of electron      44.0000003 magnetization 
 augmentation part       16.3405232 magnetization 

 Free energy of the ion-electron system (eV)
  ---------------------------------------------------
  alpha Z        PSCENC =         2.32959210
  Ewald energy   TEWEN  =      1433.62714800
  -Hartree energ DENC   =     -4974.97468781
  -exchange      EXHF   =        78.73139395
  -V(xc)+E(xc)   XCENC  =        43.51837680
  PAW double counting   =      4109.33703220    -4031.02659963
  entropy T*S    EENTRO =        -0.00000000
  eigenvalues    EBANDS =      -364.16737123
  atomic energy  EATOM  =      3695.36854794
  ---------------------------------------------------
  free energy    TOTEN  =        -7.25656768 eV

  energy without entropy =       -7.25656768  energy(sigma->0) =       -7.25656768
  exchange ACFDT corr.  =        -0.00000000  see jH, gK, PRB 81, 115126


--------------------------------------------------------------------------------------------------------




--------------------------------------- Iteration      1(  15)  ---------------------------------------


    POTLOK:  cpu time      2.7060: real time      2.7082
    SETDIJ:  cpu time      2.2310: real time      2.2324
    TRIAL :  cpu time     16.9151: real time     16.9292
    CORREC:  cpu time     21.8916: real time     22.0107
    CHARGE:  cpu time      0.5178: real time      0.5515
    --------------------------------------------
      LOOP:  cpu time     44.2698: real time     44.4440

 eigenvalue-minimisations  :     0
 total energy-change (2. order) :-0.3020491E-04  (-0.9788580E-05)
 number of electron      44.0000003 magnetization 
 augmentation part       16.3407338 magnetization 

 Free energy of the ion-electron system (eV)
  ---------------------------------------------------
  alpha Z        PSCENC =         2.32959210
  Ewald energy   TEWEN  =      1433.62714800
  -Hartree energ DENC   =     -4974.95123350
  -exchange      EXHF   =        78.73083893
  -V(xc)+E(xc)   XCENC  =        43.51750584
  PAW double counting   =      4109.29972255    -4030.98857136
  entropy T*S    EENTRO =        -0.00000000
  eigenvalues    EBANDS =      -364.19014838
  atomic energy  EATOM  =      3695.36854794
  ---------------------------------------------------
  free energy    TOTEN  =        -7.25659789 eV

  energy without entropy =       -7.25659789  energy(sigma->0) =       -7.25659789
  exchange ACFDT corr.  =        -0.00000000  see jH, gK, PRB 81, 115126


--------------------------------------------------------------------------------------------------------




--------------------------------------- Iteration      1(  16)  ---------------------------------------


    POTLOK:  cpu time      2.6794: real time      2.6815
    SETDIJ:  cpu time      2.2310: real time      2.2325
    TRIAL :  cpu time     16.8870: real time     16.9018
    CORREC:  cpu time     21.7851: real time     21.9126
    CHARGE:  cpu time      0.5173: real time      0.5433
    --------------------------------------------
      LOOP:  cpu time     44.1042: real time     44.2798

 eigenvalue-minimisations  :     0
 total energy-change (2. order) :-0.9622501E-05  (-0.2596889E-05)
 number of electron      44.0000003 magnetization 
 augmentation part       16.3407097 magnetization 

 Free energy of the ion-electron system (eV)
  ---------------------------------------------------
  alpha Z        PSCENC =         2.32959210
  Ewald energy   TEWEN  =      1433.62714800
  -Hartree energ DENC   =     -4974.99209218
  -exchange      EXHF   =        78.73156803
  -V(xc)+E(xc)   XCENC  =        43.51867835
  PAW double counting   =      4109.32716801    -4031.01541081
  entropy T*S    EENTRO =        -0.00000000
  eigenvalues    EBANDS =      -364.15180695
  atomic energy  EATOM  =      3695.36854794
  ---------------------------------------------------
  free energy    TOTEN  =        -7.25660751 eV

  energy without entropy =       -7.25660751  energy(sigma->0) =       -7.25660751
  exchange ACFDT corr.  =        -0.00000000  see jH, gK, PRB 81, 115126


--------------------------------------------------------------------------------------------------------




--------------------------------------- Iteration      1(  17)  ---------------------------------------


    POTLOK:  cpu time      2.6721: real time      2.6742
    SETDIJ:  cpu time      2.2273: real time      2.2289
    TRIAL :  cpu time     16.8849: real time     16.8993
    CORREC:  cpu time     21.8817: real time     22.0157
    CHARGE:  cpu time      0.4996: real time      0.5504
    --------------------------------------------
      LOOP:  cpu time     44.1691: real time     44.3755

 eigenvalue-minimisations  :     0
 total energy-change (2. order) :-0.2261355E-05  (-0.1650690E-05)
 number of electron      44.0000003 magnetization 
 augmentation part       16.3406494 magnetization 

 Free energy of the ion-electron system (eV)
  ---------------------------------------------------
  alpha Z        PSCENC =         2.32959210
  Ewald energy   TEWEN  =      1433.62714800
  -Hartree energ DENC   =     -4974.98828322
  -exchange      EXHF   =        78.73143274
  -V(xc)+E(xc)   XCENC  =        43.51845241
  PAW double counting   =      4109.28724852    -4030.97550425
  entropy T*S    EENTRO =        -0.00000000
  eigenvalues    EBANDS =      -364.15524401
  atomic energy  EATOM  =      3695.36854794
  ---------------------------------------------------
  free energy    TOTEN  =        -7.25660977 eV

  energy without entropy =       -7.25660977  energy(sigma->0) =       -7.25660977
  exchange ACFDT corr.  =        -0.00000000  see jH, gK, PRB 81, 115126


--------------------------------------------------------------------------------------------------------




--------------------------------------- Iteration      1(  18)  ---------------------------------------


    POTLOK:  cpu time      2.6706: real time      2.6728
    SETDIJ:  cpu time      2.2282: real time      2.2303
    TRIAL :  cpu time     16.9143: real time     16.9274
    CORREC:  cpu time     21.8842: real time     22.0222
    CHARGE:  cpu time      0.5239: real time      0.5378
    --------------------------------------------
      LOOP:  cpu time     44.2275: real time     44.4004

 eigenvalue-minimisations  :     0
 total energy-change (2. order) :-0.1493235E-05  (-0.5714056E-06)
 number of electron      44.0000003 magnetization 
 augmentation part       16.3406447 magnetization 

 Free energy of the ion-electron system (eV)
  ---------------------------------------------------
  alpha Z        PSCENC =         2.32959210
  Ewald energy   TEWEN  =      1433.62714800
  -Hartree energ DENC   =     -4974.97827093
  -exchange      EXHF   =        78.73117964
  -V(xc)+E(xc)   XCENC  =        43.51813503
  PAW double counting   =      4109.23811213    -4030.92652214
  entropy T*S    EENTRO =        -0.00000000
  eigenvalues    EBANDS =      -364.16453302
  atomic energy  EATOM  =      3695.36854794
  ---------------------------------------------------
  free energy    TOTEN  =        -7.25661126 eV

  energy without entropy =       -7.25661126  energy(sigma->0) =       -7.25661126
  exchange ACFDT corr.  =        -0.00000000  see jH, gK, PRB 81, 115126


--------------------------------------------------------------------------------------------------------




--------------------------------------- Iteration      1(  19)  ---------------------------------------


    POTLOK:  cpu time      2.6803: real time      2.6827
    SETDIJ:  cpu time      2.2328: real time      2.2351
    TRIAL :  cpu time     16.9401: real time     16.9544
    CORREC:  cpu time     22.1297: real time     22.2435
    EDDIAG:  cpu time     16.7903: real time     16.8461
    CHARGE:  cpu time      0.4824: real time      0.4831
    --------------------------------------------
      LOOP:  cpu time     61.2586: real time     61.4517

 eigenvalue-minimisations  :     0
 total energy-change (2. order) :-0.5961897E-06  (-0.5700185E-06)
 number of electron      44.0000003 magnetization 
 augmentation part       16.3406653 magnetization 

 Free energy of the ion-electron system (eV)
  ---------------------------------------------------
  alpha Z        PSCENC =         2.32959210
  Ewald energy   TEWEN  =      1433.62714800
  -Hartree energ DENC   =     -4974.97961755
  -exchange      EXHF   =        78.73127116
  -V(xc)+E(xc)   XCENC  =        43.51819398
  PAW double counting   =      4109.21994010    -4030.90843972
  entropy T*S    EENTRO =        -0.00000000
  eigenvalues    EBANDS =      -364.16314330
  atomic energy  EATOM  =      3695.36854794
  ---------------------------------------------------
  free energy    TOTEN  =        -7.25661186 eV

  energy without entropy =       -7.25661186  energy(sigma->0) =       -7.25661186
  exchange ACFDT corr.  =        -0.00000000  see jH, gK, PRB 81, 115126


--------------------------------------------------------------------------------------------------------


  average scaling for gradient   1.0513


 average (electrostatic) potential at core
  the test charge radii are     1.2098
  (the norm of the test charge is              1.0000)
       1 -72.6574       2 -71.3053       3 -72.3341       4 -72.6577
 
 
 
 E-fermi :  -5.8321     XC(G=0):  -0.2228     alpha+bet : -0.1187

 Fermi energy:        -5.8320669979

 k-point     1 :       0.0000    0.0000    0.0000
  band No.  band energies     occupation 
      1     -11.2708      2.00000
      2     -10.2364      2.00000
      3      -9.8600      2.00000
      4      -9.7927      2.00000
      5      -9.2064      2.00000
      6      -9.0855      2.00000
      7      -8.8605      2.00000
      8      -8.7611      2.00000
      9      -8.3211      2.00000
     10      -8.2175      2.00000
     11      -8.1051      2.00000
     12      -8.0973      2.00000
     13      -8.0209      2.00000
     14      -7.8381      2.00000
     15      -7.8331      2.00000
     16      -7.8034      2.00000
     17      -7.1016      2.00000
     18      -7.0996      2.00000
     19      -6.9148      2.00000
     20      -6.8578      2.00000
     21      -6.7000      2.00000
     22      -6.0923      2.00000
     23      -4.0066      0.00000
     24      -2.6920      0.00000
     25      -1.3317      0.00000
     26      -0.6157      0.00000
     27      -0.4421      0.00000
     28      -0.2426      0.00000
     29       0.1213      0.00000
     30       0.1293      0.00000
     31       0.4115      0.00000
     32       0.4260      0.00000
     33       0.4785      0.00000
     34       0.5002      0.00000
     35       0.5341      0.00000
     36       0.5544      0.00000
     37       0.6629      0.00000
     38       0.7766      0.00000
     39       0.8067      0.00000
     40       0.8239      0.00000
     41       0.8307      0.00000
     42       0.8428      0.00000
     43       0.8487      0.00000
     44       0.8723      0.00000
     45       0.9062      0.00000
     46       0.9496      0.00000
     47       0.9805      0.00000
     48       1.0018      0.00000
     49       1.0112      0.00000
     50       1.0292      0.00000
     51       1.2097      0.00000
     52       1.2217      0.00000
     53       1.2328      0.00000
     54       1.2593      0.00000
     55       1.2982      0.00000
     56       1.3503      0.00000
     57       1.3622      0.00000
     58       1.4371      0.00000
     59       1.5605      0.00000
     60       1.6006      0.00000
     61       1.6049      0.00000
     62       1.6411      0.00000
     63       1.6708      0.00000
     64       1.6949      0.00000


--------------------------------------------------------------------------------------------------------


 soft charge-density along one line, spin component           1
         0         1         2         3         4         5         6         7         8         9
 total charge-density along one line
 
 pseudopotential strength for first ion, spin component:           1
 -8.565  -0.027  -0.041   0.017  -0.001  -8.720  -0.027  -0.040
 -0.027  -8.525   0.005   0.034  -0.007  -0.027  -8.680   0.005
 -0.041   0.005  -8.513  -0.011  -0.011  -0.040   0.005  -8.669
  0.017   0.034  -0.011  -8.526  -0.032   0.017   0.033  -0.011
 -0.001  -0.007  -0.011  -0.032  -8.576  -0.001  -0.007  -0.010
 -8.720  -0.027  -0.040   0.017  -0.001  -8.858  -0.026  -0.039
 -0.027  -8.680   0.005   0.033  -0.007  -0.026  -8.819   0.005
 -0.040   0.005  -8.669  -0.011  -0.010  -0.039   0.005  -8.808
  0.017   0.033  -0.011  -8.681  -0.032   0.016   0.033  -0.011
 -0.001  -0.007  -0.010  -0.032  -8.731  -0.001  -0.006  -0.010
 -0.025  -0.008  -0.019   0.023  -0.003  -0.025  -0.008  -0.019
 -0.035  -0.011  -0.027   0.033  -0.004  -0.035  -0.011  -0.027
 -0.024  -0.011  -0.013  -0.001  -0.024  -0.023  -0.011  -0.013
 -0.001   0.024  -0.013  -0.024   0.000  -0.001   0.023  -0.013
  0.023  -0.001   0.014  -0.011  -0.024   0.022  -0.001   0.014
 -0.028  -0.013  -0.015  -0.001  -0.027  -0.027  -0.012  -0.015
 -0.001   0.026  -0.015  -0.028  -0.000  -0.001   0.026  -0.015
  0.026  -0.001   0.016  -0.013  -0.027   0.025  -0.001   0.015
 total augmentation occupancy for first ion, spin component:           1
  3.141   0.237   0.260  -0.273  -0.153  -1.135  -0.275  -0.345   0.343   0.139   1.239  -0.406  -0.084   0.053   0.148  -0.017
  0.237   2.832   0.001  -0.273  -0.092  -0.276  -0.745   0.004   0.336   0.118   0.373  -0.126  -0.009   0.083   0.056  -0.010
  0.260   0.001   2.712  -0.011   0.092  -0.344   0.005  -0.664   0.022  -0.166   0.972  -0.309  -0.100  -0.002   0.050  -0.007
 -0.273  -0.273  -0.011   2.818   0.227   0.340   0.334   0.021  -0.816  -0.328  -1.101   0.339   0.034  -0.084  -0.109  -0.004
 -0.153  -0.092   0.092   0.227   3.140   0.139   0.118  -0.166  -0.327  -1.279   0.208  -0.074  -0.125  -0.058  -0.103  -0.019
 -1.135  -0.276  -0.344   0.340   0.139   1.116   0.308   0.414  -0.396  -0.128  -1.073   0.367   0.124  -0.055  -0.178  -0.006
 -0.275  -0.745   0.005   0.334   0.118   0.308   0.661  -0.009  -0.386  -0.139  -0.318   0.110   0.023  -0.106  -0.057  -0.001
 -0.345   0.004  -0.664   0.021  -0.166   0.414  -0.009   0.610  -0.028   0.226  -0.848   0.287   0.130   0.014  -0.074  -0.006
  0.343   0.336   0.022  -0.816  -0.327  -0.396  -0.386  -0.028   0.797   0.410   0.939  -0.309  -0.042   0.119   0.137   0.003
  0.139   0.118  -0.166  -0.328  -1.279  -0.128  -0.139   0.226   0.410   1.380  -0.206   0.077   0.165   0.062   0.132  -0.005
  1.239   0.373   0.972  -1.101   0.208  -1.073  -0.318  -0.848   0.939  -0.206   3.533  -1.092  -0.293   0.122   0.271   0.010
 -0.406  -0.126  -0.309   0.339  -0.074   0.367   0.110   0.287  -0.309   0.077  -1.092   0.345   0.100  -0.039  -0.088  -0.004
 -0.084  -0.009  -0.100   0.034  -0.125   0.124   0.023   0.130  -0.042   0.165  -0.293   0.100   0.053  -0.002  -0.014  -0.003
  0.053   0.083  -0.002  -0.084  -0.058  -0.055  -0.106   0.014   0.119   0.062   0.122  -0.039  -0.002   0.025   0.019   0.000
  0.148   0.056   0.050  -0.109  -0.103  -0.178  -0.057  -0.074   0.137   0.132   0.271  -0.088  -0.014   0.019   0.048   0.001
 -0.017  -0.010  -0.007  -0.004  -0.019  -0.006  -0.001  -0.006   0.003  -0.005   0.010  -0.004  -0.003   0.000   0.001   0.001
 -0.004   0.023  -0.016  -0.022   0.003   0.003   0.002   0.001  -0.003  -0.002  -0.003   0.001   0.000  -0.001  -0.001  -0.000
  0.017  -0.004   0.011  -0.004  -0.023   0.006   0.003   0.003  -0.006  -0.003  -0.008   0.003   0.001  -0.001  -0.002  -0.000


------------------------ aborting loop because EDIFF is reached ----------------------------------------


    FORLOC:  cpu time      0.1253: real time      0.1905
    FORHF :  cpu time      4.4414: real time      4.4450
    FORNL :  cpu time      0.5121: real time      0.5455
    FORCOR:  cpu time      4.7279: real time      4.7325
    OFIELD:  cpu time      0.0011: real time      0.0011
 WARNING: Using user supplied parameters
     VDW_S8 = 1.703
     VDW_SR = 1.261
     because the xc functional is not supported. Required parameters not
     defined in the INCAR file will be replaced with PBE defaults ones.


 ---------------------------------------------------------------------------------------------

         DFTD3 V3.0 Rev 1        
 IVDW         = 11
 DF unknown   
 parameters
 VDW_S6       =    1.0000
 VDW_S8       =    1.7030
 VDW_SR       =    1.2610
 rs18     =    1.0000
 alpha6   =   14.0000
 alpha8   =   16.0000
 k1-k3    =   16.0000    1.3333   -4.0000
 VDW_RADIUS   =   50.2022 A
 VDW_CNRADIUS =   21.1671 A
 Edisp (eV)   -0.14161

 E6    (eV) :    -0.0185
 E8    (eV) :    -0.1232
 % E8        : 86.97
    FORVDW:  cpu time      0.0347: real time      0.0355

 VOLUME and BASIS-vectors are now :
 -----------------------------------------------------------------------------
  energy-cutoff  :      520.00
  volume of cell :     8000.00
      direct lattice vectors                 reciprocal lattice vectors
    20.000000000  0.000000000  0.000000000     0.050000000  0.000000000  0.000000000
     0.000000000 20.000000000  0.000000000     0.000000000  0.050000000  0.000000000
     0.000000000  0.000000000 20.000000000     0.000000000  0.000000000  0.050000000

  length of vectors
    20.000000000 20.000000000 20.000000000     0.050000000  0.050000000  0.050000000


 FORCES acting on ions:
    Electron-Ion                     Ewald-Force                    Non-Local-Force
 -----------------------------------------------------------------------------------------------
   0.251E+03 -.407E+03 0.915E+02   -.247E+03 0.402E+03 -.892E+02   -.514E+01 0.514E+01 -.237E+01
   0.109E+03 0.372E+03 0.126E+03   -.107E+03 -.366E+03 -.123E+03   -.203E+01 -.699E+01 -.234E+01
   0.393E+02 0.135E+03 0.454E+02   -.399E+02 -.137E+03 -.461E+02   0.498E+00 0.171E+01 0.567E+00
   -.399E+03 -.100E+03 -.262E+03   0.393E+03 0.101E+03 0.259E+03   0.652E+01 -.372E+00 0.397E+01
 -----------------------------------------------------------------------------------------------
   0.117E+00 0.400E+00 0.135E+00   0.000E+00 -.853E-13 -.568E-13   -.147E+00 -.513E+00 -.179E+00
 
 
 POSITION                                       TOTAL-FORCE (eV/Angst)
 -----------------------------------------------------------------------------------
     19.43026      2.13309     19.98047        -0.348860      0.529768     -0.132921
     19.19126     17.21636     19.06782        -0.135007     -0.461951     -0.154510
     19.85667     19.50681     19.83436        -0.051847     -0.179480     -0.061017
      1.52181      1.14374      1.11735         0.535713      0.111663      0.348448
 -----------------------------------------------------------------------------------
    total drift:                                0.003613      0.005563     -0.002298


--------------------------------------------------------------------------------------------------------



  FREE ENERGIE OF THE ION-ELECTRON SYSTEM (eV)
  ---------------------------------------------------
  free  energy   TOTEN  =        -7.39822096 eV

  energy  without entropy=       -7.39822096  energy(sigma->0) =       -7.39822096
 


--------------------------------------------------------------------------------------------------------


    POTLOK:  cpu time      4.8781: real time      4.8818


--------------------------------------------------------------------------------------------------------


     LOOP+:  cpu time    688.1014: real time    691.1422
    4ORBIT:  cpu time      0.0000: real time      0.0000

 total amount of memory used by VASP MPI-rank0  3552196. kBytes
=======================================================================

   base      :      30000. kBytes
   nonlr-proj:       6938. kBytes
   fftplans  :      28721. kBytes
   grid      :     157056. kBytes
   one-center:         62. kBytes
   HF        :         64. kBytes
   wavefun   :      10350. kBytes
   fock_wrk  :    3319005. kBytes
 
  
  
 General timing and accounting informations for this job:
 ========================================================
  
                  Total CPU time used (sec):      702.844
                            User time (sec):      633.320
                          System time (sec):       69.523
                         Elapsed time (sec):      706.829
  
                   Maximum memory used (kb):     5541804.
                   Average memory used (kb):          N/A
  
                          Minor page faults:      1127980
                          Major page faults:            0
                 Voluntary context switches:         8519
