 vasp.6.4.0 14Feb23 (build Dec 05 2023 14:15:48) complex                        
  
 executed on             LinuxIFC date 2023.12.12  10:06:50
 running  512 mpi-ranks, with    1 threads/rank, on   32 nodes
 distrk:  each k-point on  512 cores,    1 groups
 distr:  one band on NCORE=  16 cores,   32 groups


--------------------------------------------------------------------------------------------------------


 INCAR:
   SYSTEM = MgO-rocksalt
   ISMEAR = 0
   SIGMA = 0.05
   EDIFF = 1E-6
   ALGO = ALL
   ISTART = 2
   IBRION = -1
   NSW = 0
   ISYM = 0
   DIPOL = 0.5 0.5 0.5
   IDIPOL = 3
   LDIPOL = .TRUE.
   METAGGA = M06L
   ENCUT = 520
   PREC = Accurate
   LASPH = .TRUE.
   LREAL = Auto
   ISPIN = 1
   NELM = 20000
   NELMIN = 8
   NCORE = 16
   LWAVE = .FALSE.
   LCHARG = .FALSE.

 POTCAR:    PAW_PBE Mg_pv 13Apr2007               
 POTCAR:    PAW_PBE O 08Apr2002                   
 POTCAR:    PAW_PBE Mg_pv 13Apr2007               
   SHA256 =  f474ac0dd33840b9ae76c01d57fea79fdf77cdfbb07d5ade72c65f83c709b62b Mg_pv/POTCAR          
   COPYR  = (c) Copyright 13Apr2007 Georg Kresse                                                    
   COPYR  = This file is part of the software VASP. Any use, copying, and all other rights are regul
   COPYR  = If you do not have a valid VASP license, you may not use, copy or distribute this file. 
   VRHFIN =Mg: p6s2                                                                                 
   LEXCH  = PE                                                                                      
   EATOM  =  1056.7344 eV,   77.6678 Ry                                                             
                                                                                                    
   TITEL  = PAW_PBE Mg_pv 13Apr2007                                                                 
   LULTRA =        F    use ultrasoft PP ?                                                          
   IUNSCR =        1    unscreen: 0-lin 1-nonlin 2-no                                               
   RPACOR =    1.500    partial core radius                                                         
   POMASS =   24.305; ZVAL   =    8.000    mass and valenz                                          
   RCORE  =    2.000    outmost cutoff radius                                                       
   RWIGS  =    2.000; RWIGS  =    1.058    wigner-seitz radius (au A)                               
   ENMAX  =  403.929; ENMIN  =  302.947 eV                                                          
   RCLOC  =    1.506    cutoff for local pot                                                        
   LCOR   =        T    correct aug charges                                                         
   LPAW   =        T    paw PP                                                                      
   EAUG   =  758.780                                                                                
   DEXC   =    0.000                                                                                
   RMAX   =    2.045    core radius for proj-oper                                                   
   RAUG   =    1.300    factor for augmentation sphere                                              
   RDEP   =    2.025    radius for radial grids                                                     
   RDEPT  =    1.557    core radius for aug-charge                                                  
                                                                                                    
   Atomic configuration                                                                             
    5 entries                                                                                       
     n  l   j            E        occ.                                                              
     1  0  0.50     -1259.6230   2.0000                                                             
     2  0  0.50       -79.8442   2.0000                                                             
     2  1  1.50       -46.6121   6.0000                                                             
     3  0  0.50        -4.7055   2.0000                                                             
     3  2  1.50        -1.3606   0.0000                                                             
   Description                                                                                      
     l       E           TYP  RCUT    TYP  RCUT                                                     
     1    -46.6121073     23  1.600                                                                 
     1      2.7211652     23  1.600                                                                 
     0     -4.7054661     23  2.000                                                                 
     0     61.2262170     23  2.000                                                                 
     2     -1.3605826     23  2.000                                                                 
  local pseudopotential read in
  partial core-charges read in
  partial kinetic energy density read in
  atomic valenz-charges read in
  non local Contribution for L=           1  read in
    real space projection operators read in
  non local Contribution for L=           1  read in
    real space projection operators read in
  non local Contribution for L=           0  read in
    real space projection operators read in
  non local Contribution for L=           0  read in
    real space projection operators read in
  non local Contribution for L=           2  read in
    real space projection operators read in
    PAW grid and wavefunctions read in
 
   number of l-projection  operators is LMAX  =           5
   number of lm-projection operators is LMMAX =          13
 
 POTCAR:    PAW_PBE O 08Apr2002                   
   SHA256 =  818f92134a0a090dccd8ba1447fa70422a3b330e708bb4f08108d8ae51209ddf O/POTCAR              
   COPYR  = (c) Copyright 08Apr2002 Georg Kresse                                                    
   COPYR  = This file is part of the software VASP. Any use, copying, and all other rights are regul
   COPYR  = If you do not have a valid VASP license, you may not use, copy or distribute this file. 
   VRHFIN =O: s2p4                                                                                  
   LEXCH  = PE                                                                                      
   EATOM  =   432.3788 eV,   31.7789 Ry                                                             
                                                                                                    
   TITEL  = PAW_PBE O 08Apr2002                                                                     
   LULTRA =        F    use ultrasoft PP ?                                                          
   IUNSCR =        1    unscreen: 0-lin 1-nonlin 2-no                                               
   RPACOR =    1.200    partial core radius                                                         
   POMASS =   16.000; ZVAL   =    6.000    mass and valenz                                          
   RCORE  =    1.520    outmost cutoff radius                                                       
   RWIGS  =    1.550; RWIGS  =    0.820    wigner-seitz radius (au A)                               
   ENMAX  =  400.000; ENMIN  =  300.000 eV                                                          
   ICORE  =        2    local potential                                                             
   LCOR   =        T    correct aug charges                                                         
   LPAW   =        T    paw PP                                                                      
   EAUG   =  605.392                                                                                
   DEXC   =    0.000                                                                                
   RMAX   =    1.553    core radius for proj-oper                                                   
   RAUG   =    1.300    factor for augmentation sphere                                              
   RDEP   =    1.550    radius for radial grids                                                     
   RDEPT  =    1.329    core radius for aug-charge                                                  
                                                                                                    
   Atomic configuration                                                                             
    4 entries                                                                                       
     n  l   j            E        occ.                                                              
     1  0  0.50      -514.6923   2.0000                                                             
     2  0  0.50       -23.9615   2.0000                                                             
     2  1  0.50        -9.0305   4.0000                                                             
     3  2  1.50        -9.5241   0.0000                                                             
   Description                                                                                      
     l       E           TYP  RCUT    TYP  RCUT                                                     
     0    -23.9615318     23  1.200                                                                 
     0     -9.5240782     23  1.200                                                                 
     1     -9.0304911     23  1.520                                                                 
     1      8.1634956     23  1.520                                                                 
     2     -9.5240782      7  1.500                                                                 
  local pseudopotential read in
  partial core-charges read in
  partial kinetic energy density read in
  kinetic energy density of atom read in
  atomic valenz-charges read in
  non local Contribution for L=           0  read in
    real space projection operators read in
  non local Contribution for L=           0  read in
    real space projection operators read in
  non local Contribution for L=           1  read in
    real space projection operators read in
  non local Contribution for L=           1  read in
    real space projection operators read in
    PAW grid and wavefunctions read in
 
   number of l-projection  operators is LMAX  =           4
   number of lm-projection operators is LMMAX =           8
 
 Optimization of the real space projectors (new method)

 maximal supplied QI-value         = 18.90
 optimisation between [QCUT,QGAM] = [ 11.53, 23.24] = [ 37.21,151.29] Ry 
 Optimized for a Real-space Cutoff    1.28 Angstroem

   l    n(q)    QCUT    max X(q) W(low)/X(q) W(high)/X(q)  e(spline) 
   1      8    11.527     2.974    0.44E-04    0.56E-04    0.12E-06
   1      8    11.527     4.279    0.12E-03    0.12E-03    0.26E-06
   0      9    11.527    16.381    0.46E-04    0.64E-04    0.78E-07
   0      9    11.527     5.611    0.26E-04    0.43E-04    0.55E-07
   2      8    11.527     4.652    0.22E-03    0.72E-04    0.47E-07
 Optimization of the real space projectors (new method)

 maximal supplied QI-value         = 24.76
 optimisation between [QCUT,QGAM] = [ 11.64, 23.27] = [ 37.91,151.63] Ry 
 Optimized for a Real-space Cutoff    1.14 Angstroem

   l    n(q)    QCUT    max X(q) W(low)/X(q) W(high)/X(q)  e(spline) 
   0      8    11.635    20.381    0.10E-03    0.33E-03    0.24E-06
   0      8    11.635    15.268    0.11E-03    0.35E-03    0.26E-06
   1      7    11.635     5.964    0.24E-03    0.31E-03    0.30E-06
   1      7    11.635     5.382    0.22E-03    0.25E-03    0.26E-06
  PAW_PBE Mg_pv 13Apr2007               :
 energy of atom  1       EATOM=-1056.7344
 kinetic energy error for atom=    0.0340 (will be added to EATOM!!)
  PAW_PBE O 08Apr2002                   :
 energy of atom  2       EATOM= -432.3788
 kinetic energy error for atom=    0.0208 (will be added to EATOM!!)
 
 
 POSCAR: Mg  O
  positions in direct lattice
  No initial velocities read in

 METAGGA = M06L                                        LMAXTAU =  6    LMIXTAU =  F

 exchange correlation table for  LEXCH =        8
   RHO(1)=    0.500       N(1)  =     2000
   RHO(2)=  100.500       N(2)  =     4000
 


--------------------------------------------------------------------------------------------------------


 ion  position               nearest neighbor table
   1  0.000  0.000  0.407- 103 2.11 104 2.11 119 2.11 184 2.11 101 2.11
   2  0.100  0.100  0.407- 103 2.11 104 2.11 108 2.11 123 2.11 102 2.11
   3  0.000  0.100  0.503- 101 2.11 102 2.11 105 2.11 182 2.11 103 2.11
   4  0.100  0.000  0.503- 101 2.11 102 2.11 118 2.11 121 2.11 104 2.11
   5  0.000  0.200  0.407- 107 2.11 103 2.11 108 2.11 188 2.11 105 2.11
   6  0.100  0.300  0.407- 108 2.11 107 2.11 112 2.11 127 2.11 106 2.11
   7  0.000  0.300  0.503- 105 2.11 106 2.11 109 2.11 186 2.11 107 2.11
   8  0.100  0.200  0.503- 106 2.11 105 2.11 102 2.11 125 2.11 108 2.11
   9  0.000  0.400  0.407- 107 2.11 111 2.11 112 2.11 192 2.11 109 2.11
  10  0.100  0.500  0.407- 111 2.11 112 2.11 116 2.11 131 2.11 110 2.11
  11  0.000  0.500  0.503- 109 2.11 110 2.11 113 2.11 190 2.11 111 2.11
  12  0.100  0.400  0.503- 106 2.11 109 2.11 110 2.11 129 2.11 112 2.11
  13  0.000  0.600  0.407- 111 2.11 115 2.11 116 2.11 196 2.11 113 2.11
  14  0.100  0.700  0.407- 120 2.11 116 2.11 115 2.11 135 2.11 114 2.11
  15  0.000  0.700  0.503- 117 2.11 114 2.11 113 2.11 194 2.11 115 2.11
  16  0.100  0.600  0.503- 110 2.11 113 2.11 114 2.11 133 2.11 116 2.11
  17  0.000  0.800  0.407- 115 2.11 119 2.11 120 2.11 200 2.11 117 2.11
  18  0.100  0.900  0.407- 104 2.11 119 2.11 120 2.11 139 2.11 118 2.11
  19  0.000  0.900  0.503- 101 2.11 117 2.11 118 2.11 198 2.11 119 2.11
  20  0.100  0.800  0.503- 114 2.11 117 2.11 118 2.11 137 2.11 120 2.11
  21  0.200  0.000  0.407- 124 2.11 123 2.11 104 2.11 139 2.11 121 2.11
  22  0.300  0.100  0.407- 123 2.11 124 2.11 128 2.11 143 2.11 122 2.11
  23  0.200  0.100  0.503- 122 2.11 121 2.11 102 2.11 125 2.11 123 2.11
  24  0.300  0.000  0.503- 121 2.11 122 2.11 138 2.11 141 2.11 124 2.11
  25  0.200  0.200  0.407- 127 2.11 128 2.11 108 2.11 123 2.11 125 2.11
  26  0.300  0.300  0.407- 127 2.11 128 2.11 132 2.11 147 2.11 126 2.11
  27  0.200  0.300  0.503- 125 2.11 126 2.11 106 2.11 129 2.11 127 2.11
  28  0.300  0.200  0.503- 125 2.11 126 2.11 122 2.11 145 2.11 128 2.11
  29  0.200  0.400  0.407- 132 2.11 127 2.11 131 2.11 112 2.11 129 2.11
  30  0.300  0.500  0.407- 131 2.11 132 2.11 136 2.11 151 2.11 130 2.11
  31  0.200  0.500  0.503- 130 2.11 129 2.11 110 2.11 133 2.11 131 2.11
  32  0.300  0.400  0.503- 129 2.11 126 2.11 130 2.11 149 2.11 132 2.11
  33  0.200  0.600  0.407- 136 2.11 131 2.11 135 2.11 116 2.11 133 2.11
  34  0.300  0.700  0.407- 135 2.11 140 2.11 136 2.11 155 2.11 134 2.11
  35  0.200  0.700  0.503- 134 2.11 137 2.11 114 2.11 133 2.11 135 2.11
  36  0.300  0.600  0.503- 133 2.11 130 2.11 134 2.11 153 2.11 136 2.11
  37  0.200  0.800  0.407- 135 2.11 140 2.11 139 2.11 120 2.11 137 2.11
  38  0.300  0.900  0.407- 139 2.11 124 2.11 140 2.11 159 2.11 138 2.11
  39  0.200  0.900  0.503- 138 2.11 121 2.11 137 2.11 118 2.11 139 2.11
  40  0.300  0.800  0.503- 134 2.11 137 2.11 138 2.11 157 2.11 140 2.11
  41  0.400  0.000  0.407- 124 2.11 143 2.11 144 2.11 159 2.11 141 2.11
  42  0.500  0.100  0.407- 143 2.11 144 2.11 148 2.11 163 2.11 142 2.11
  43  0.400  0.100  0.503- 122 2.11 141 2.11 142 2.11 145 2.11 143 2.11
  44  0.500  0.000  0.503- 141 2.11 142 2.11 158 2.11 161 2.11 144 2.11
  45  0.400  0.200  0.407- 147 2.11 143 2.11 128 2.11 148 2.11 145 2.11
  46  0.500  0.300  0.407- 148 2.11 147 2.11 152 2.11 167 2.11 146 2.11
  47  0.400  0.300  0.503- 145 2.11 126 2.11 146 2.11 149 2.11 147 2.11
  48  0.500  0.200  0.503- 146 2.11 145 2.11 142 2.11 165 2.11 148 2.11
  49  0.400  0.400  0.407- 132 2.11 147 2.11 151 2.11 152 2.11 149 2.11
  50  0.500  0.500  0.407- 151 2.11 152 2.11 156 2.11 171 2.11 150 2.11
  51  0.400  0.500  0.503- 130 2.11 149 2.11 150 2.11 153 2.11 151 2.11
  52  0.500  0.400  0.503- 146 2.11 149 2.11 150 2.11 169 2.11 152 2.11
  53  0.400  0.600  0.407- 136 2.11 151 2.11 155 2.11 156 2.11 153 2.11
  54  0.500  0.700  0.407- 160 2.11 156 2.11 155 2.11 175 2.11 154 2.11
  55  0.400  0.700  0.503- 157 2.11 153 2.11 154 2.11 134 2.11 155 2.11
  56  0.500  0.600  0.503- 150 2.11 153 2.11 154 2.11 173 2.11 156 2.11
  57  0.400  0.800  0.407- 155 2.11 140 2.11 159 2.11 160 2.11 157 2.11
  58  0.500  0.900  0.407- 144 2.11 159 2.11 160 2.11 179 2.11 158 2.11
  59  0.400  0.900  0.503- 138 2.11 141 2.11 157 2.11 158 2.11 159 2.11
  60  0.500  0.800  0.503- 154 2.11 157 2.11 158 2.11 177 2.11 160 2.11
  61  0.600  0.000  0.407- 144 2.11 163 2.11 164 2.11 179 2.11 161 2.11
  62  0.700  0.100  0.407- 183 2.11 164 2.11 168 2.11 163 2.11 162 2.11
  63  0.600  0.100  0.503- 142 2.11 161 2.11 162 2.11 165 2.11 163 2.11
  64  0.700  0.000  0.503- 181 2.11 162 2.11 178 2.11 161 2.11 164 2.11
  65  0.600  0.200  0.407- 167 2.11 163 2.11 148 2.11 168 2.11 165 2.11
  66  0.700  0.300  0.407- 168 2.11 187 2.11 172 2.11 167 2.11 166 2.11
  67  0.600  0.300  0.503- 165 2.11 146 2.11 166 2.11 169 2.11 167 2.11
  68  0.700  0.200  0.503- 166 2.11 185 2.11 162 2.11 165 2.11 168 2.11
  69  0.600  0.400  0.407- 152 2.11 167 2.11 171 2.11 172 2.11 169 2.11
  70  0.700  0.500  0.407- 191 2.11 172 2.11 176 2.11 171 2.11 170 2.11
  71  0.600  0.500  0.503- 150 2.11 169 2.11 170 2.11 173 2.11 171 2.11
  72  0.700  0.400  0.503- 189 2.11 169 2.11 170 2.11 166 2.11 172 2.11
  73  0.600  0.600  0.407- 156 2.11 171 2.11 175 2.11 176 2.11 173 2.11
  74  0.700  0.700  0.407- 180 2.11 195 2.11 175 2.11 176 2.11 174 2.11
  75  0.600  0.700  0.503- 177 2.11 173 2.11 174 2.11 154 2.11 175 2.11
  76  0.700  0.600  0.503- 193 2.11 173 2.11 174 2.11 170 2.11 176 2.11
  77  0.600  0.800  0.407- 175 2.11 160 2.11 179 2.11 180 2.11 177 2.11
  78  0.700  0.900  0.407- 199 2.11 179 2.11 180 2.11 164 2.11 178 2.11
  79  0.600  0.900  0.503- 158 2.11 161 2.11 177 2.11 178 2.11 179 2.11
  80  0.700  0.800  0.503- 174 2.11 197 2.11 178 2.11 177 2.11 180 2.11
  81  0.800  0.000  0.407- 164 2.11 183 2.11 184 2.11 199 2.11 181 2.11
  82  0.900  0.100  0.407- 103 2.11 183 2.11 184 2.11 188 2.11 182 2.11
  83  0.800  0.100  0.503- 162 2.11 181 2.11 182 2.11 185 2.11 183 2.11
  84  0.900  0.000  0.503- 101 2.11 181 2.11 182 2.11 198 2.11 184 2.11
  85  0.800  0.200  0.407- 168 2.11 187 2.11 183 2.11 188 2.11 185 2.11
  86  0.900  0.300  0.407- 188 2.11 187 2.11 107 2.11 192 2.11 186 2.11
  87  0.800  0.300  0.503- 166 2.11 185 2.11 186 2.11 189 2.11 187 2.11
  88  0.900  0.200  0.503- 186 2.11 182 2.11 185 2.11 105 2.11 188 2.11
  89  0.800  0.400  0.407- 172 2.11 187 2.11 191 2.11 192 2.11 189 2.11
  90  0.900  0.500  0.407- 111 2.11 191 2.11 192 2.11 196 2.11 190 2.11
  91  0.800  0.500  0.503- 170 2.11 189 2.11 190 2.11 193 2.11 191 2.11
  92  0.900  0.400  0.503- 109 2.11 186 2.11 189 2.11 190 2.11 192 2.11
  93  0.800  0.600  0.407- 176 2.11 191 2.11 195 2.11 196 2.11 193 2.11
  94  0.900  0.700  0.407- 200 2.11 195 2.11 196 2.11 115 2.11 194 2.11
  95  0.800  0.700  0.503- 174 2.11 197 2.11 194 2.11 193 2.11 195 2.11
  96  0.900  0.600  0.503- 113 2.11 190 2.11 193 2.11 194 2.11 196 2.11
  97  0.800  0.800  0.407- 180 2.11 195 2.11 199 2.11 200 2.11 197 2.11
  98  0.900  0.900  0.407- 119 2.11 184 2.11 199 2.11 200 2.11 198 2.11
  99  0.800  0.900  0.503- 178 2.11 181 2.11 197 2.11 198 2.11 199 2.11
 100  0.900  0.800  0.503- 194 2.11 117 2.11 197 2.11 198 2.11 200 2.11
 101  0.000  0.000  0.503-   3 2.11   4 2.11  19 2.11  84 2.11   1 2.11
 102  0.100  0.100  0.503-   3 2.11   4 2.11   8 2.11  23 2.11   2 2.11
 103  0.000  0.100  0.407-   1 2.11   2 2.11   5 2.11  82 2.11   3 2.11
 104  0.100  0.000  0.407-   1 2.11   2 2.11  18 2.11  21 2.11   4 2.11
 105  0.000  0.200  0.503-   7 2.11   3 2.11   8 2.11  88 2.11   5 2.11
 106  0.100  0.300  0.503-   8 2.11   7 2.11  12 2.11  27 2.11   6 2.11
 107  0.000  0.300  0.407-   5 2.11   6 2.11   9 2.11  86 2.11   7 2.11
 108  0.100  0.200  0.407-   6 2.11   5 2.11   2 2.11  25 2.11   8 2.11
 109  0.000  0.400  0.503-   7 2.11  11 2.11  12 2.11  92 2.11   9 2.11
 110  0.100  0.500  0.503-  11 2.11  12 2.11  16 2.11  31 2.11  10 2.11
 111  0.000  0.500  0.407-   9 2.11  10 2.11  13 2.11  90 2.11  11 2.11
 112  0.100  0.400  0.407-   6 2.11   9 2.11  10 2.11  29 2.11  12 2.11
 113  0.000  0.600  0.503-  11 2.11  15 2.11  16 2.11  96 2.11  13 2.11
 114  0.100  0.700  0.503-  20 2.11  16 2.11  15 2.11  35 2.11  14 2.11
 115  0.000  0.700  0.407-  17 2.11  14 2.11  13 2.11  94 2.11  15 2.11
 116  0.100  0.600  0.407-  10 2.11  13 2.11  14 2.11  33 2.11  16 2.11
 117  0.000  0.800  0.503-  15 2.11  19 2.11  20 2.11 100 2.11  17 2.11
 118  0.100  0.900  0.503-   4 2.11  19 2.11  20 2.11  39 2.11  18 2.11
 119  0.000  0.900  0.407-   1 2.11  17 2.11  18 2.11  98 2.11  19 2.11
 120  0.100  0.800  0.407-  14 2.11  17 2.11  18 2.11  37 2.11  20 2.11
 121  0.200  0.000  0.503-  24 2.11  23 2.11   4 2.11  39 2.11  21 2.11
 122  0.300  0.100  0.503-  23 2.11  24 2.11  28 2.11  43 2.11  22 2.11
 123  0.200  0.100  0.407-  22 2.11  21 2.11   2 2.11  25 2.11  23 2.11
 124  0.300  0.000  0.407-  21 2.11  22 2.11  38 2.11  41 2.11  24 2.11
 125  0.200  0.200  0.503-  27 2.11  28 2.11   8 2.11  23 2.11  25 2.11
 126  0.300  0.300  0.503-  27 2.11  28 2.11  32 2.11  47 2.11  26 2.11
 127  0.200  0.300  0.407-  25 2.11  26 2.11   6 2.11  29 2.11  27 2.11
 128  0.300  0.200  0.407-  25 2.11  26 2.11  22 2.11  45 2.11  28 2.11
 129  0.200  0.400  0.503-  32 2.11  27 2.11  31 2.11  12 2.11  29 2.11
 130  0.300  0.500  0.503-  31 2.11  32 2.11  36 2.11  51 2.11  30 2.11
 131  0.200  0.500  0.407-  30 2.11  29 2.11  10 2.11  33 2.11  31 2.11
 132  0.300  0.400  0.407-  29 2.11  26 2.11  30 2.11  49 2.11  32 2.11
 133  0.200  0.600  0.503-  36 2.11  31 2.11  35 2.11  16 2.11  33 2.11
 134  0.300  0.700  0.503-  35 2.11  40 2.11  36 2.11  55 2.11  34 2.11
 135  0.200  0.700  0.407-  34 2.11  37 2.11  14 2.11  33 2.11  35 2.11
 136  0.300  0.600  0.407-  33 2.11  30 2.11  34 2.11  53 2.11  36 2.11
 137  0.200  0.800  0.503-  35 2.11  40 2.11  39 2.11  20 2.11  37 2.11
 138  0.300  0.900  0.503-  39 2.11  24 2.11  40 2.11  59 2.11  38 2.11
 139  0.200  0.900  0.407-  38 2.11  21 2.11  37 2.11  18 2.11  39 2.11
 140  0.300  0.800  0.407-  34 2.11  37 2.11  38 2.11  57 2.11  40 2.11
 141  0.400  0.000  0.503-  24 2.11  43 2.11  44 2.11  59 2.11  41 2.11
 142  0.500  0.100  0.503-  43 2.11  44 2.11  48 2.11  63 2.11  42 2.11
 143  0.400  0.100  0.407-  22 2.11  41 2.11  42 2.11  45 2.11  43 2.11
 144  0.500  0.000  0.407-  41 2.11  42 2.11  58 2.11  61 2.11  44 2.11
 145  0.400  0.200  0.503-  47 2.11  43 2.11  28 2.11  48 2.11  45 2.11
 146  0.500  0.300  0.503-  48 2.11  47 2.11  52 2.11  67 2.11  46 2.11
 147  0.400  0.300  0.407-  45 2.11  26 2.11  46 2.11  49 2.11  47 2.11
 148  0.500  0.200  0.407-  46 2.11  45 2.11  42 2.11  65 2.11  48 2.11
 149  0.400  0.400  0.503-  32 2.11  47 2.11  51 2.11  52 2.11  49 2.11
 150  0.500  0.500  0.503-  51 2.11  52 2.11  56 2.11  71 2.11  50 2.11
 151  0.400  0.500  0.407-  30 2.11  49 2.11  50 2.11  53 2.11  51 2.11
 152  0.500  0.400  0.407-  46 2.11  49 2.11  50 2.11  69 2.11  52 2.11
 153  0.400  0.600  0.503-  36 2.11  51 2.11  55 2.11  56 2.11  53 2.11
 154  0.500  0.700  0.503-  60 2.11  56 2.11  55 2.11  75 2.11  54 2.11
 155  0.400  0.700  0.407-  57 2.11  53 2.11  54 2.11  34 2.11  55 2.11
 156  0.500  0.600  0.407-  50 2.11  53 2.11  54 2.11  73 2.11  56 2.11
 157  0.400  0.800  0.503-  55 2.11  40 2.11  59 2.11  60 2.11  57 2.11
 158  0.500  0.900  0.503-  44 2.11  59 2.11  60 2.11  79 2.11  58 2.11
 159  0.400  0.900  0.407-  38 2.11  41 2.11  57 2.11  58 2.11  59 2.11
 160  0.500  0.800  0.407-  54 2.11  57 2.11  58 2.11  77 2.11  60 2.11
 161  0.600  0.000  0.503-  44 2.11  63 2.11  64 2.11  79 2.11  61 2.11
 162  0.700  0.100  0.503-  83 2.11  64 2.11  68 2.11  63 2.11  62 2.11
 163  0.600  0.100  0.407-  42 2.11  61 2.11  62 2.11  65 2.11  63 2.11
 164  0.700  0.000  0.407-  81 2.11  62 2.11  78 2.11  61 2.11  64 2.11
 165  0.600  0.200  0.503-  67 2.11  63 2.11  48 2.11  68 2.11  65 2.11
 166  0.700  0.300  0.503-  68 2.11  87 2.11  72 2.11  67 2.11  66 2.11
 167  0.600  0.300  0.407-  65 2.11  46 2.11  66 2.11  69 2.11  67 2.11
 168  0.700  0.200  0.407-  66 2.11  85 2.11  62 2.11  65 2.11  68 2.11
 169  0.600  0.400  0.503-  52 2.11  67 2.11  71 2.11  72 2.11  69 2.11
 170  0.700  0.500  0.503-  91 2.11  72 2.11  76 2.11  71 2.11  70 2.11
 171  0.600  0.500  0.407-  50 2.11  69 2.11  70 2.11  73 2.11  71 2.11
 172  0.700  0.400  0.407-  89 2.11  69 2.11  70 2.11  66 2.11  72 2.11
 173  0.600  0.600  0.503-  56 2.11  71 2.11  75 2.11  76 2.11  73 2.11
 174  0.700  0.700  0.503-  80 2.11  95 2.11  75 2.11  76 2.11  74 2.11
 175  0.600  0.700  0.407-  77 2.11  73 2.11  74 2.11  54 2.11  75 2.11
 176  0.700  0.600  0.407-  93 2.11  73 2.11  74 2.11  70 2.11  76 2.11
 177  0.600  0.800  0.503-  75 2.11  60 2.11  79 2.11  80 2.11  77 2.11
 178  0.700  0.900  0.503-  99 2.11  79 2.11  80 2.11  64 2.11  78 2.11
 179  0.600  0.900  0.407-  58 2.11  61 2.11  77 2.11  78 2.11  79 2.11
 180  0.700  0.800  0.407-  74 2.11  97 2.11  78 2.11  77 2.11  80 2.11
 181  0.800  0.000  0.503-  64 2.11  83 2.11  84 2.11  99 2.11  81 2.11
 182  0.900  0.100  0.503-   3 2.11  83 2.11  84 2.11  88 2.11  82 2.11
 183  0.800  0.100  0.407-  62 2.11  81 2.11  82 2.11  85 2.11  83 2.11
 184  0.900  0.000  0.407-   1 2.11  81 2.11  82 2.11  98 2.11  84 2.11
 185  0.800  0.200  0.503-  68 2.11  87 2.11  83 2.11  88 2.11  85 2.11
 186  0.900  0.300  0.503-  88 2.11  87 2.11   7 2.11  92 2.11  86 2.11
 187  0.800  0.300  0.407-  66 2.11  85 2.11  86 2.11  89 2.11  87 2.11
 188  0.900  0.200  0.407-  86 2.11  82 2.11  85 2.11   5 2.11  88 2.11
 189  0.800  0.400  0.503-  72 2.11  87 2.11  91 2.11  92 2.11  89 2.11
 190  0.900  0.500  0.503-  11 2.11  91 2.11  92 2.11  96 2.11  90 2.11
 191  0.800  0.500  0.407-  70 2.11  89 2.11  90 2.11  93 2.11  91 2.11
 192  0.900  0.400  0.407-   9 2.11  86 2.11  89 2.11  90 2.11  92 2.11
 193  0.800  0.600  0.503-  76 2.11  91 2.11  95 2.11  96 2.11  93 2.11
 194  0.900  0.700  0.503- 100 2.11  95 2.11  96 2.11  15 2.11  94 2.11
 195  0.800  0.700  0.407-  74 2.11  97 2.11  94 2.11  93 2.11  95 2.11
 196  0.900  0.600  0.407-  13 2.11  90 2.11  93 2.11  94 2.11  96 2.11
 197  0.800  0.800  0.503-  80 2.11  95 2.11  99 2.11 100 2.11  97 2.11
 198  0.900  0.900  0.503-  19 2.11  84 2.11  99 2.11 100 2.11  98 2.11
 199  0.800  0.900  0.407-  78 2.11  81 2.11  97 2.11  98 2.11  99 2.11
 200  0.900  0.800  0.407-  94 2.11  17 2.11  97 2.11  98 2.11 100 2.11
 

IMPORTANT INFORMATION: All symmetrisations will be switched off!
NOSYMM: (Re-)initialisation of all symmetry stuff for point group C_1.


----------------------------------------------------------------------------------------

                                     Primitive cell                                     

  volume of cell :    9881.6133

  direct lattice vectors                    reciprocal lattice vectors
    21.138852197  0.000000000  0.000000000     0.047306258  0.000000000  0.000000000
     0.000000000 21.138852197  0.000000000     0.000000000  0.047306258  0.000000000
     0.000000000  0.000000000 22.113885220     0.000000000  0.000000000  0.045220457

  length of vectors
    21.138852197 21.138852197 22.113885220     0.047306258  0.047306258  0.045220457

  position of ions in fractional coordinates (direct lattice)
     0.000000000  0.000000000  0.406984115
     0.100000000  0.100000000  0.406984115
     0.000000000  0.100000000  0.502574971
     0.100000000  0.000000000  0.502574971
     0.000000000  0.200000000  0.406984115
     0.100000000  0.300000000  0.406984115
     0.000000000  0.300000000  0.502574971
     0.100000000  0.200000000  0.502574971
     0.000000000  0.400000000  0.406984115
     0.100000000  0.500000000  0.406984115
     0.000000000  0.500000000  0.502574971
     0.100000000  0.400000000  0.502574971
     0.000000000  0.600000000  0.406984115
     0.100000000  0.700000000  0.406984115
     0.000000000  0.700000000  0.502574971
     0.100000000  0.600000000  0.502574971
     0.000000000  0.800000000  0.406984115
     0.100000000  0.900000000  0.406984115
     0.000000000  0.900000000  0.502574971
     0.100000000  0.800000000  0.502574971
     0.200000000  0.000000000  0.406984115
     0.300000000  0.100000000  0.406984115
     0.200000000  0.100000000  0.502574971
     0.300000000  0.000000000  0.502574971
     0.200000000  0.200000000  0.406984115
     0.300000000  0.300000000  0.406984115
     0.200000000  0.300000000  0.502574971
     0.300000000  0.200000000  0.502574971
     0.200000000  0.400000000  0.406984115
     0.300000000  0.500000000  0.406984115
     0.200000000  0.500000000  0.502574971
     0.300000000  0.400000000  0.502574971
     0.200000000  0.600000000  0.406984115
     0.300000000  0.700000000  0.406984115
     0.200000000  0.700000000  0.502574971
     0.300000000  0.600000000  0.502574971
     0.200000000  0.800000000  0.406984115
     0.300000000  0.900000000  0.406984115
     0.200000000  0.900000000  0.502574971
     0.300000000  0.800000000  0.502574971
     0.400000000  0.000000000  0.406984115
     0.500000000  0.100000000  0.406984115
     0.400000000  0.100000000  0.502574971
     0.500000000  0.000000000  0.502574971
     0.400000000  0.200000000  0.406984115
     0.500000000  0.300000000  0.406984115
     0.400000000  0.300000000  0.502574971
     0.500000000  0.200000000  0.502574971
     0.400000000  0.400000000  0.406984115
     0.500000000  0.500000000  0.406984115
     0.400000000  0.500000000  0.502574971
     0.500000000  0.400000000  0.502574971
     0.400000000  0.600000000  0.406984115
     0.500000000  0.700000000  0.406984115
     0.400000000  0.700000000  0.502574971
     0.500000000  0.600000000  0.502574971
     0.400000000  0.800000000  0.406984115
     0.500000000  0.900000000  0.406984115
     0.400000000  0.900000000  0.502574971
     0.500000000  0.800000000  0.502574971
     0.600000000  0.000000000  0.406984115
     0.700000000  0.100000000  0.406984115
     0.600000000  0.100000000  0.502574971
     0.700000000  0.000000000  0.502574971
     0.600000000  0.200000000  0.406984115
     0.700000000  0.300000000  0.406984115
     0.600000000  0.300000000  0.502574971
     0.700000000  0.200000000  0.502574971
     0.600000000  0.400000000  0.406984115
     0.700000000  0.500000000  0.406984115
     0.600000000  0.500000000  0.502574971
     0.700000000  0.400000000  0.502574971
     0.600000000  0.600000000  0.406984115
     0.700000000  0.700000000  0.406984115
     0.600000000  0.700000000  0.502574971
     0.700000000  0.600000000  0.502574971
     0.600000000  0.800000000  0.406984115
     0.700000000  0.900000000  0.406984115
     0.600000000  0.900000000  0.502574971
     0.700000000  0.800000000  0.502574971
     0.800000000  0.000000000  0.406984115
     0.900000000  0.100000000  0.406984115
     0.800000000  0.100000000  0.502574971
     0.900000000  0.000000000  0.502574971
     0.800000000  0.200000000  0.406984115
     0.900000000  0.300000000  0.406984115
     0.800000000  0.300000000  0.502574971
     0.900000000  0.200000000  0.502574971
     0.800000000  0.400000000  0.406984115
     0.900000000  0.500000000  0.406984115
     0.800000000  0.500000000  0.502574971
     0.900000000  0.400000000  0.502574971
     0.800000000  0.600000000  0.406984115
     0.900000000  0.700000000  0.406984115
     0.800000000  0.700000000  0.502574971
     0.900000000  0.600000000  0.502574971
     0.800000000  0.800000000  0.406984115
     0.900000000  0.900000000  0.406984115
     0.800000000  0.900000000  0.502574971
     0.900000000  0.800000000  0.502574971
     0.000000000  0.000000000  0.502574971
     0.100000000  0.100000000  0.502574971
     0.000000000  0.100000000  0.406984115
     0.100000000  0.000000000  0.406984115
     0.000000000  0.200000000  0.502574971
     0.100000000  0.300000000  0.502574971
     0.000000000  0.300000000  0.406984115
     0.100000000  0.200000000  0.406984115
     0.000000000  0.400000000  0.502574971
     0.100000000  0.500000000  0.502574971
     0.000000000  0.500000000  0.406984115
     0.100000000  0.400000000  0.406984115
     0.000000000  0.600000000  0.502574971
     0.100000000  0.700000000  0.502574971
     0.000000000  0.700000000  0.406984115
     0.100000000  0.600000000  0.406984115
     0.000000000  0.800000000  0.502574971
     0.100000000  0.900000000  0.502574971
     0.000000000  0.900000000  0.406984115
     0.100000000  0.800000000  0.406984115
     0.200000000  0.000000000  0.502574971
     0.300000000  0.100000000  0.502574971
     0.200000000  0.100000000  0.406984115
     0.300000000  0.000000000  0.406984115
     0.200000000  0.200000000  0.502574971
     0.300000000  0.300000000  0.502574971
     0.200000000  0.300000000  0.406984115
     0.300000000  0.200000000  0.406984115
     0.200000000  0.400000000  0.502574971
     0.300000000  0.500000000  0.502574971
     0.200000000  0.500000000  0.406984115
     0.300000000  0.400000000  0.406984115
     0.200000000  0.600000000  0.502574971
     0.300000000  0.700000000  0.502574971
     0.200000000  0.700000000  0.406984115
     0.300000000  0.600000000  0.406984115
     0.200000000  0.800000000  0.502574971
     0.300000000  0.900000000  0.502574971
     0.200000000  0.900000000  0.406984115
     0.300000000  0.800000000  0.406984115
     0.400000000  0.000000000  0.502574971
     0.500000000  0.100000000  0.502574971
     0.400000000  0.100000000  0.406984115
     0.500000000  0.000000000  0.406984115
     0.400000000  0.200000000  0.502574971
     0.500000000  0.300000000  0.502574971
     0.400000000  0.300000000  0.406984115
     0.500000000  0.200000000  0.406984115
     0.400000000  0.400000000  0.502574971
     0.500000000  0.500000000  0.502574971
     0.400000000  0.500000000  0.406984115
     0.500000000  0.400000000  0.406984115
     0.400000000  0.600000000  0.502574971
     0.500000000  0.700000000  0.502574971
     0.400000000  0.700000000  0.406984115
     0.500000000  0.600000000  0.406984115
     0.400000000  0.800000000  0.502574971
     0.500000000  0.900000000  0.502574971
     0.400000000  0.900000000  0.406984115
     0.500000000  0.800000000  0.406984115
     0.600000000  0.000000000  0.502574971
     0.700000000  0.100000000  0.502574971
     0.600000000  0.100000000  0.406984115
     0.700000000  0.000000000  0.406984115
     0.600000000  0.200000000  0.502574971
     0.700000000  0.300000000  0.502574971
     0.600000000  0.300000000  0.406984115
     0.700000000  0.200000000  0.406984115
     0.600000000  0.400000000  0.502574971
     0.700000000  0.500000000  0.502574971
     0.600000000  0.500000000  0.406984115
     0.700000000  0.400000000  0.406984115
     0.600000000  0.600000000  0.502574971
     0.700000000  0.700000000  0.502574971
     0.600000000  0.700000000  0.406984115
     0.700000000  0.600000000  0.406984115
     0.600000000  0.800000000  0.502574971
     0.700000000  0.900000000  0.502574971
     0.600000000  0.900000000  0.406984115
     0.700000000  0.800000000  0.406984115
     0.800000000  0.000000000  0.502574971
     0.900000000  0.100000000  0.502574971
     0.800000000  0.100000000  0.406984115
     0.900000000  0.000000000  0.406984115
     0.800000000  0.200000000  0.502574971
     0.900000000  0.300000000  0.502574971
     0.800000000  0.300000000  0.406984115
     0.900000000  0.200000000  0.406984115
     0.800000000  0.400000000  0.502574971
     0.900000000  0.500000000  0.502574971
     0.800000000  0.500000000  0.406984115
     0.900000000  0.400000000  0.406984115
     0.800000000  0.600000000  0.502574971
     0.900000000  0.700000000  0.502574971
     0.800000000  0.700000000  0.406984115
     0.900000000  0.600000000  0.406984115
     0.800000000  0.800000000  0.502574971
     0.900000000  0.900000000  0.502574971
     0.800000000  0.900000000  0.406984115
     0.900000000  0.800000000  0.406984115

  ion indices of the primitive-cell ions
   primitive index   ion index
                 1           1
                 2           2
                 3           3
                 4           4
                 5           5
                 6           6
                 7           7
                 8           8
                 9           9
                10          10
                11          11
                12          12
                13          13
                14          14
                15          15
                16          16
                17          17
                18          18
                19          19
                20          20
                21          21
                22          22
                23          23
                24          24
                25          25
                26          26
                27          27
                28          28
                29          29
                30          30
                31          31
                32          32
                33          33
                34          34
                35          35
                36          36
                37          37
                38          38
                39          39
                40          40
                41          41
                42          42
                43          43
                44          44
                45          45
                46          46
                47          47
                48          48
                49          49
                50          50
                51          51
                52          52
                53          53
                54          54
                55          55
                56          56
                57          57
                58          58
                59          59
                60          60
                61          61
                62          62
                63          63
                64          64
                65          65
                66          66
                67          67
                68          68
                69          69
                70          70
                71          71
                72          72
                73          73
                74          74
                75          75
                76          76
                77          77
                78          78
                79          79
                80          80
                81          81
                82          82
                83          83
                84          84
                85          85
                86          86
                87          87
                88          88
                89          89
                90          90
                91          91
                92          92
                93          93
                94          94
                95          95
                96          96
                97          97
                98          98
                99          99
               100         100
               101         101
               102         102
               103         103
               104         104
               105         105
               106         106
               107         107
               108         108
               109         109
               110         110
               111         111
               112         112
               113         113
               114         114
               115         115
               116         116
               117         117
               118         118
               119         119
               120         120
               121         121
               122         122
               123         123
               124         124
               125         125
               126         126
               127         127
               128         128
               129         129
               130         130
               131         131
               132         132
               133         133
               134         134
               135         135
               136         136
               137         137
               138         138
               139         139
               140         140
               141         141
               142         142
               143         143
               144         144
               145         145
               146         146
               147         147
               148         148
               149         149
               150         150
               151         151
               152         152
               153         153
               154         154
               155         155
               156         156
               157         157
               158         158
               159         159
               160         160
               161         161
               162         162
               163         163
               164         164
               165         165
               166         166
               167         167
               168         168
               169         169
               170         170
               171         171
               172         172
               173         173
               174         174
               175         175
               176         176
               177         177
               178         178
               179         179
               180         180
               181         181
               182         182
               183         183
               184         184
               185         185
               186         186
               187         187
               188         188
               189         189
               190         190
               191         191
               192         192
               193         193
               194         194
               195         195
               196         196
               197         197
               198         198
               199         199
               200         200

----------------------------------------------------------------------------------------

 
 
 KPOINTS: KPOINTS created by Atomic Simulation Env

Automatic generation of k-mesh.
 Grid dimensions read from file:
 generate k-points for:    1    1    1

 Generating k-lattice:

  Cartesian coordinates                     Fractional coordinates (reciprocal lattice)
     0.047306258  0.000000000  0.000000000     1.000000000  0.000000000  0.000000000
     0.000000000  0.047306258  0.000000000     0.000000000  1.000000000  0.000000000
     0.000000000  0.000000000  0.045220457     0.000000000  0.000000000  1.000000000

  Length of vectors
     0.047306258  0.047306258  0.045220457

  Shift w.r.t. Gamma in fractional coordinates (k-lattice)
     0.000000000  0.000000000  0.000000000

 
 Subroutine IBZKPT returns following result:
 ===========================================
 
 Found      1 irreducible k-points:
 
 Following reciprocal coordinates:
            Coordinates               Weight
  0.000000  0.000000  0.000000      1.000000
 
 Following cartesian coordinates:
            Coordinates               Weight
  0.000000  0.000000  0.000000      1.000000
 


--------------------------------------------------------------------------------------------------------




 Dimension of arrays:
   k-points           NKPTS =      1   k-points in BZ     NKDIM =      1   number of bands    NBANDS=    864
   number of dos      NEDOS =    301   number of ions     NIONS =    200
   non local maximal  LDIM  =      5   non local SUM 2l+1 LMDIM =     13
   total plane-waves  NPLWV = ******
   max r-space proj   IRMAX =   3914   max aug-charges    IRDMAX=   8776
   dimension x,y,z NGX =   160 NGY =  160 NGZ =  168
   dimension x,y,z NGXF=   320 NGYF=  320 NGZF=  336
   support grid    NGXF=   320 NGYF=  320 NGZF=  336
   ions per type =             100 100
   NGX,Y,Z   is equivalent  to a cutoff of  12.58, 12.58, 12.63 a.u.
   NGXF,Y,Z  is equivalent  to a cutoff of  25.17, 25.17, 25.26 a.u.

 SYSTEM =  MgO-rocksalt                            
 POSCAR =  Mg  O                                   

 Startparameter for this run:
   NWRITE =      2    write-flag & timer
   PREC   = accura    normal or accurate (medium, high low for compatibility)
   ISTART =      2    job   : 0-new  1-cont  2-samecut
   ICHARG =      0    charge: 1-file 2-atom 10-const
   ISPIN  =      1    spin polarized calculation?
   LNONCOLLINEAR =      F non collinear calculations
   LSORBIT =      F    spin-orbit coupling
   INIWAV =      1    electr: 0-lowe 1-rand  2-diag
   LASPH  =      T    aspherical Exc in radial PAW
 Electronic Relaxation 1
   ENCUT  =  520.0 eV  38.22 Ry    6.18 a.u.  39.30 39.30 41.12*2*pi/ulx,y,z
   ENINI  =  520.0     initial cutoff
   ENAUG  =  758.8 eV  augmentation charge cutoff
   NELM   =  20000;   NELMIN=  8; NELMDL=  0     # of ELM steps 
   EDIFF  = 0.1E-05   stopping-criterion for ELM
   LREAL  =      T    real-space projection
   NLSPLINE    = F    spline interpolate recip. space projectors
   LCOMPAT=      F    compatible to vasp.4.4
   GGA_COMPAT  = T    GGA compatible to vasp.4.4-vasp.4.6
   LMAXPAW     = -100 max onsite density
   LMAXMIX     =    2 max onsite mixed and CHGCAR
   VOSKOWN=      0    Vosko Wilk Nusair interpolation
   ROPT   =   -0.00025  -0.00025
 Ionic relaxation
   EDIFFG = 0.1E-04   stopping-criterion for IOM
   NSW    =      0    number of steps for IOM
   NBLOCK =      1;   KBLOCK =      1    inner block; outer block 
   IBRION =     -1    ionic relax: 0-MD 1-quasi-New 2-CG
   NFREE  =      0    steps in history (QN), initial steepest desc. (CG)
   ISIF   =      2    stress and relaxation
   IWAVPR =     10    prediction:  0-non 1-charg 2-wave 3-comb
   ISYM   =      0    0-nonsym 1-usesym 2-fastsym
   LCORR  =      T    Harris-Foulkes like correction to forces

   POTIM  = 0.5000    time-step for ionic-motion
   TEIN   =    0.0    initial temperature
   TEBEG  =    0.0;   TEEND  =   0.0 temperature during run
   SMASS  =  -3.00    Nose mass-parameter (am)
   estimated Nose-frequenzy (Omega)   =  0.10E-29 period in steps = 0.13E+47 mass=  -0.102E-25a.u.
   SCALEE = 1.0000    scale energy and forces
   NPACO  =    256;   APACO  = 10.0  distance and # of slots for P.C.
   PSTRESS=    0.0 pullay stress

  Mass of Ions in am
   POMASS =  24.30 16.00
  Ionic Valenz
   ZVAL   =   8.00  6.00
  Atomic Wigner-Seitz radii
   RWIGS  =  -1.00 -1.00
  virtual crystal weights 
   VCA    =   1.00  1.00
   NELECT =    1400.0000    total number of electrons
   NUPDOWN=      -1.0000    fix difference up-down

 DOS related values:
   EMIN   =  10.00;   EMAX   =-10.00  energy-range for DOS
   EFERMI =   0.00;   METHOD = LEGACY      
   ISMEAR =     0;   SIGMA  =   0.05  broadening in eV -4-tet -1-fermi 0-gaus

 Electronic relaxation 2 (details)
   IALGO  =     58    algorithm
   LDIAG  =      T    sub-space diagonalisation (order eigenvalues)
   LSUBROT=      F    optimize rotation matrix (better conditioning)
   TURBO    =      0    0=normal 1=particle mesh
   IRESTART =      0    0=no restart 2=restart with 2 vectors
   NREBOOT  =      0    no. of reboots
   NMIN     =      0    reboot dimension
   EREF     =   0.00    reference energy to select bands
   IMIX   =      4    mixing-type and parameters
     AMIX     =   0.40;   BMIX     =  1.00
     AMIX_MAG =   1.60;   BMIX_MAG =  1.00
     AMIN     =   0.10
     WC   =   100.;   INIMIX=   1;  MIXPRE=   1;  MAXMIX= -45

 Intra band minimization:
   WEIMIN = 0.0000     energy-eigenvalue tresh-hold
   EBREAK =  0.29E-09  absolut break condition
   DEPER  =   0.30     relativ break condition  

   TIME   =   0.40     timestep for ELM

  volume/ion in A,a.u.               =      49.41       333.42
  Fermi-wavevector in a.u.,A,eV,Ry     =   0.853444  1.612775  9.910024  0.728366
  Thomas-Fermi vector in A             =   1.969887
 
 Write flags
   LWAVE        =      F    write WAVECAR
   LDOWNSAMPLE  =      F    k-point downsampling of WAVECAR
   LCHARG       =      F    write CHGCAR
   LVTOT        =      F    write LOCPOT, total local potential
   LVHAR        =      F    write LOCPOT, Hartree potential only
   LELF         =      F    write electronic localiz. function (ELF)
   LORBIT       =      0    0 simple, 1 ext, 2 COOP (PROOUT), +10 PAW based schemes


 Dipole corrections
   LMONO  =      F    monopole corrections only (constant potential shift)
   LDIPOL =      T    correct potential (dipole corrections)
   IDIPOL =      3    1-x, 2-y, 3-z, 4-all directions 
   EPSILON=  1.0000000 bulk dielectric constant

 Exchange correlation treatment:
   GGA     =    --    GGA type
   LEXCH   =     8    internal setting for exchange type
   LIBXC   =     F    Libxc                    
   VOSKOWN =     0    Vosko Wilk Nusair interpolation
   LHFCALC =     F    Hartree Fock is set to
   LHFONE  =     F    Hartree Fock one center treatment
   AEXX    =    0.0000 exact exchange contribution

 Linear response parameters
   LEPSILON=     F    determine dielectric tensor
   LRPA    =     F    only Hartree local field effects (RPA)
   LNABLA  =     F    use nabla operator in PAW spheres
   LVEL    =     F    velocity operator in full k-point grid
   CSHIFT  =0.1000    complex shift for real part using Kramers Kronig
   OMEGAMAX=  -1.0    maximum frequency
   DEG_THRESHOLD= 0.2000000E-02 threshold for treating states as degnerate
   RTIME   =   -0.100 relaxation time in fs
  (WPLASMAI=    0.000 imaginary part of plasma frequency in eV, 0.658/RTIME)
   DFIELD  = 0.0000000 0.0000000 0.0000000 field for delta impulse in time
 
  Optional k-point grid parameters
   LKPOINTS_OPT  =     F    use optional k-point grid
   KPOINTS_OPT_MODE=     1    mode for optional k-point grid
 
 Orbital magnetization related:
   ORBITALMAG=     F  switch on orbital magnetization
   LCHIMAG   =     F  perturbation theory with respect to B field
   DQ        =  0.001000  dq finite difference perturbation B field
   LLRAUG    =     F  two centre corrections for induced B field
   LBONE     =     F  B-component reconstruction in AE one-centre
   LVGVCALC  =     T  calculate vGv susceptibility
   LVGVAPPL  =     F  apply vGv susceptibility instead of pGv for G=0

 Random number generation:
   RANDOM_GENERATOR = DEFAULT
   PCG_SEED         = not used


--------------------------------------------------------------------------------------------------------


 Static calculation
 charge density and potential will be updated during run
 non-spin polarized calculation
 Conjugate gradient for all bands (Freysoldt, et al. PRB 79, 241103 (2009))
 preconditioned conjugated gradient                                        
 perform sub-space diagonalisation
    before iterative eigenvector-optimisation
 modified Broyden-mixing scheme, WC =      100.0
 initial mixing is a Kerker type mixing with AMIX =  0.4000 and BMIX =      1.0000
 Hartree-type preconditioning will be used
 using additional bands          164
 real space projection scheme for non local part
 use partial core corrections
 no Harris-corrections to forces 
 use gradient corrections 
 use of overlap-Matrix (Vanderbilt PP)
 Gauss-broadening in eV      SIGMA  =   0.05


--------------------------------------------------------------------------------------------------------


  energy-cutoff  :      520.00
  volume of cell :     9881.61
      direct lattice vectors                 reciprocal lattice vectors
    21.138852197  0.000000000  0.000000000     0.047306258  0.000000000  0.000000000
     0.000000000 21.138852197  0.000000000     0.000000000  0.047306258  0.000000000
     0.000000000  0.000000000 22.113885220     0.000000000  0.000000000  0.045220457

  length of vectors
    21.138852197 21.138852197 22.113885220     0.047306258  0.047306258  0.045220457


 
 old parameters found on file WAVECAR:
  energy-cutoff  :      520.00
  volume of cell :     9881.61
      direct lattice vectors                 reciprocal lattice vectors
    21.138852197  0.000000000  0.000000000     0.047306258  0.000000000  0.000000000
     0.000000000 21.138852197  0.000000000     0.000000000  0.047306258  0.000000000
     0.000000000  0.000000000 22.113885220     0.000000000  0.000000000  0.045220457

  length of vectors

 
 k-points in units of 2pi/SCALE and weight: KPOINTS created by Atomic Simulation Env
   0.00000000  0.00000000  0.00000000       1.000
 
 k-points in reciprocal lattice and weights: KPOINTS created by Atomic Simulation Env
   0.00000000  0.00000000  0.00000000       1.000
 
 position of ions in fractional coordinates (direct lattice) 
   0.00000000  0.00000000  0.40698411
   0.10000000  0.10000000  0.40698411
   0.00000000  0.10000000  0.50257497
   0.10000000  0.00000000  0.50257497
   0.00000000  0.20000000  0.40698411
   0.10000000  0.30000000  0.40698411
   0.00000000  0.30000000  0.50257497
   0.10000000  0.20000000  0.50257497
   0.00000000  0.40000000  0.40698411
   0.10000000  0.50000000  0.40698411
   0.00000000  0.50000000  0.50257497
   0.10000000  0.40000000  0.50257497
   0.00000000  0.60000000  0.40698411
   0.10000000  0.70000000  0.40698411
   0.00000000  0.70000000  0.50257497
   0.10000000  0.60000000  0.50257497
   0.00000000  0.80000000  0.40698411
   0.10000000  0.90000000  0.40698411
   0.00000000  0.90000000  0.50257497
   0.10000000  0.80000000  0.50257497
   0.20000000  0.00000000  0.40698411
   0.30000000  0.10000000  0.40698411
   0.20000000  0.10000000  0.50257497
   0.30000000  0.00000000  0.50257497
   0.20000000  0.20000000  0.40698411
   0.30000000  0.30000000  0.40698411
   0.20000000  0.30000000  0.50257497
   0.30000000  0.20000000  0.50257497
   0.20000000  0.40000000  0.40698411
   0.30000000  0.50000000  0.40698411
   0.20000000  0.50000000  0.50257497
   0.30000000  0.40000000  0.50257497
   0.20000000  0.60000000  0.40698411
   0.30000000  0.70000000  0.40698411
   0.20000000  0.70000000  0.50257497
   0.30000000  0.60000000  0.50257497
   0.20000000  0.80000000  0.40698411
   0.30000000  0.90000000  0.40698411
   0.20000000  0.90000000  0.50257497
   0.30000000  0.80000000  0.50257497
   0.40000000  0.00000000  0.40698411
   0.50000000  0.10000000  0.40698411
   0.40000000  0.10000000  0.50257497
   0.50000000  0.00000000  0.50257497
   0.40000000  0.20000000  0.40698411
   0.50000000  0.30000000  0.40698411
   0.40000000  0.30000000  0.50257497
   0.50000000  0.20000000  0.50257497
   0.40000000  0.40000000  0.40698411
   0.50000000  0.50000000  0.40698411
   0.40000000  0.50000000  0.50257497
   0.50000000  0.40000000  0.50257497
   0.40000000  0.60000000  0.40698411
   0.50000000  0.70000000  0.40698411
   0.40000000  0.70000000  0.50257497
   0.50000000  0.60000000  0.50257497
   0.40000000  0.80000000  0.40698411
   0.50000000  0.90000000  0.40698411
   0.40000000  0.90000000  0.50257497
   0.50000000  0.80000000  0.50257497
   0.60000000  0.00000000  0.40698411
   0.70000000  0.10000000  0.40698411
   0.60000000  0.10000000  0.50257497
   0.70000000  0.00000000  0.50257497
   0.60000000  0.20000000  0.40698411
   0.70000000  0.30000000  0.40698411
   0.60000000  0.30000000  0.50257497
   0.70000000  0.20000000  0.50257497
   0.60000000  0.40000000  0.40698411
   0.70000000  0.50000000  0.40698411
   0.60000000  0.50000000  0.50257497
   0.70000000  0.40000000  0.50257497
   0.60000000  0.60000000  0.40698411
   0.70000000  0.70000000  0.40698411
   0.60000000  0.70000000  0.50257497
   0.70000000  0.60000000  0.50257497
   0.60000000  0.80000000  0.40698411
   0.70000000  0.90000000  0.40698411
   0.60000000  0.90000000  0.50257497
   0.70000000  0.80000000  0.50257497
   0.80000000  0.00000000  0.40698411
   0.90000000  0.10000000  0.40698411
   0.80000000  0.10000000  0.50257497
   0.90000000  0.00000000  0.50257497
   0.80000000  0.20000000  0.40698411
   0.90000000  0.30000000  0.40698411
   0.80000000  0.30000000  0.50257497
   0.90000000  0.20000000  0.50257497
   0.80000000  0.40000000  0.40698411
   0.90000000  0.50000000  0.40698411
   0.80000000  0.50000000  0.50257497
   0.90000000  0.40000000  0.50257497
   0.80000000  0.60000000  0.40698411
   0.90000000  0.70000000  0.40698411
   0.80000000  0.70000000  0.50257497
   0.90000000  0.60000000  0.50257497
   0.80000000  0.80000000  0.40698411
   0.90000000  0.90000000  0.40698411
   0.80000000  0.90000000  0.50257497
   0.90000000  0.80000000  0.50257497
   0.00000000  0.00000000  0.50257497
   0.10000000  0.10000000  0.50257497
   0.00000000  0.10000000  0.40698411
   0.10000000  0.00000000  0.40698411
   0.00000000  0.20000000  0.50257497
   0.10000000  0.30000000  0.50257497
   0.00000000  0.30000000  0.40698411
   0.10000000  0.20000000  0.40698411
   0.00000000  0.40000000  0.50257497
   0.10000000  0.50000000  0.50257497
   0.00000000  0.50000000  0.40698411
   0.10000000  0.40000000  0.40698411
   0.00000000  0.60000000  0.50257497
   0.10000000  0.70000000  0.50257497
   0.00000000  0.70000000  0.40698411
   0.10000000  0.60000000  0.40698411
   0.00000000  0.80000000  0.50257497
   0.10000000  0.90000000  0.50257497
   0.00000000  0.90000000  0.40698411
   0.10000000  0.80000000  0.40698411
   0.20000000  0.00000000  0.50257497
   0.30000000  0.10000000  0.50257497
   0.20000000  0.10000000  0.40698411
   0.30000000  0.00000000  0.40698411
   0.20000000  0.20000000  0.50257497
   0.30000000  0.30000000  0.50257497
   0.20000000  0.30000000  0.40698411
   0.30000000  0.20000000  0.40698411
   0.20000000  0.40000000  0.50257497
   0.30000000  0.50000000  0.50257497
   0.20000000  0.50000000  0.40698411
   0.30000000  0.40000000  0.40698411
   0.20000000  0.60000000  0.50257497
   0.30000000  0.70000000  0.50257497
   0.20000000  0.70000000  0.40698411
   0.30000000  0.60000000  0.40698411
   0.20000000  0.80000000  0.50257497
   0.30000000  0.90000000  0.50257497
   0.20000000  0.90000000  0.40698411
   0.30000000  0.80000000  0.40698411
   0.40000000  0.00000000  0.50257497
   0.50000000  0.10000000  0.50257497
   0.40000000  0.10000000  0.40698411
   0.50000000  0.00000000  0.40698411
   0.40000000  0.20000000  0.50257497
   0.50000000  0.30000000  0.50257497
   0.40000000  0.30000000  0.40698411
   0.50000000  0.20000000  0.40698411
   0.40000000  0.40000000  0.50257497
   0.50000000  0.50000000  0.50257497
   0.40000000  0.50000000  0.40698411
   0.50000000  0.40000000  0.40698411
   0.40000000  0.60000000  0.50257497
   0.50000000  0.70000000  0.50257497
   0.40000000  0.70000000  0.40698411
   0.50000000  0.60000000  0.40698411
   0.40000000  0.80000000  0.50257497
   0.50000000  0.90000000  0.50257497
   0.40000000  0.90000000  0.40698411
   0.50000000  0.80000000  0.40698411
   0.60000000  0.00000000  0.50257497
   0.70000000  0.10000000  0.50257497
   0.60000000  0.10000000  0.40698411
   0.70000000  0.00000000  0.40698411
   0.60000000  0.20000000  0.50257497
   0.70000000  0.30000000  0.50257497
   0.60000000  0.30000000  0.40698411
   0.70000000  0.20000000  0.40698411
   0.60000000  0.40000000  0.50257497
   0.70000000  0.50000000  0.50257497
   0.60000000  0.50000000  0.40698411
   0.70000000  0.40000000  0.40698411
   0.60000000  0.60000000  0.50257497
   0.70000000  0.70000000  0.50257497
   0.60000000  0.70000000  0.40698411
   0.70000000  0.60000000  0.40698411
   0.60000000  0.80000000  0.50257497
   0.70000000  0.90000000  0.50257497
   0.60000000  0.90000000  0.40698411
   0.70000000  0.80000000  0.40698411
   0.80000000  0.00000000  0.50257497
   0.90000000  0.10000000  0.50257497
   0.80000000  0.10000000  0.40698411
   0.90000000  0.00000000  0.40698411
   0.80000000  0.20000000  0.50257497
   0.90000000  0.30000000  0.50257497
   0.80000000  0.30000000  0.40698411
   0.90000000  0.20000000  0.40698411
   0.80000000  0.40000000  0.50257497
   0.90000000  0.50000000  0.50257497
   0.80000000  0.50000000  0.40698411
   0.90000000  0.40000000  0.40698411
   0.80000000  0.60000000  0.50257497
   0.90000000  0.70000000  0.50257497
   0.80000000  0.70000000  0.40698411
   0.90000000  0.60000000  0.40698411
   0.80000000  0.80000000  0.50257497
   0.90000000  0.90000000  0.50257497
   0.80000000  0.90000000  0.40698411
   0.90000000  0.80000000  0.40698411
 
 position of ions in cartesian coordinates  (Angst):
   0.00000000  0.00000000  9.00000000
   2.11388522  2.11388522  9.00000000
   0.00000000  2.11388522 11.11388522
   2.11388522  0.00000000 11.11388522
   0.00000000  4.22777044  9.00000000
   2.11388522  6.34165566  9.00000000
   0.00000000  6.34165566 11.11388522
   2.11388522  4.22777044 11.11388522
   0.00000000  8.45554088  9.00000000
   2.11388522 10.56942610  9.00000000
   0.00000000 10.56942610 11.11388522
   2.11388522  8.45554088 11.11388522
   0.00000000 12.68331132  9.00000000
   2.11388522 14.79719654  9.00000000
   0.00000000 14.79719654 11.11388522
   2.11388522 12.68331132 11.11388522
   0.00000000 16.91108176  9.00000000
   2.11388522 19.02496698  9.00000000
   0.00000000 19.02496698 11.11388522
   2.11388522 16.91108176 11.11388522
   4.22777044  0.00000000  9.00000000
   6.34165566  2.11388522  9.00000000
   4.22777044  2.11388522 11.11388522
   6.34165566  0.00000000 11.11388522
   4.22777044  4.22777044  9.00000000
   6.34165566  6.34165566  9.00000000
   4.22777044  6.34165566 11.11388522
   6.34165566  4.22777044 11.11388522
   4.22777044  8.45554088  9.00000000
   6.34165566 10.56942610  9.00000000
   4.22777044 10.56942610 11.11388522
   6.34165566  8.45554088 11.11388522
   4.22777044 12.68331132  9.00000000
   6.34165566 14.79719654  9.00000000
   4.22777044 14.79719654 11.11388522
   6.34165566 12.68331132 11.11388522
   4.22777044 16.91108176  9.00000000
   6.34165566 19.02496698  9.00000000
   4.22777044 19.02496698 11.11388522
   6.34165566 16.91108176 11.11388522
   8.45554088  0.00000000  9.00000000
  10.56942610  2.11388522  9.00000000
   8.45554088  2.11388522 11.11388522
  10.56942610  0.00000000 11.11388522
   8.45554088  4.22777044  9.00000000
  10.56942610  6.34165566  9.00000000
   8.45554088  6.34165566 11.11388522
  10.56942610  4.22777044 11.11388522
   8.45554088  8.45554088  9.00000000
  10.56942610 10.56942610  9.00000000
   8.45554088 10.56942610 11.11388522
  10.56942610  8.45554088 11.11388522
   8.45554088 12.68331132  9.00000000
  10.56942610 14.79719654  9.00000000
   8.45554088 14.79719654 11.11388522
  10.56942610 12.68331132 11.11388522
   8.45554088 16.91108176  9.00000000
  10.56942610 19.02496698  9.00000000
   8.45554088 19.02496698 11.11388522
  10.56942610 16.91108176 11.11388522
  12.68331132  0.00000000  9.00000000
  14.79719654  2.11388522  9.00000000
  12.68331132  2.11388522 11.11388522
  14.79719654  0.00000000 11.11388522
  12.68331132  4.22777044  9.00000000
  14.79719654  6.34165566  9.00000000
  12.68331132  6.34165566 11.11388522
  14.79719654  4.22777044 11.11388522
  12.68331132  8.45554088  9.00000000
  14.79719654 10.56942610  9.00000000
  12.68331132 10.56942610 11.11388522
  14.79719654  8.45554088 11.11388522
  12.68331132 12.68331132  9.00000000
  14.79719654 14.79719654  9.00000000
  12.68331132 14.79719654 11.11388522
  14.79719654 12.68331132 11.11388522
  12.68331132 16.91108176  9.00000000
  14.79719654 19.02496698  9.00000000
  12.68331132 19.02496698 11.11388522
  14.79719654 16.91108176 11.11388522
  16.91108176  0.00000000  9.00000000
  19.02496698  2.11388522  9.00000000
  16.91108176  2.11388522 11.11388522
  19.02496698  0.00000000 11.11388522
  16.91108176  4.22777044  9.00000000
  19.02496698  6.34165566  9.00000000
  16.91108176  6.34165566 11.11388522
  19.02496698  4.22777044 11.11388522
  16.91108176  8.45554088  9.00000000
  19.02496698 10.56942610  9.00000000
  16.91108176 10.56942610 11.11388522
  19.02496698  8.45554088 11.11388522
  16.91108176 12.68331132  9.00000000
  19.02496698 14.79719654  9.00000000
  16.91108176 14.79719654 11.11388522
  19.02496698 12.68331132 11.11388522
  16.91108176 16.91108176  9.00000000
  19.02496698 19.02496698  9.00000000
  16.91108176 19.02496698 11.11388522
  19.02496698 16.91108176 11.11388522
   0.00000000  0.00000000 11.11388522
   2.11388522  2.11388522 11.11388522
   0.00000000  2.11388522  9.00000000
   2.11388522  0.00000000  9.00000000
   0.00000000  4.22777044 11.11388522
   2.11388522  6.34165566 11.11388522
   0.00000000  6.34165566  9.00000000
   2.11388522  4.22777044  9.00000000
   0.00000000  8.45554088 11.11388522
   2.11388522 10.56942610 11.11388522
   0.00000000 10.56942610  9.00000000
   2.11388522  8.45554088  9.00000000
   0.00000000 12.68331132 11.11388522
   2.11388522 14.79719654 11.11388522
   0.00000000 14.79719654  9.00000000
   2.11388522 12.68331132  9.00000000
   0.00000000 16.91108176 11.11388522
   2.11388522 19.02496698 11.11388522
   0.00000000 19.02496698  9.00000000
   2.11388522 16.91108176  9.00000000
   4.22777044  0.00000000 11.11388522
   6.34165566  2.11388522 11.11388522
   4.22777044  2.11388522  9.00000000
   6.34165566  0.00000000  9.00000000
   4.22777044  4.22777044 11.11388522
   6.34165566  6.34165566 11.11388522
   4.22777044  6.34165566  9.00000000
   6.34165566  4.22777044  9.00000000
   4.22777044  8.45554088 11.11388522
   6.34165566 10.56942610 11.11388522
   4.22777044 10.56942610  9.00000000
   6.34165566  8.45554088  9.00000000
   4.22777044 12.68331132 11.11388522
   6.34165566 14.79719654 11.11388522
   4.22777044 14.79719654  9.00000000
   6.34165566 12.68331132  9.00000000
   4.22777044 16.91108176 11.11388522
   6.34165566 19.02496698 11.11388522
   4.22777044 19.02496698  9.00000000
   6.34165566 16.91108176  9.00000000
   8.45554088  0.00000000 11.11388522
  10.56942610  2.11388522 11.11388522
   8.45554088  2.11388522  9.00000000
  10.56942610  0.00000000  9.00000000
   8.45554088  4.22777044 11.11388522
  10.56942610  6.34165566 11.11388522
   8.45554088  6.34165566  9.00000000
  10.56942610  4.22777044  9.00000000
   8.45554088  8.45554088 11.11388522
  10.56942610 10.56942610 11.11388522
   8.45554088 10.56942610  9.00000000
  10.56942610  8.45554088  9.00000000
   8.45554088 12.68331132 11.11388522
  10.56942610 14.79719654 11.11388522
   8.45554088 14.79719654  9.00000000
  10.56942610 12.68331132  9.00000000
   8.45554088 16.91108176 11.11388522
  10.56942610 19.02496698 11.11388522
   8.45554088 19.02496698  9.00000000
  10.56942610 16.91108176  9.00000000
  12.68331132  0.00000000 11.11388522
  14.79719654  2.11388522 11.11388522
  12.68331132  2.11388522  9.00000000
  14.79719654  0.00000000  9.00000000
  12.68331132  4.22777044 11.11388522
  14.79719654  6.34165566 11.11388522
  12.68331132  6.34165566  9.00000000
  14.79719654  4.22777044  9.00000000
  12.68331132  8.45554088 11.11388522
  14.79719654 10.56942610 11.11388522
  12.68331132 10.56942610  9.00000000
  14.79719654  8.45554088  9.00000000
  12.68331132 12.68331132 11.11388522
  14.79719654 14.79719654 11.11388522
  12.68331132 14.79719654  9.00000000
  14.79719654 12.68331132  9.00000000
  12.68331132 16.91108176 11.11388522
  14.79719654 19.02496698 11.11388522
  12.68331132 19.02496698  9.00000000
  14.79719654 16.91108176  9.00000000
  16.91108176  0.00000000 11.11388522
  19.02496698  2.11388522 11.11388522
  16.91108176  2.11388522  9.00000000
  19.02496698  0.00000000  9.00000000
  16.91108176  4.22777044 11.11388522
  19.02496698  6.34165566 11.11388522
  16.91108176  6.34165566  9.00000000
  19.02496698  4.22777044  9.00000000
  16.91108176  8.45554088 11.11388522
  19.02496698 10.56942610 11.11388522
  16.91108176 10.56942610  9.00000000
  19.02496698  8.45554088  9.00000000
  16.91108176 12.68331132 11.11388522
  19.02496698 14.79719654 11.11388522
  16.91108176 14.79719654  9.00000000
  19.02496698 12.68331132  9.00000000
  16.91108176 16.91108176 11.11388522
  19.02496698 19.02496698 11.11388522
  16.91108176 19.02496698  9.00000000
  19.02496698 16.91108176  9.00000000
 


--------------------------------------------------------------------------------------------------------


 k-point   1 :   0.0000 0.0000 0.0000  plane waves:  265979

 maximum and minimum number of plane-waves per node :     16635    16606

 maximum number of plane-waves:    265979
 maximum index in each direction: 
   IXMAX=   39   IYMAX=   39   IZMAX=   41
   IXMIN=  -39   IYMIN=  -39   IZMIN=  -41


 real space projection operators:
  total allocation   :      54593.75 KBytes
  max/ min on nodes  :       4406.25       2185.94


 parallel 3D FFT for wavefunctions:
    minimum data exchange during FFTs selected (reduces bandwidth)
 parallel 3D FFT for charge:
    minimum data exchange during FFTs selected (reduces bandwidth)


 total amount of memory used by VASP MPI-rank0   108297. kBytes
=======================================================================

   base      :      30000. kBytes
   nonlr-proj:      18649. kBytes
   fftplans  :      11482. kBytes
   grid      :      26290. kBytes
   one-center:        105. kBytes
   wavefun   :      21771. kBytes
 
     INWAV:  cpu time     30.9926: real time     31.0662
 Broyden mixing: mesh for mixing (old mesh)
   NGX = 79   NGY = 79   NGZ = 83
  (NGX  =320   NGY  =320   NGZ  =336)
  gives a total of 518003 points

 charge density for first step will be calculated from the start-wavefunctions


--------------------------------------------------------------------------------------------------------


 Maximum index for non-local projection operator          292
 Maximum index for augmentation-charges          495 (set IRDMAX)


--------------------------------------------------------------------------------------------------------


 initial charge from wavefunction
 First call to EWALD:  gamma=   0.083
 Maximum number of real-space cells 3x 3x 3
 Maximum number of reciprocal cells 3x 3x 3

    FEWALD:  cpu time      0.0196: real time      0.0196


--------------------------------------- Ionic step        1  -------------------------------------------




--------------------------------------- Iteration      1(   1)  ---------------------------------------


    POTLOK:  cpu time      1.2110: real time      1.2111
    SETDIJ:  cpu time      5.3853: real time      5.3889
    TRIAL :  cpu time      9.9538: real time      9.9576
    CORREC:  cpu time     10.9029: real time     10.9068
    CHARGE:  cpu time      1.1104: real time      1.1107
    --------------------------------------------
      LOOP:  cpu time     28.5750: real time     28.5875

 eigenvalue-minimisations  :     0
 total energy-change (2. order) :-0.1635320E+04  (-0.4710842E+00)
 number of electron    1399.9998135 magnetization 
 augmentation part      481.2564082 magnetization 

 DIPCOR: dipole corrections for dipol
 direction  3 min pos     1,
 dipolmoment           0.000000      0.000000    123.076944 electrons x Angstroem
 Tr[quadrupol]   -103979.283293

 energy correction for charged system         0.000000 eV
 dipol+quadrupol energy correction         -149.876048 eV
 added-field ion interaction       3409.721312 eV  (added to PSCEN)


 Free energy of the ion-electron system (eV)
  ---------------------------------------------------
  alpha Z        PSCENC =      1314.63347935
  Ewald energy   TEWEN  =    410582.50379712
  -Hartree energ DENC   =   -523042.26112726
  -exchange      EXHF   =         0.00000000
  -V(xc)+E(xc)   XCENC  =      7200.56980674
  PAW double counting   =    105645.57885232  -117970.62294992
  entropy T*S    EENTRO =        -0.00000000
  eigenvalues    EBANDS =    -34271.55802172
  atomic energy  EATOM  =    148905.83588662
  ---------------------------------------------------
  free energy    TOTEN  =     -1635.32027673 eV

  energy without entropy =    -1635.32027673  energy(sigma->0) =    -1635.32027673


--------------------------------------------------------------------------------------------------------




--------------------------------------- Iteration      1(   2)  ---------------------------------------


    POTLOK:  cpu time      1.5219: real time      1.5227
    SETDIJ:  cpu time      4.6062: real time      4.6084
    TRIAL :  cpu time      9.8592: real time      9.8659
    CORREC:  cpu time     10.7810: real time     10.7850
    CHARGE:  cpu time      1.1033: real time      1.1038
    --------------------------------------------
      LOOP:  cpu time     27.8754: real time     27.8975

 eigenvalue-minimisations  :     0
 total energy-change (2. order) : 0.1345580E+03  (-0.3638479E+01)
 number of electron    1399.9998128 magnetization 
 augmentation part      482.4991194 magnetization 

 DIPCOR: dipole corrections for dipol
 direction  3 min pos     1,
 dipolmoment           0.000000      0.000000     65.289570 electrons x Angstroem
 Tr[quadrupol]   -103345.616576

 energy correction for charged system         0.000000 eV
 dipol+quadrupol energy correction          -42.176102 eV
 added-field ion interaction       1808.781003 eV  (added to PSCEN)


 Free energy of the ion-electron system (eV)
  ---------------------------------------------------
  alpha Z        PSCENC =      1839.80906855
  Ewald energy   TEWEN  =    410582.50379712
  -Hartree energ DENC   =   -517979.19111283
  -exchange      EXHF   =         0.00000000
  -V(xc)+E(xc)   XCENC  =      7171.10773973
  PAW double counting   =    105009.98931824  -117332.66284561
  entropy T*S    EENTRO =        -0.00000000
  eigenvalues    EBANDS =    -39698.15412756
  atomic energy  EATOM  =    148905.83588662
  ---------------------------------------------------
  free energy    TOTEN  =     -1500.76227573 eV

  energy without entropy =    -1500.76227573  energy(sigma->0) =    -1500.76227573


--------------------------------------------------------------------------------------------------------




--------------------------------------- Iteration      1(   3)  ---------------------------------------


    POTLOK:  cpu time      1.5248: real time      1.5260
    SETDIJ:  cpu time      4.5683: real time      4.5713
    TRIAL :  cpu time      9.8127: real time      9.8243
    CORREC:  cpu time     10.7644: real time     10.7694
    CHARGE:  cpu time      1.1066: real time      1.1071
    --------------------------------------------
      LOOP:  cpu time     27.7818: real time     27.8099

 eigenvalue-minimisations  :     0
 total energy-change (2. order) : 0.7997648E+03  (-0.5709233E+03)
 number of electron    1399.9998110 magnetization 
 augmentation part      487.6844339 magnetization 

 DIPCOR: dipole corrections for dipol
 direction  3 min pos     1,
 dipolmoment           0.000000      0.000000      0.211217 electrons x Angstroem
 Tr[quadrupol]   -105946.475834

 energy correction for charged system         0.000000 eV
 dipol+quadrupol energy correction           -0.000441 eV
 added-field ion interaction          5.851549 eV  (added to PSCEN)


 Free energy of the ion-electron system (eV)
  ---------------------------------------------------
  alpha Z        PSCENC =      1200.24143230
  Ewald energy   TEWEN  =    410582.50379712
  -Hartree energ DENC   =   -502290.07126272
  -exchange      EXHF   =         0.00000000
  -V(xc)+E(xc)   XCENC  =      7071.34048058
  PAW double counting   =    102837.00829410  -115162.20772046
  entropy T*S    EENTRO =        -0.00000009
  eigenvalues    EBANDS =    -53845.64837625
  atomic energy  EATOM  =    148905.83588662
  ---------------------------------------------------
  free energy    TOTEN  =      -700.99746870 eV

  energy without entropy =     -700.99746862  energy(sigma->0) =     -700.99746866


--------------------------------------------------------------------------------------------------------




--------------------------------------- Iteration      1(   4)  ---------------------------------------


    POTLOK:  cpu time      1.5065: real time      1.5074
    SETDIJ:  cpu time      4.5997: real time      4.6021
    TRIAL :  cpu time      9.7729: real time      9.7821
    CORREC:  cpu time     10.6877: real time     10.6911
    CHARGE:  cpu time      1.0999: real time      1.1005
    --------------------------------------------
      LOOP:  cpu time     27.6715: real time     27.6957

 eigenvalue-minimisations  :     0
 total energy-change (2. order) :-0.5990759E+03  (-0.2326099E+03)
 number of electron    1399.9998132 magnetization 
 augmentation part      482.5871569 magnetization 

 DIPCOR: dipole corrections for dipol
 direction  3 min pos     1,
 dipolmoment           0.000000      0.000000      3.158518 electrons x Angstroem
 Tr[quadrupol]   -106227.190236

 energy correction for charged system         0.000000 eV
 dipol+quadrupol energy correction           -0.098706 eV
 added-field ion interaction         87.503515 eV  (added to PSCEN)


 Free energy of the ion-electron system (eV)
  ---------------------------------------------------
  alpha Z        PSCENC =      1352.78254801
  Ewald energy   TEWEN  =    410582.50379712
  -Hartree energ DENC   =   -518158.42753629
  -exchange      EXHF   =         0.00000000
  -V(xc)+E(xc)   XCENC  =      7222.84448205
  PAW double counting   =    107264.08600590  -119604.15354606
  entropy T*S    EENTRO =        -0.00000000
  eigenvalues    EBANDS =    -38865.54497246
  atomic energy  EATOM  =    148905.83588662
  ---------------------------------------------------
  free energy    TOTEN  =     -1300.07333521 eV

  energy without entropy =    -1300.07333521  energy(sigma->0) =    -1300.07333521


--------------------------------------------------------------------------------------------------------




--------------------------------------- Iteration      1(   5)  ---------------------------------------


    POTLOK:  cpu time      1.5684: real time      1.5692
    SETDIJ:  cpu time      4.5621: real time      4.5654
    TRIAL :  cpu time      9.7980: real time      9.8106
    CORREC:  cpu time     10.6863: real time     10.6933
    CHARGE:  cpu time      1.1035: real time      1.1042
    --------------------------------------------
      LOOP:  cpu time     27.7235: real time     27.7547

 eigenvalue-minimisations  :     0
 total energy-change (2. order) :-0.2544795E+03  (-0.4987436E+02)
 number of electron    1399.9998130 magnetization 
 augmentation part      482.5625001 magnetization 

 DIPCOR: dipole corrections for dipol
 direction  3 min pos     1,
 dipolmoment           0.000000      0.000000      2.110651 electrons x Angstroem
 Tr[quadrupol]   -106348.446442

 energy correction for charged system         0.000000 eV
 dipol+quadrupol energy correction           -0.044077 eV
 added-field ion interaction         58.473448 eV  (added to PSCEN)


 Free energy of the ion-electron system (eV)
  ---------------------------------------------------
  alpha Z        PSCENC =      1412.60775243
  Ewald energy   TEWEN  =    410582.50379712
  -Hartree energ DENC   =   -522177.82115427
  -exchange      EXHF   =         0.00000000
  -V(xc)+E(xc)   XCENC  =      7195.13047309
  PAW double counting   =    107207.89491991  -119486.25659268
  entropy T*S    EENTRO =        -0.00000000
  eigenvalues    EBANDS =    -35194.44794728
  atomic energy  EATOM  =    148905.83588662
  ---------------------------------------------------
  free energy    TOTEN  =     -1554.55286507 eV

[...]
   0.170E+00 -.480E-01 -.697E+03   -.419E-11 -.488E-10 0.700E+03   -.464E-01 0.400E-02 -.299E+01
   -.144E-01 -.868E-02 0.697E+03   0.409E-10 -.598E-10 -.700E+03   0.125E-01 -.457E-02 0.361E+01
   0.125E-01 -.315E-01 0.697E+03   -.267E-12 0.700E-11 -.700E+03   0.130E-01 -.144E-01 0.346E+01
   -.689E-01 0.754E-02 -.697E+03   0.415E-10 0.415E-10 0.700E+03   0.118E-03 0.654E-02 -.298E+01
   0.342E-01 0.128E-01 -.697E+03   -.306E-11 -.298E-11 0.700E+03   0.126E-01 -.247E-01 -.299E+01
   -.482E-01 -.257E-01 0.697E+03   0.621E-10 0.568E-11 -.700E+03   0.705E-02 0.449E-02 0.354E+01
   0.445E-01 -.415E-01 0.697E+03   0.277E-12 0.562E-10 -.700E+03   0.133E-01 -.581E-02 0.350E+01
 -----------------------------------------------------------------------------------------------
   0.402E+00 -.303E-01 -.105E+03   0.439E-11 -.322E-12 0.239E-11   -.359E+00 -.762E-02 0.169E+03
 
 
 POSITION                                       TOTAL-FORCE (eV/Angst)
 -----------------------------------------------------------------------------------
      0.00000      0.00000      9.00000         0.101168     -0.029044      1.189122
      2.11389      2.11389      9.00000         0.063976      0.011055      1.073316
      0.00000      2.11389     11.11389         0.053656      0.054570     -1.966975
      2.11389      0.00000     11.11389        -0.003777     -0.028836     -1.519326
      0.00000      4.22777      9.00000         0.006025      0.067406      0.700554
      2.11389      6.34166      9.00000        -0.054634      0.024602      1.164710
      0.00000      6.34166     11.11389         0.023590      0.008422     -1.000545
      2.11389      4.22777     11.11389         0.002844     -0.008060     -1.037607
      0.00000      8.45554      9.00000         0.011695      0.001519      0.990590
      2.11389     10.56943      9.00000        -0.034957      0.011387      0.670180
      0.00000     10.56943     11.11389         0.008689     -0.043077     -2.588149
      2.11389      8.45554     11.11389        -0.035167     -0.000620     -0.827875
      0.00000     12.68331      9.00000        -0.008434     -0.010253      0.869258
      2.11389     14.79720      9.00000        -0.005010     -0.021611      1.729188
      0.00000     14.79720     11.11389         0.193132     -0.033186     -0.443873
      2.11389     12.68331     11.11389         0.005074     -0.005855     -0.355285
      0.00000     16.91108      9.00000         0.032228     -0.038388      1.925239
      2.11389     19.02497      9.00000         0.044234     -0.024396      1.304205
      0.00000     19.02497     11.11389        -0.012738     -0.031765     -1.576078
      2.11389     16.91108     11.11389         0.048417     -0.005670     -1.065772
      4.22777      0.00000      9.00000         0.062028     -0.005692      1.371536
      6.34166      2.11389      9.00000        -0.006748     -0.089043      1.514614
      4.22777      2.11389     11.11389         0.013036     -0.052407     -0.598915
      6.34166      0.00000     11.11389         0.027050     -0.019366     -2.183908
      4.22777      4.22777      9.00000        -0.055883     -0.045269      1.001804
      6.34166      6.34166      9.00000        -0.015699     -0.054467      1.279718
      4.22777      6.34166     11.11389        -0.056518     -0.029489     -1.286696
      6.34166      4.22777     11.11389        -0.024766     -0.111042     -1.160746
      4.22777      8.45554      9.00000        -0.129305      0.016965      1.473025
      6.34166     10.56943      9.00000        -0.080380      0.012342      1.200906
      4.22777     10.56943     11.11389        -0.085275      0.001550     -2.890663
      6.34166      8.45554     11.11389        -0.060213      0.007479     -0.556194
      4.22777     12.68331      9.00000        -0.086432      0.022346      1.336506
      6.34166     14.79720      9.00000        -0.029551      0.096888      1.677934
      4.22777     14.79720     11.11389        -0.035046      0.045057     -0.577920
      6.34166     12.68331     11.11389        -0.045295      0.083615     -0.737595
      4.22777     16.91108      9.00000         0.005089      0.015415      1.181225
      6.34166     19.02497      9.00000         0.033879      0.015510      1.492955
      4.22777     19.02497     11.11389         0.034067     -0.013546     -2.303373
      6.34166     16.91108     11.11389        -0.009577      0.068890     -0.382620
      8.45554      0.00000      9.00000        -0.008037     -0.007249      1.492925
     10.56943      2.11389      9.00000        -0.007633     -0.036848      1.420923
      8.45554      2.11389     11.11389        -0.011459     -0.062243     -0.754895
     10.56943      0.00000     11.11389        -0.096385      0.008698     -0.711264
      8.45554      4.22777      9.00000         0.022253     -0.095454      1.604894
     10.56943      6.34166      9.00000         0.016349     -0.040208      2.005892
      8.45554      6.34166     11.11389         0.035569     -0.019242     -1.722971
     10.56943      4.22777     11.11389         0.034043     -0.073678     -1.118992
      8.45554      8.45554      9.00000         0.049867     -0.039971      0.900007
     10.56943     10.56943      9.00000         0.032408     -0.072211      1.010290
      8.45554     10.56943     11.11389        -0.029235      0.018618     -0.504295
     10.56943      8.45554     11.11389         0.031585     -0.032267     -1.054339
      8.45554     12.68331      9.00000        -0.025863      0.075116      1.837261
     10.56943     14.79720      9.00000        -0.004239      0.132779      1.192184
      8.45554     14.79720     11.11389        -0.036935      0.115767     -0.634846
     10.56943     12.68331     11.11389         0.001010      0.072931     -2.556030
      8.45554     16.91108      9.00000        -0.012187      0.052445      1.815571
     10.56943     19.02497      9.00000        -0.027332      0.019777      1.532696
      8.45554     19.02497     11.11389        -0.006238      0.020041     -0.705942
     10.56943     16.91108     11.11389         0.016831      0.001109     -0.526847
     12.68331      0.00000      9.00000        -0.036057     -0.017611      1.693513
     14.79720      2.11389      9.00000        -0.041159      0.013711      1.836354
     12.68331      2.11389     11.11389         0.016089      0.053798     -0.726509
     14.79720      0.00000     11.11389         0.065692      0.053467     -0.036308
     12.68331      4.22777      9.00000         0.011627     -0.046665      0.573375
     14.79720      6.34166      9.00000         0.037990     -0.011243      1.297507
     12.68331      6.34166     11.11389         0.040998     -0.049807     -2.922887
     14.79720      4.22777     11.11389         0.022373     -0.012382     -0.891513
     12.68331      8.45554      9.00000         0.041537     -0.015547      1.284268
     14.79720     10.56943      9.00000         0.069928      0.013450      1.483702
     12.68331     10.56943     11.11389         0.029901      0.022234     -2.705833
     14.79720      8.45554     11.11389         0.064870     -0.083314      0.301623
     12.68331     12.68331      9.00000         0.075405      0.052710      1.669774
     14.79720     14.79720      9.00000         0.009607      0.017372      1.584179
     12.68331     14.79720     11.11389         0.041547      0.053468     -1.541620
     14.79720     12.68331     11.11389         0.027825      0.049688     -0.676752
     12.68331     16.91108      9.00000        -0.034640      0.019639      1.156264
     14.79720     19.02497      9.00000        -0.172591     -0.000351      1.622139
     12.68331     19.02497     11.11389        -0.033956     -0.069396     -2.148819
     14.79720     16.91108     11.11389        -0.083014     -0.037365     -0.742828
     16.91108      0.00000      9.00000        -0.093642      0.131127      0.732223
     19.02497      2.11389      9.00000        -0.020086      0.101078      1.401321
     16.91108      2.11389     11.11389        -0.022407      0.032375     -2.953891
     19.02497      0.00000     11.11389         0.009210      0.024674     -0.612550
     16.91108      4.22777      9.00000         0.006008      0.040216      1.410953
     19.02497      6.34166      9.00000         0.006794      0.033313      0.622878
     16.91108      6.34166     11.11389         0.061540      0.002119     -2.251568
     19.02497      4.22777     11.11389        -0.026286      0.061951     -1.685053
     16.91108      8.45554      9.00000         0.029552     -0.010375      1.459756
     19.02497     10.56943      9.00000         0.026066     -0.002577      1.070912
     16.91108     10.56943     11.11389         0.156238      0.050837     -1.559881
     19.02497      8.45554     11.11389         0.022007     -0.020667     -3.163800
     16.91108     12.68331      9.00000         0.026896     -0.022482      1.627857
     19.02497     14.79720      9.00000         0.004036     -0.057021      0.966803
     16.91108     14.79720     11.11389        -0.225607     -0.010951     -3.081652
     19.02497     12.68331     11.11389        -0.012383     -0.269278     -2.477311
     16.91108     16.91108      9.00000        -0.037310     -0.155119      1.314163
     19.02497     19.02497      9.00000         0.142597     -0.061467      1.344387
     16.91108     19.02497     11.11389        -0.048007      0.039815     -2.165426
     19.02497     16.91108     11.11389         0.007507      0.149908     -2.623379
      0.00000      0.00000     11.11389         0.070206      0.005770      0.188178
      2.11389      2.11389     11.11389         0.041118      0.011689      0.188951
      0.00000      2.11389      9.00000         0.046248      0.044484      0.007374
      2.11389      0.00000      9.00000         0.067164     -0.001125     -0.044518
      0.00000      4.22777     11.11389         0.025602      0.039892      0.191323
      2.11389      6.34166     11.11389        -0.037190     -0.004796      0.168411
      0.00000      6.34166      9.00000        -0.007287      0.019938     -0.243450
      2.11389      4.22777      9.00000         0.008569      0.010887     -0.142506
      0.00000      8.45554     11.11389         0.003536     -0.012514      0.207739
      2.11389     10.56943     11.11389        -0.036684      0.000455      0.179615
      0.00000     10.56943      9.00000        -0.006692     -0.027674     -0.188979
      2.11389      8.45554      9.00000        -0.057994     -0.005381     -0.089636
      0.00000     12.68331     11.11389         0.058056     -0.065547      0.163154
      2.11389     14.79720     11.11389         0.036735     -0.000717      0.294357
      0.00000     14.79720      9.00000         0.055788     -0.038004     -0.238071
      2.11389     12.68331      9.00000        -0.005929     -0.000869     -0.171671
      0.00000     16.91108     11.11389         0.114830      0.030150      0.234552
      2.11389     19.02497     11.11389         0.063463      0.002408      0.220507
      0.00000     19.02497      9.00000         0.103519     -0.004388      0.049083
      2.11389     16.91108      9.00000         0.042393      0.007980     -0.339958
      4.22777      0.00000     11.11389         0.034444      0.004692      0.216351
      6.34166      2.11389     11.11389        -0.008814     -0.070085      0.231831
      4.22777      2.11389      9.00000        -0.001056     -0.030938     -0.080903
      6.34166      0.00000      9.00000        -0.001245     -0.013561      0.121786
      4.22777      4.22777     11.11389        -0.038575     -0.045200      0.174342
      6.34166      6.34166     11.11389        -0.049069     -0.037597      0.105316
      4.22777      6.34166      9.00000        -0.054982     -0.017367      0.028249
      6.34166      4.22777      9.00000        -0.029680     -0.042920     -0.020861
      4.22777      8.45554     11.11389        -0.101369     -0.025815      0.155701
      6.34166     10.56943     11.11389        -0.047172      0.019373      0.094197
      4.22777     10.56943      9.00000        -0.079776      0.016008      0.040012
      6.34166      8.45554      9.00000        -0.073341     -0.037140     -0.241495
      4.22777     12.68331     11.11389        -0.053519      0.044348      0.269015
      6.34166     14.79720     11.11389        -0.039635      0.077761      0.311298
      4.22777     14.79720      9.00000        -0.034101      0.045701     -0.121192
      6.34166     12.68331      9.00000        -0.058791      0.035295     -0.052195
      4.22777     16.91108     11.11389         0.000212      0.017781      0.243514
      6.34166     19.02497     11.11389         0.013999      0.008718      0.231808
      4.22777     19.02497      9.00000         0.025511      0.001257     -0.119239
      6.34166     16.91108      9.00000        -0.027391      0.055112     -0.218355
      8.45554      0.00000     11.11389        -0.010563     -0.028917      0.287365
     10.56943      2.11389     11.11389        -0.045752     -0.031895      0.238629
      8.45554      2.11389      9.00000         0.005901     -0.052083     -0.363993
     10.56943      0.00000      9.00000        -0.037324     -0.012142     -0.196395
      8.45554      4.22777     11.11389         0.008789     -0.073444      0.226778
     10.56943      6.34166     11.11389         0.010896     -0.055176      0.189546
      8.45554      6.34166      9.00000        -0.042853     -0.073429     -0.036630
     10.56943      4.22777      9.00000        -0.005573     -0.072196     -0.060352
      8.45554      8.45554     11.11389        -0.005775     -0.004787      0.089091
     10.56943     10.56943     11.11389        -0.001314     -0.010512      0.131165
      8.45554     10.56943      9.00000        -0.018417      0.021928     -0.142355
     10.56943      8.45554      9.00000         0.001672      0.015177     -0.105031
      8.45554     12.68331     11.11389        -0.031442      0.062863      0.210440
     10.56943     14.79720     11.11389        -0.014063      0.094346      0.212162
      8.45554     14.79720      9.00000        -0.014347      0.075402      0.114901
     10.56943     12.68331      9.00000         0.025506      0.069464      0.029163
      8.45554     16.91108     11.11389        -0.035694      0.058193      0.260455
     10.56943     19.02497     11.11389        -0.078407      0.002394      0.278144
      8.45554     19.02497      9.00000        -0.026622      0.012071     -0.124611
     10.56943     16.91108      9.00000        -0.031996      0.039262     -0.121455
     12.68331      0.00000     11.11389        -0.050855      0.016809      0.189977
     14.79720      2.11389     11.11389         0.002867      0.029254      0.282546
     12.68331      2.11389      9.00000        -0.039472      0.001439     -0.328839
     14.79720      0.00000      9.00000        -0.056911      0.044320     -0.154462
     12.68331      4.22777     11.11389         0.002420     -0.043618      0.163904
     14.79720      6.34166     11.11389         0.026771     -0.020720      0.185095
     12.68331      6.34166      9.00000         0.047550     -0.034596     -0.033424
     14.79720      4.22777      9.00000         0.010341      0.012982     -0.284611
     12.68331      8.45554     11.11389         0.037761     -0.035374      0.146435
     14.79720     10.56943     11.11389         0.042360     -0.018395      0.126398
     12.68331     10.56943      9.00000         0.034019     -0.002863     -0.137172
     14.79720      8.45554      9.00000         0.064374     -0.018181     -0.232760
     12.68331     12.68331     11.11389         0.051286      0.029862      0.136849
     14.79720     14.79720     11.11389        -0.021064      0.010672      0.218625
     12.68331     14.79720      9.00000         0.002305      0.058022     -0.119045
     14.79720     12.68331      9.00000         0.016519     -0.002273     -0.110198
     12.68331     16.91108     11.11389        -0.026295      0.019655      0.239117
     14.79720     19.02497     11.11389        -0.058591     -0.012015      0.270198
     12.68331     19.02497      9.00000        -0.041283     -0.009793     -0.049789
     14.79720     16.91108      9.00000        -0.060962     -0.020752     -0.087211
     16.91108      0.00000     11.11389        -0.047228      0.044621      0.225131
     19.02497      2.11389     11.11389         0.016723      0.055996      0.192234
     16.91108      2.11389      9.00000        -0.007853      0.041801     -0.141539
     19.02497      0.00000      9.00000         0.036624      0.054136     -0.140696
     16.91108      4.22777     11.11389         0.008425      0.013997      0.215104
     19.02497      6.34166     11.11389         0.034904      0.009721      0.149102
     16.91108      6.34166      9.00000         0.035416     -0.001234     -0.232211
     19.02497      4.22777      9.00000         0.015358      0.053350      0.009002
     16.91108      8.45554     11.11389         0.048264     -0.021751      0.235590
     19.02497     10.56943     11.11389         0.031623     -0.014144      0.230499
     16.91108     10.56943      9.00000         0.025674     -0.034987     -0.162847
     19.02497      8.45554      9.00000         0.032711     -0.020445     -0.208744
     16.91108     12.68331     11.11389        -0.009716     -0.041642      0.169278
     19.02497     14.79720     11.11389         0.124328     -0.043098     -0.003179
     16.91108     14.79720      9.00000        -0.005926     -0.013908     -0.039206
     19.02497     12.68331      9.00000         0.029059     -0.035736     -0.390987
     16.91108     16.91108     11.11389        -0.064933      0.016535      0.134643
     19.02497     19.02497     11.11389         0.045775     -0.015212      0.241521
     16.91108     19.02497      9.00000        -0.037521     -0.030820      0.017080
     19.02497     16.91108      9.00000         0.055889     -0.041373     -0.137126
 -----------------------------------------------------------------------------------
    total drift:                                0.043170     -0.037921     63.482183


--------------------------------------------------------------------------------------------------------



  FREE ENERGIE OF THE ION-ELECTRON SYSTEM (eV)
  ---------------------------------------------------
  free  energy   TOTEN  =     -1656.81153522 eV

  energy  without entropy=    -1656.80204567  energy(sigma->0) =    -1656.80679045
 


--------------------------------------------------------------------------------------------------------


    POTLOK:  cpu time      6.0736: real time      6.0783


--------------------------------------------------------------------------------------------------------


     LOOP+:  cpu time  30365.2253: real time  30381.8349
    4ORBIT:  cpu time      0.0000: real time      0.0000

 total amount of memory used by VASP MPI-rank0   108297. kBytes
=======================================================================

   base      :      30000. kBytes
   nonlr-proj:      18649. kBytes
   fftplans  :      11482. kBytes
   grid      :      26290. kBytes
   one-center:        105. kBytes
   wavefun   :      21771. kBytes
 
  
  
 General timing and accounting informations for this job:
 ========================================================
  
                  Total CPU time used (sec):    30411.865
                            User time (sec):    30364.991
                          System time (sec):       46.873
                         Elapsed time (sec):    30428.941
  
                   Maximum memory used (kb):      855868.
                   Average memory used (kb):          N/A
  
                          Minor page faults:       128395
                          Major page faults:            0
                 Voluntary context switches:       552764
