 **********************************************************************
                          MRCC program system
 **********************************************************************
 
                              Written by
     Mihaly Kallay, Peter R. Nagy, David Mester, Laszlo Gyevi-Nagy,
        Jozsef Csoka, P. Bernat Szabo, Zoltan Rolik, Gyula Samu,
     Jozsef Csontos, Bence Hegely, Adam Ganyecz, Istvan Ladjanszki,
       Lorant Szegedy, Bence Ladoczki, Klara Petrov, Mate Farkas,
                    Pal D. Mezei, and Reka A. Horvath
 
        Department of Physical Chemistry and Materials Science
            Budapest University of Technology and Economics
                  Budapest P.O.Box 91, H-1521 Hungary
 
                              www.mrcc.hu
 
                      Release date: March 18, 2022

 ************************ 2023-02-18 18:07:17 *************************
 Executing minp...

 Reading input from MINP...
 
 Input file:
 
calc=LNO-CCSD(T)
verbosity=3
mem=220GB
symm=off
unit=angs
scfiguess=small
scfalg=locfit1
lcorthr=tight
bpedo=0.99999
ccmaxit=400
usedisk=0
ccsdalg=dfdirect
ccsdthreads=4
ccsdmkl=thr
ptthreads=4
ECP=MCDHF-ECP-28
basis=bse_ACVTZ
basis_sm=def2-SVP
dfbasis_scf=def2-QZVPP-RI-JK
dfbasis_cor=bse_ACVTZ_mp2fit
core=0
unit=angs
geom=xyz
4
Ag4_2
Ag    -2.36946897     0.00494278     0.12908496
Ag    -0.00284843    -1.33761141    -0.04830773
Ag     0.00145959     1.33621566    -0.18478486
Ag     2.37085781    -0.00354703     0.10400762

ghost=serialno


 
 
 Checking keyword combinations...
 
 Keywords:
 
 active=none
 agrid=ld0006-ld0590
 agrid_pssp=ld0006-ld0194
 agrid_pssp_sm=ld0006-ld0074
 basis=bse_acvtz
 basis_sm=def2-svp
 basopt=off
 bfbasis=none
 bfgsmem=10
 bfgstol=1.0d-3
 bpcompo=0.985
 bpcompv=0.98
 bpdfo=0.985
 bpocc=0.99999
 bppdo=0.999d0
 bppdv=0.98
 bpedo=0.99999
 bpedv=0.995d0
 calc=ccsd(t)
 ccmaxit=400
 ccprog=ccsd
 ccsdalg=dfdirect
 ccsdmkl=thr
 ccsdrest=off
 ccsdthreads=4
 cctol=5
 charge=0
 cialg=direct
 ciguess=off
 cmpgrp=auto
 comprest=off
 core=corr
 corembed=off
 csapprox=off
 cvs=off
 dboc=off
 delocsomofact=
 dendec=cholesky
 dens=0
 dfalg=lineq
 dfbasis_cab=none
 dfbasis_cor=bse_acvtz_mp2fit
 dfbasis_scf=def2-qzvpp-ri-jk
 dfbasis_scf_sm=def2-qzvpp-ri-jk
 dfintran=drpa
 dft=off
 dhexc=adc(2)
 diag=david
 docc=
 domrad=10.d0
 drpaalg=auto
 dual=off
 dual_df=off
 ecp=mcdhf-ecp-28
 edisp=off
 edisp_embed=off
 embed=off
 etemp=300
 epert=none
 eps=
 espcharge=off
 excrad=1.0
 excrad_fin=0.100000000D-02
 fitting=coulomb
 fmm=off
 fmmord=8
 freq=off
 gamma=1.d0
 gauss=spher
 geom=xyz
 gopt=off
 ghost=serialno
 gtol=7
 grdens=off
 gridbatch_cos=2000
 grtol=10
 guido_ct=off
 hamilton=dc
 iface=none
 intalg=auto
 itol=10
 laptol=1.d-3
 lccoporder=lccfirst
 lcorthr=tight
 lccrest=off
 lmp2dens=on
 lnoepso=3e-6
 lnoepsv=3e-7
 boysalg=jacobi
 localcc=2021
 localcorrsymm=off
 locintrf=direct
 mact=
 maxact=off
 maxdim=100
 maxex=0
 maxmicroit=100
 mcscfiguess=hf
 mem=220gb
 mmprog=
 molden=on
 mpitasks=1
 mulmet=3
 mult=
 nacto=0
 nactv=0
 naf_amp=1.d-2
 naf_cor=1e-2
 naf_scf=off
 nafalg=albe
 naftyp=jpq
 nchol=auto
 ndeps=1e-3
 nstate=1
 nsing=0
 nto=off
 ntrip=0
 occ=
 occri=off
 oniom=off
 oniom_eechg=off
 oniom_pcm=off
 oniom_qcorr=off
 optalg=
 optmaxit=50
 optetol=1e-6
 optex=0
 optgtol=1e-4
 optstol=1e-3
 orblocc=boys
 orbloce=off
 orbloco=boys
 orblocv=pao
 orblocguess=cholesky
 osveps=-1.d0
 ovirt=off
 ovltol=1e-7
 ovosnorb=80.0
 pcm=off
 popul=off
 pressure=100000
 pssp=off
 ptfreq=0.0
 ptthreads=4
 qro=off
 qscf=off
 qmmm=off
 redcost_exc=off
 redcost_tddft=0.985d0
 refdet=none
 rest=0
 rgrid=log3
 rism=off
 rohfcore=standard
 rohftype=semicanonical
 scfalg=locfit1
 scf_conv=difficult
 scfdamp=0.0d0
 scfdamp_mode=off
 scfdamp_end=50
 scfdamp_dampstep=0.d0
 scfdamp_dtol=0.0d0
 scfdamp_maxfact=0.0d0
 scfdamp_minfact=0.0d0
 scfdiis=on
 scfdiis_dtol=0.0d0
 scfdiis_end=50
 scfdiis_start=2
 scfdiis_step=1
 scfdiis_watch=off
 scfdiis_wrange=10
 scfdiis_wlimit=5
 scfdiis_delmax=2
 scfdtol=7
 scfext=10
 scfguessdens=
 scfiguess=small
 scfloc=pm
 scflshift=0.20
 scflshift_end=8
 scflshift_dtol=0.0
 scflshift_gaptol=0.20
 scfmaxit=50
 scftype=
 scftol=6
 scspe=1.d0
 scsph=1.d0
 scsps=1.2d0
 scsps_t=1.2d0
 scspt=0.33333333333333
 scspt_t=0.33333333333333
 scspv=1.d0
 spairtol=-1.d0
 sqmprog=
 subminp=top
 symm=0
 talg=lapl
 temp=298.15
 test=off
 theodore=off
 tlmo=0.999
 tpao=0.94
 tprint=off
 uncontract=off
 unit=angs
 usedisk=0
 verbosity=3
 wpairtol=3.d-6
 
 Calculating integrals for small-basis SCF...

 ************************ 2023-02-18 18:07:18 *************************
 Executing integ...

 Allocation of 220.0 Gbytes of memory...
 
 
 Number of atoms:                  4
 Charge:                           0
 Number of electrons:             76
 Number of core electrons:        32
 Spin multiplicity:                1
 
                 Cartesian coordinates [bohr]      Atomic mass [AMU]  Z
   1  Ag   -4.47764742    0.00934050    0.24393522   106.905092      47
   2  Ag   -0.00538275   -2.52771923   -0.09128838   106.905092      47
   3  Ag    0.00275823    2.52508164   -0.34919278   106.905092      47
   4  Ag    4.48027194   -0.00670292    0.19654592   106.905092      47
 
 This molecule is an asymmetric top.
 
 Point group: C1  
 Computational point group: C1  
 
 Cartesian coordinates in standard orientation [bohr]
   1  Ag   -4.47888447   -0.00987180    0.22003290
   2  Ag   -0.00047925   -2.51963203   -0.22176843
   3  Ag    0.00018912    2.53975181   -0.21826861
   4  Ag    4.47917460   -0.01024798    0.22000414
 
 Nuclear repulsion energy [au]:        391.343065586760
 
 
 Basis set information:
 
 Maximum angular momentum: i
 Maximum number of contracted Gaussians:   11
 Maximum number of primitive Gaussians:    13
 Spherical harmonic GTOs are used.
 
 
 Conventional basis set:
 
   1  Ag def2-svp [ 7s 6p 5d 1f | 5s 3p 2d 1f ]
   2  Ag def2-svp [ 7s 6p 5d 1f | 5s 3p 2d 1f ]
   3  Ag def2-svp [ 7s 6p 5d 1f | 5s 3p 2d 1f ]
   4  Ag def2-svp [ 7s 6p 5d 1f | 5s 3p 2d 1f ]
 
 Basis functions:
            1             2             3             4             5             6             7             8             9            10
    0    1Ag1s         1Ag2s         1Ag3s         1Ag4s         1Ag5s         1Ag1pz        1Ag1py        1Ag1px        1Ag2pz        1Ag2py    
    1    1Ag2px        1Ag3pz        1Ag3py        1Ag3px        1Ag1d-2       1Ag1d-1       1Ag1d0        1Ag1d+1       1Ag1d+2       1Ag2d-2   
    2    1Ag2d-1       1Ag2d0        1Ag2d+1       1Ag2d+2       1Ag1f-3       1Ag1f-2       1Ag1f-1       1Ag1f0        1Ag1f+1       1Ag1f+2   
    3    1Ag1f+3       2Ag1s         2Ag2s         2Ag3s         2Ag4s         2Ag5s         2Ag1pz        2Ag1py        2Ag1px        2Ag2pz    
    4    2Ag2py        2Ag2px        2Ag3pz        2Ag3py        2Ag3px        2Ag1d-2       2Ag1d-1       2Ag1d0        2Ag1d+1       2Ag1d+2   
    5    2Ag2d-2       2Ag2d-1       2Ag2d0        2Ag2d+1       2Ag2d+2       2Ag1f-3       2Ag1f-2       2Ag1f-1       2Ag1f0        2Ag1f+1   
    6    2Ag1f+2       2Ag1f+3       3Ag1s         3Ag2s         3Ag3s         3Ag4s         3Ag5s         3Ag1pz        3Ag1py        3Ag1px    
    7    3Ag2pz        3Ag2py        3Ag2px        3Ag3pz        3Ag3py        3Ag3px        3Ag1d-2       3Ag1d-1       3Ag1d0        3Ag1d+1   
    8    3Ag1d+2       3Ag2d-2       3Ag2d-1       3Ag2d0        3Ag2d+1       3Ag2d+2       3Ag1f-3       3Ag1f-2       3Ag1f-1       3Ag1f0    
    9    3Ag1f+1       3Ag1f+2       3Ag1f+3       4Ag1s         4Ag2s         4Ag3s         4Ag4s         4Ag5s         4Ag1pz        4Ag1py    
   10    4Ag1px        4Ag2pz        4Ag2py        4Ag2px        4Ag3pz        4Ag3py        4Ag3px        4Ag1d-2       4Ag1d-1       4Ag1d0    
   11    4Ag1d+1       4Ag1d+2       4Ag2d-2       4Ag2d-1       4Ag2d0        4Ag2d+1       4Ag2d+2       4Ag1f-3       4Ag1f-2       4Ag1f-1   
   12    4Ag1f0        4Ag1f+1       4Ag1f+2       4Ag1f+3   
 
 Maximum number of basis functions per shell:   10
 Total number of basis functions:    124
 
 
 Fitting basis set for the SCF calculation:
 
   1  Ag def2-qzvpp-ri-jk [ 13s 12p 10d 9f 6g 3h 2i | 11s 10p 9d 8f 6g 3h 2i ]
   2  Ag def2-qzvpp-ri-jk [ 13s 12p 10d 9f 6g 3h 2i | 11s 10p 9d 8f 6g 3h 2i ]
   3  Ag def2-qzvpp-ri-jk [ 13s 12p 10d 9f 6g 3h 2i | 11s 10p 9d 8f 6g 3h 2i ]
   4  Ag def2-qzvpp-ri-jk [ 13s 12p 10d 9f 6g 3h 2i | 11s 10p 9d 8f 6g 3h 2i ]
 
 Basis functions:
            1             2             3             4             5             6             7             8             9            10
    0    1Ag1s         1Ag2s         1Ag3s         1Ag4s         1Ag5s         1Ag6s         1Ag7s         1Ag8s         1Ag9s         1Ag10s    
    1    1Ag11s        1Ag1pz        1Ag1py        1Ag1px        1Ag2pz        1Ag2py        1Ag2px        1Ag3pz        1Ag3py        1Ag3px    
    2    1Ag4pz        1Ag4py        1Ag4px        1Ag5pz        1Ag5py        1Ag5px        1Ag6pz        1Ag6py        1Ag6px        1Ag7pz    
    3    1Ag7py        1Ag7px        1Ag8pz        1Ag8py        1Ag8px        1Ag9pz        1Ag9py        1Ag9px        1Ag10pz       1Ag10py   
    4    1Ag10px       1Ag1d-2       1Ag1d-1       1Ag1d0        1Ag1d+1       1Ag1d+2       1Ag2d-2       1Ag2d-1       1Ag2d0        1Ag2d+1   
    5    1Ag2d+2       1Ag3d-2       1Ag3d-1       1Ag3d0        1Ag3d+1       1Ag3d+2       1Ag4d-2       1Ag4d-1       1Ag4d0        1Ag4d+1   
    6    1Ag4d+2       1Ag5d-2       1Ag5d-1       1Ag5d0        1Ag5d+1       1Ag5d+2       1Ag6d-2       1Ag6d-1       1Ag6d0        1Ag6d+1   
    7    1Ag6d+2       1Ag7d-2       1Ag7d-1       1Ag7d0        1Ag7d+1       1Ag7d+2       1Ag8d-2       1Ag8d-1       1Ag8d0        1Ag8d+1   
    8    1Ag8d+2       1Ag9d-2       1Ag9d-1       1Ag9d0        1Ag9d+1       1Ag9d+2       1Ag1f-3       1Ag1f-2       1Ag1f-1       1Ag1f0    
    9    1Ag1f+1       1Ag1f+2       1Ag1f+3       1Ag2f-3       1Ag2f-2       1Ag2f-1       1Ag2f0        1Ag2f+1       1Ag2f+2       1Ag2f+3   
   10    1Ag3f-3       1Ag3f-2       1Ag3f-1       1Ag3f0        1Ag3f+1       1Ag3f+2       1Ag3f+3       1Ag4f-3       1Ag4f-2       1Ag4f-1   
   11    1Ag4f0        1Ag4f+1       1Ag4f+2       1Ag4f+3       1Ag5f-3       1Ag5f-2       1Ag5f-1       1Ag5f0        1Ag5f+1       1Ag5f+2   
   12    1Ag5f+3       1Ag6f-3       1Ag6f-2       1Ag6f-1       1Ag6f0        1Ag6f+1       1Ag6f+2       1Ag6f+3       1Ag7f-3       1Ag7f-2   
   13    1Ag7f-1       1Ag7f0        1Ag7f+1       1Ag7f+2       1Ag7f+3       1Ag8f-3       1Ag8f-2       1Ag8f-1       1Ag8f0        1Ag8f+1   
   14    1Ag8f+2       1Ag8f+3       1Ag1g-4       1Ag1g-3       1Ag1g-2       1Ag1g-1       1Ag1g0        1Ag1g+1       1Ag1g+2       1Ag1g+3   
   15    1Ag1g+4       1Ag2g-4       1Ag2g-3       1Ag2g-2       1Ag2g-1       1Ag2g0        1Ag2g+1       1Ag2g+2       1Ag2g+3       1Ag2g+4   
   16    1Ag3g-4       1Ag3g-3       1Ag3g-2       1Ag3g-1       1Ag3g0        1Ag3g+1       1Ag3g+2       1Ag3g+3       1Ag3g+4       1Ag4g-4   
   17    1Ag4g-3       1Ag4g-2       1Ag4g-1       1Ag4g0        1Ag4g+1       1Ag4g+2       1Ag4g+3       1Ag4g+4       1Ag5g-4       1Ag5g-3   
   18    1Ag5g-2       1Ag5g-1       1Ag5g0        1Ag5g+1       1Ag5g+2       1Ag5g+3       1Ag5g+4       1Ag6g-4       1Ag6g-3       1Ag6g-2   
   19    1Ag6g-1       1Ag6g0        1Ag6g+1       1Ag6g+2       1Ag6g+3       1Ag6g+4       1Ag1h-5       1Ag1h-4       1Ag1h-3       1Ag1h-2   
   20    1Ag1h-1       1Ag1h0        1Ag1h+1       1Ag1h+2       1Ag1h+3       1Ag1h+4       1Ag1h+5       1Ag2h-5       1Ag2h-4       1Ag2h-3   
   21    1Ag2h-2       1Ag2h-1       1Ag2h0        1Ag2h+1       1Ag2h+2       1Ag2h+3       1Ag2h+4       1Ag2h+5       1Ag3h-5       1Ag3h-4   
   22    1Ag3h-3       1Ag3h-2       1Ag3h-1       1Ag3h0        1Ag3h+1       1Ag3h+2       1Ag3h+3       1Ag3h+4       1Ag3h+5       1Ag1i-6   
   23    1Ag1i-5       1Ag1i-4       1Ag1i-3       1Ag1i-2       1Ag1i-1       1Ag1i0        1Ag1i+1       1Ag1i+2       1Ag1i+3       1Ag1i+4   
   24    1Ag1i+5       1Ag1i+6       1Ag2i-6       1Ag2i-5       1Ag2i-4       1Ag2i-3       1Ag2i-2       1Ag2i-1       1Ag2i0        1Ag2i+1   
   25    1Ag2i+2       1Ag2i+3       1Ag2i+4       1Ag2i+5       1Ag2i+6       2Ag1s         2Ag2s         2Ag3s         2Ag4s         2Ag5s     
   26    2Ag6s         2Ag7s         2Ag8s         2Ag9s         2Ag10s        2Ag11s        2Ag1pz        2Ag1py        2Ag1px        2Ag2pz    
   27    2Ag2py        2Ag2px        2Ag3pz        2Ag3py        2Ag3px        2Ag4pz        2Ag4py        2Ag4px        2Ag5pz        2Ag5py    
   28    2Ag5px        2Ag6pz        2Ag6py        2Ag6px        2Ag7pz        2Ag7py        2Ag7px        2Ag8pz        2Ag8py        2Ag8px    
   29    2Ag9pz        2Ag9py        2Ag9px        2Ag10pz       2Ag10py       2Ag10px       2Ag1d-2       2Ag1d-1       2Ag1d0        2Ag1d+1   
   30    2Ag1d+2       2Ag2d-2       2Ag2d-1       2Ag2d0        2Ag2d+1       2Ag2d+2       2Ag3d-2       2Ag3d-1       2Ag3d0        2Ag3d+1   
   31    2Ag3d+2       2Ag4d-2       2Ag4d-1       2Ag4d0        2Ag4d+1       2Ag4d+2       2Ag5d-2       2Ag5d-1       2Ag5d0        2Ag5d+1   
   32    2Ag5d+2       2Ag6d-2       2Ag6d-1       2Ag6d0        2Ag6d+1       2Ag6d+2       2Ag7d-2       2Ag7d-1       2Ag7d0        2Ag7d+1   
   33    2Ag7d+2       2Ag8d-2       2Ag8d-1       2Ag8d0        2Ag8d+1       2Ag8d+2       2Ag9d-2       2Ag9d-1       2Ag9d0        2Ag9d+1   
   34    2Ag9d+2       2Ag1f-3       2Ag1f-2       2Ag1f-1       2Ag1f0        2Ag1f+1       2Ag1f+2       2Ag1f+3       2Ag2f-3       2Ag2f-2   
   35    2Ag2f-1       2Ag2f0        2Ag2f+1       2Ag2f+2       2Ag2f+3       2Ag3f-3       2Ag3f-2       2Ag3f-1       2Ag3f0        2Ag3f+1   
   36    2Ag3f+2       2Ag3f+3       2Ag4f-3       2Ag4f-2       2Ag4f-1       2Ag4f0        2Ag4f+1       2Ag4f+2       2Ag4f+3       2Ag5f-3   
   37    2Ag5f-2       2Ag5f-1       2Ag5f0        2Ag5f+1       2Ag5f+2       2Ag5f+3       2Ag6f-3       2Ag6f-2       2Ag6f-1       2Ag6f0    
   38    2Ag6f+1       2Ag6f+2       2Ag6f+3       2Ag7f-3       2Ag7f-2       2Ag7f-1       2Ag7f0        2Ag7f+1       2Ag7f+2       2Ag7f+3   
   39    2Ag8f-3       2Ag8f-2       2Ag8f-1       2Ag8f0        2Ag8f+1       2Ag8f+2       2Ag8f+3       2Ag1g-4       2Ag1g-3       2Ag1g-2   
   40    2Ag1g-1       2Ag1g0        2Ag1g+1       2Ag1g+2       2Ag1g+3       2Ag1g+4       2Ag2g-4       2Ag2g-3       2Ag2g-2       2Ag2g-1   
   41    2Ag2g0        2Ag2g+1       2Ag2g+2       2Ag2g+3       2Ag2g+4       2Ag3g-4       2Ag3g-3       2Ag3g-2       2Ag3g-1       2Ag3g0    
   42    2Ag3g+1       2Ag3g+2       2Ag3g+3       2Ag3g+4       2Ag4g-4       2Ag4g-3       2Ag4g-2       2Ag4g-1       2Ag4g0        2Ag4g+1   
   43    2Ag4g+2       2Ag4g+3       2Ag4g+4       2Ag5g-4       2Ag5g-3       2Ag5g-2       2Ag5g-1       2Ag5g0        2Ag5g+1       2Ag5g+2   
   44    2Ag5g+3       2Ag5g+4       2Ag6g-4       2Ag6g-3       2Ag6g-2       2Ag6g-1       2Ag6g0        2Ag6g+1       2Ag6g+2       2Ag6g+3   
   45    2Ag6g+4       2Ag1h-5       2Ag1h-4       2Ag1h-3       2Ag1h-2       2Ag1h-1       2Ag1h0        2Ag1h+1       2Ag1h+2       2Ag1h+3   
   46    2Ag1h+4       2Ag1h+5       2Ag2h-5       2Ag2h-4       2Ag2h-3       2Ag2h-2       2Ag2h-1       2Ag2h0        2Ag2h+1       2Ag2h+2   
   47    2Ag2h+3       2Ag2h+4       2Ag2h+5       2Ag3h-5       2Ag3h-4       2Ag3h-3       2Ag3h-2       2Ag3h-1       2Ag3h0        2Ag3h+1   
   48    2Ag3h+2       2Ag3h+3       2Ag3h+4       2Ag3h+5       2Ag1i-6       2Ag1i-5       2Ag1i-4       2Ag1i-3       2Ag1i-2       2Ag1i-1   
   49    2Ag1i0        2Ag1i+1       2Ag1i+2       2Ag1i+3       2Ag1i+4       2Ag1i+5       2Ag1i+6       2Ag2i-6       2Ag2i-5       2Ag2i-4   
   50    2Ag2i-3       2Ag2i-2       2Ag2i-1       2Ag2i0        2Ag2i+1       2Ag2i+2       2Ag2i+3       2Ag2i+4       2Ag2i+5       2Ag2i+6   
   51    3Ag1s         3Ag2s         3Ag3s         3Ag4s         3Ag5s         3Ag6s         3Ag7s         3Ag8s         3Ag9s         3Ag10s    
   52    3Ag11s        3Ag1pz        3Ag1py        3Ag1px        3Ag2pz        3Ag2py        3Ag2px        3Ag3pz        3Ag3py        3Ag3px    
   53    3Ag4pz        3Ag4py        3Ag4px        3Ag5pz        3Ag5py        3Ag5px        3Ag6pz        3Ag6py        3Ag6px        3Ag7pz    
   54    3Ag7py        3Ag7px        3Ag8pz        3Ag8py        3Ag8px        3Ag9pz        3Ag9py        3Ag9px        3Ag10pz       3Ag10py   
   55    3Ag10px       3Ag1d-2       3Ag1d-1       3Ag1d0        3Ag1d+1       3Ag1d+2       3Ag2d-2       3Ag2d-1       3Ag2d0        3Ag2d+1   
   56    3Ag2d+2       3Ag3d-2       3Ag3d-1       3Ag3d0        3Ag3d+1       3Ag3d+2       3Ag4d-2       3Ag4d-1       3Ag4d0        3Ag4d+1   
   57    3Ag4d+2       3Ag5d-2       3Ag5d-1       3Ag5d0        3Ag5d+1       3Ag5d+2       3Ag6d-2       3Ag6d-1       3Ag6d0        3Ag6d+1   
   58    3Ag6d+2       3Ag7d-2       3Ag7d-1       3Ag7d0        3Ag7d+1       3Ag7d+2       3Ag8d-2       3Ag8d-1       3Ag8d0        3Ag8d+1   
   59    3Ag8d+2       3Ag9d-2       3Ag9d-1       3Ag9d0        3Ag9d+1       3Ag9d+2       3Ag1f-3       3Ag1f-2       3Ag1f-1       3Ag1f0    
   60    3Ag1f+1       3Ag1f+2       3Ag1f+3       3Ag2f-3       3Ag2f-2       3Ag2f-1       3Ag2f0        3Ag2f+1       3Ag2f+2       3Ag2f+3   
   61    3Ag3f-3       3Ag3f-2       3Ag3f-1       3Ag3f0        3Ag3f+1       3Ag3f+2       3Ag3f+3       3Ag4f-3       3Ag4f-2       3Ag4f-1   
   62    3Ag4f0        3Ag4f+1       3Ag4f+2       3Ag4f+3       3Ag5f-3       3Ag5f-2       3Ag5f-1       3Ag5f0        3Ag5f+1       3Ag5f+2   
   63    3Ag5f+3       3Ag6f-3       3Ag6f-2       3Ag6f-1       3Ag6f0        3Ag6f+1       3Ag6f+2       3Ag6f+3       3Ag7f-3       3Ag7f-2   
   64    3Ag7f-1       3Ag7f0        3Ag7f+1       3Ag7f+2       3Ag7f+3       3Ag8f-3       3Ag8f-2       3Ag8f-1       3Ag8f0        3Ag8f+1   
   65    3Ag8f+2       3Ag8f+3       3Ag1g-4       3Ag1g-3       3Ag1g-2       3Ag1g-1       3Ag1g0        3Ag1g+1       3Ag1g+2       3Ag1g+3   
   66    3Ag1g+4       3Ag2g-4       3Ag2g-3       3Ag2g-2       3Ag2g-1       3Ag2g0        3Ag2g+1       3Ag2g+2       3Ag2g+3       3Ag2g+4   
   67    3Ag3g-4       3Ag3g-3       3Ag3g-2       3Ag3g-1       3Ag3g0        3Ag3g+1       3Ag3g+2       3Ag3g+3       3Ag3g+4       3Ag4g-4   
   68    3Ag4g-3       3Ag4g-2       3Ag4g-1       3Ag4g0        3Ag4g+1       3Ag4g+2       3Ag4g+3       3Ag4g+4       3Ag5g-4       3Ag5g-3   
   69    3Ag5g-2       3Ag5g-1       3Ag5g0        3Ag5g+1       3Ag5g+2       3Ag5g+3       3Ag5g+4       3Ag6g-4       3Ag6g-3       3Ag6g-2   
   70    3Ag6g-1       3Ag6g0        3Ag6g+1       3Ag6g+2       3Ag6g+3       3Ag6g+4       3Ag1h-5       3Ag1h-4       3Ag1h-3       3Ag1h-2   
   71    3Ag1h-1       3Ag1h0        3Ag1h+1       3Ag1h+2       3Ag1h+3       3Ag1h+4       3Ag1h+5       3Ag2h-5       3Ag2h-4       3Ag2h-3   
   72    3Ag2h-2       3Ag2h-1       3Ag2h0        3Ag2h+1       3Ag2h+2       3Ag2h+3       3Ag2h+4       3Ag2h+5       3Ag3h-5       3Ag3h-4   
   73    3Ag3h-3       3Ag3h-2       3Ag3h-1       3Ag3h0        3Ag3h+1       3Ag3h+2       3Ag3h+3       3Ag3h+4       3Ag3h+5       3Ag1i-6   
   74    3Ag1i-5       3Ag1i-4       3Ag1i-3       3Ag1i-2       3Ag1i-1       3Ag1i0        3Ag1i+1       3Ag1i+2       3Ag1i+3       3Ag1i+4   
   75    3Ag1i+5       3Ag1i+6       3Ag2i-6       3Ag2i-5       3Ag2i-4       3Ag2i-3       3Ag2i-2       3Ag2i-1       3Ag2i0        3Ag2i+1   
   76    3Ag2i+2       3Ag2i+3       3Ag2i+4       3Ag2i+5       3Ag2i+6       4Ag1s         4Ag2s         4Ag3s         4Ag4s         4Ag5s     
   77    4Ag6s         4Ag7s         4Ag8s         4Ag9s         4Ag10s        4Ag11s        4Ag1pz        4Ag1py        4Ag1px        4Ag2pz    
   78    4Ag2py        4Ag2px        4Ag3pz        4Ag3py        4Ag3px        4Ag4pz        4Ag4py        4Ag4px        4Ag5pz        4Ag5py    
   79    4Ag5px        4Ag6pz        4Ag6py        4Ag6px        4Ag7pz        4Ag7py        4Ag7px        4Ag8pz        4Ag8py        4Ag8px    
   80    4Ag9pz        4Ag9py        4Ag9px        4Ag10pz       4Ag10py       4Ag10px       4Ag1d-2       4Ag1d-1       4Ag1d0        4Ag1d+1   
   81    4Ag1d+2       4Ag2d-2       4Ag2d-1       4Ag2d0        4Ag2d+1       4Ag2d+2       4Ag3d-2       4Ag3d-1       4Ag3d0        4Ag3d+1   
   82    4Ag3d+2       4Ag4d-2       4Ag4d-1       4Ag4d0        4Ag4d+1       4Ag4d+2       4Ag5d-2       4Ag5d-1       4Ag5d0        4Ag5d+1   
   83    4Ag5d+2       4Ag6d-2       4Ag6d-1       4Ag6d0        4Ag6d+1       4Ag6d+2       4Ag7d-2       4Ag7d-1       4Ag7d0        4Ag7d+1   
   84    4Ag7d+2       4Ag8d-2       4Ag8d-1       4Ag8d0        4Ag8d+1       4Ag8d+2       4Ag9d-2       4Ag9d-1       4Ag9d0        4Ag9d+1   
   85    4Ag9d+2       4Ag1f-3       4Ag1f-2       4Ag1f-1       4Ag1f0        4Ag1f+1       4Ag1f+2       4Ag1f+3       4Ag2f-3       4Ag2f-2   
   86    4Ag2f-1       4Ag2f0        4Ag2f+1       4Ag2f+2       4Ag2f+3       4Ag3f-3       4Ag3f-2       4Ag3f-1       4Ag3f0        4Ag3f+1   
   87    4Ag3f+2       4Ag3f+3       4Ag4f-3       4Ag4f-2       4Ag4f-1       4Ag4f0        4Ag4f+1       4Ag4f+2       4Ag4f+3       4Ag5f-3   
   88    4Ag5f-2       4Ag5f-1       4Ag5f0        4Ag5f+1       4Ag5f+2       4Ag5f+3       4Ag6f-3       4Ag6f-2       4Ag6f-1       4Ag6f0    
   89    4Ag6f+1       4Ag6f+2       4Ag6f+3       4Ag7f-3       4Ag7f-2       4Ag7f-1       4Ag7f0        4Ag7f+1       4Ag7f+2       4Ag7f+3   
   90    4Ag8f-3       4Ag8f-2       4Ag8f-1       4Ag8f0        4Ag8f+1       4Ag8f+2       4Ag8f+3       4Ag1g-4       4Ag1g-3       4Ag1g-2   
   91    4Ag1g-1       4Ag1g0        4Ag1g+1       4Ag1g+2       4Ag1g+3       4Ag1g+4       4Ag2g-4       4Ag2g-3       4Ag2g-2       4Ag2g-1   
   92    4Ag2g0        4Ag2g+1       4Ag2g+2       4Ag2g+3       4Ag2g+4       4Ag3g-4       4Ag3g-3       4Ag3g-2       4Ag3g-1       4Ag3g0    
   93    4Ag3g+1       4Ag3g+2       4Ag3g+3       4Ag3g+4       4Ag4g-4       4Ag4g-3       4Ag4g-2       4Ag4g-1       4Ag4g0        4Ag4g+1   
   94    4Ag4g+2       4Ag4g+3       4Ag4g+4       4Ag5g-4       4Ag5g-3       4Ag5g-2       4Ag5g-1       4Ag5g0        4Ag5g+1       4Ag5g+2   
   95    4Ag5g+3       4Ag5g+4       4Ag6g-4       4Ag6g-3       4Ag6g-2       4Ag6g-1       4Ag6g0        4Ag6g+1       4Ag6g+2       4Ag6g+3   
   96    4Ag6g+4       4Ag1h-5       4Ag1h-4       4Ag1h-3       4Ag1h-2       4Ag1h-1       4Ag1h0        4Ag1h+1       4Ag1h+2       4Ag1h+3   
   97    4Ag1h+4       4Ag1h+5       4Ag2h-5       4Ag2h-4       4Ag2h-3       4Ag2h-2       4Ag2h-1       4Ag2h0        4Ag2h+1       4Ag2h+2   
   98    4Ag2h+3       4Ag2h+4       4Ag2h+5       4Ag3h-5       4Ag3h-4       4Ag3h-3       4Ag3h-2       4Ag3h-1       4Ag3h0        4Ag3h+1   
   99    4Ag3h+2       4Ag3h+3       4Ag3h+4       4Ag3h+5       4Ag1i-6       4Ag1i-5       4Ag1i-4       4Ag1i-3       4Ag1i-2       4Ag1i-1   
  100    4Ag1i0        4Ag1i+1       4Ag1i+2       4Ag1i+3       4Ag1i+4       4Ag1i+5       4Ag1i+6       4Ag2i-6       4Ag2i-5       4Ag2i-4   
  101    4Ag2i-3       4Ag2i-2       4Ag2i-1       4Ag2i0        4Ag2i+1       4Ag2i+2       4Ag2i+3       4Ag2i+4       4Ag2i+5       4Ag2i+6   
 
 Maximum number of basis functions per shell:   56
 Total number of basis functions:   1020
 
 
 Effective core potentials:
 
   1  Ag mcdhf-ecp-28        
   2  Ag mcdhf-ecp-28        
   3  Ag mcdhf-ecp-28        
   4  Ag mcdhf-ecp-28        
 
 Initializing the SAD routines for the initial guess...
 Checking the files required for the initial guess...
 Density files have not been found for the initial guess.
 Generating SCFDENSITIES.Ag.def2-svp.0
 CPU time [min]:     0.117                   Wall time [min]:     0.184
 
 Character table for point group C1:
 
          E  
    A     1
 
 Number of basis functions per irrep:
    A     124
 
 
 Calculation of overlap integrals...
 CPU time [min]:     0.118                   Wall time [min]:     0.184
 
 Calculation of the square root of the overlap matrix...
 Minimum eigenvalue of the overlap matrix: 0.256127E-02
 CPU time [min]:     0.138                   Wall time [min]:     0.185
 
 Calculation of kinetic energy integrals...
 CPU time [min]:     0.139                   Wall time [min]:     0.185
 Calculation of dipole moment integrals...
 CPU time [min]:     0.140                   Wall time [min]:     0.185
 Calculation of nuclear attraction integrals...
 CPU time [min]:     0.143                   Wall time [min]:     0.185
 Calculation of core potential integrals...
 CPU time [min]:     0.295                   Wall time [min]:     0.227
 
 Calculation of prescreening integrals...
 CPU time [min]:     0.439                   Wall time [min]:     0.231
 
 Calculation of two-center Coulomb integrals...
   1% done.
  15% done.
  26% done.
  41% done.
  53% done.
  70% done.
  89% done.
 100% done.
 CPU time [min]:     0.457                   Wall time [min]:     0.232
 
 Cholesky decomposition of the two-center matrix...
 Reciprocal of the condition number:  0.275246E-05
 CPU time [min]:     0.495                   Wall time [min]:     0.233
 
 
 Running small-basis SCF...

 ************************ 2023-02-18 18:07:32 *************************
 Executing scf...

 @scfsetup: integrals calculated directly
            mrcc/integ direct run
 @scfsetup: calculating on full matrices
            not using symmetry adapted basis
 @scfsetup: diis switched on
 @scfsetup: number of steps to extrapolate from  10
 @scfsetup: tolerance in energy deviation    0.100000E-05
            tolerance in density deviation    0.100000E-06
 @scfsetup: maximum number of iterations:  50
 @scfsetup: restricted closed shell hf calc
 @scfsetup: starting scf from superposition of atomic densities
 @scfsetup: occupation set:
            from initial orbitals
 @scfsetup: Parameter-set for SCF acceleration: difficult
 @scfsetup: diis runs from iteration:   2
 @scfsetup: diis runs to iteration:  50
 @scfsetup: diis runs in every iteration
 @scfsetup: diiswatch is disabled                   
 @scfsetup: diis dtol criteria to switch on:      0.0000E+00
           (or the iteration number below is reached)
 @scfsetup: damping is turned off.
 @scfsetup: dynamic level shifting
            tolarance in HOMO-LUMO gap:  0.200
            tolarance in density deviation:     0.0000E+00
            iteration step criteria to turn level shifting off: 8
 Allocation of 220.0 Gbytes of memory...
 ======================================================================
 ITERATION STEP   1
 CPU time [min]:     0.022                   Wall time [min]:     0.004
 

 SCF control                  : initial
 Damping factor/level shift   : 0.000/0.200
 DIIS [start/end/frequency]   :   2 / 50 /  1

 Constructing Fock-matrix...
 
 Pipek-Mezey localization...
 Step  Convergence
   1  30.657784186131
   2  15.989460068786
   3   8.965887170189
   4   4.062757616699
   5   0.640060851445
   6   0.009261659174
   7   0.000012248073
   8   0.000000001641
 CPU time [min]:     0.045                   Wall time [min]:     0.005
 
 Constructing local fitting domains...
 Maximum number of atoms in fitting domains:    4
 Average number of atoms in fitting domains:    4.0
 
 First step of Coulomb + first step of exchange...
 Exchange contribution is evaluated for MOs 1 to 38.
   1% done.
  13% done.
  25% done.
  38% done.
  56% done.
  75% done.
  89% done.
 100% done.
 CPU time [min]:     0.197                   Wall time [min]:     0.009
 
 Fitting and assembly step of exchange...
 CPU time [min]:     0.210                   Wall time [min]:     0.010
 
 Second step of Coulomb...
   1% done.
  13% done.
  25% done.
  38% done.
  56% done.
  75% done.
  89% done.
 100% done.
 CPU time [min]:     0.254                   Wall time [min]:     0.011
 
 Gradient norm:      1.5428E+00
 RMS of [F,P]:                                         0.02736386401893
 RMS of difference density:                            0.02483503840824
 Gap [au]:  0.13879034
 ALPHA OCC:  38
 BETA  OCC:  38
 
 ***HARTREE-FOCK ENERGY IN STEP   1 IS       -582.8882289479631709 [AU]
 ======================================================================
 ITERATION STEP   2
 CPU time [min]:     0.266                   Wall time [min]:     0.012
 

 SCF control                  : diis
 Damping factor/level shift   : 0.000/0.200
 DIIS [start/end/frequency]   :   2 / 50 /  1

 Constructing Fock-matrix...
 
 Pipek-Mezey localization...
 Step  Convergence
   1   3.206921636813
   2   4.234534631342
   3   0.967738145254
   4   0.003865780225
   5   0.000000688161
 CPU time [min]:     0.287                   Wall time [min]:     0.012
 
 Constructing local fitting domains...
 Maximum number of atoms in fitting domains:    4
 Average number of atoms in fitting domains:    4.0
 
 First step of Coulomb + first step of exchange...
 Exchange contribution is evaluated for MOs 1 to 38.
   1% done.
  13% done.
  25% done.
  38% done.
  56% done.
  75% done.
  89% done.
 100% done.
 CPU time [min]:     0.400                   Wall time [min]:     0.016
 
 Fitting and assembly step of exchange...
 CPU time [min]:     0.407                   Wall time [min]:     0.016
 
 Second step of Coulomb...
   1% done.
  13% done.
  25% done.
  38% done.
  56% done.
  75% done.
  89% done.
 100% done.
 CPU time [min]:     0.447                   Wall time [min]:     0.017
 
 Gradient norm:      4.4531E-01
 DIIS is running in this iteration step.
 RMS of [F,P]:                                         0.01234432195684
 RMS of difference density:                            0.01353010657922
 Gap [au]:  0.18643461
 ALPHA OCC:  38
 BETA  OCC:  38
 
 ***HARTREE-FOCK ENERGY IN STEP   2 IS       -583.8210746666013620 [AU]
 
 Step comparison  Energy Drift [au]  DIIS error drift  Gradient drift
        1            9.3285E-01         1.5020E-02       1.0975E+00
        2            5.8382E+02         1.0000E-07       1.0975E+00
 ======================================================================
 ITERATION STEP   3
 CPU time [min]:     0.458                   Wall time [min]:     0.017
 

 SCF control                  : diis
 Damping factor/level shift   : 0.000/0.200
 DIIS [start/end/frequency]   :   2 / 50 /  1

 Constructing Fock-matrix...
 
 Pipek-Mezey localization...
 Step  Convergence
   1  11.750782091119
   2   3.671070852843
   3   0.217579002535
   4   0.000443421095
   5   0.000000078404
 CPU time [min]:     0.479                   Wall time [min]:     0.018
 
 Constructing local fitting domains...
 Local fitting domains are unchanged.
 
 First step of Coulomb + first step of exchange...
 Exchange contribution is evaluated for MOs 1 to 38.
   1% done.
  13% done.
  25% done.
  38% done.
  56% done.
  75% done.
  89% done.
 100% done.
 CPU time [min]:     0.591                   Wall time [min]:     0.021
 
 Fitting and assembly step of exchange...
 CPU time [min]:     0.597                   Wall time [min]:     0.021
 
 Second step of Coulomb...
   1% done.
  13% done.
  25% done.
  38% done.
  56% done.
  75% done.
  89% done.
 100% done.
 CPU time [min]:     0.636                   Wall time [min]:     0.022
 
 Gradient norm:      1.2082E-01
 DIIS is running in this iteration step.
 RMS of [F,P]:                                         0.00397646129242
 RMS of difference density:                            0.00317265332005
 Gap [au]:  0.17769604
 ALPHA OCC:  38
 BETA  OCC:  38
 
 ***HARTREE-FOCK ENERGY IN STEP   3 IS       -583.9971874231557649 [AU]
 
 Step comparison  Energy Drift [au]  DIIS error drift  Gradient drift
        2            1.7611E-01         8.3679E-03       3.2449E-01
 ======================================================================
 ITERATION STEP   4
 CPU time [min]:     0.646                   Wall time [min]:     0.023
 

 SCF control                  : diis
 Damping factor/level shift   : 0.000/0.200
 DIIS [start/end/frequency]   :   2 / 50 /  1

 Constructing Fock-matrix...
 
 Pipek-Mezey localization...
 Step  Convergence
   1  13.562744922791
   2   2.218220107579
   3   0.029002144185
   4   0.000027513118
   5   0.000000005572
 CPU time [min]:     0.667                   Wall time [min]:     0.023
 
 Constructing local fitting domains...
 Local fitting domains are unchanged.
 
 First step of Coulomb + first step of exchange...
 Exchange contribution is evaluated for MOs 1 to 38.
   1% done.
  13% done.
  25% done.
  38% done.
  56% done.
  75% done.
  89% done.
 100% done.
 CPU time [min]:     0.778                   Wall time [min]:     0.026
 
 Fitting and assembly step of exchange...
 CPU time [min]:     0.785                   Wall time [min]:     0.026
 
 Second step of Coulomb...
   1% done.
  13% done.
  25% done.
  38% done.
  56% done.
  75% done.
  89% done.
 100% done.
 CPU time [min]:     0.825                   Wall time [min]:     0.028
 
 Gradient norm:      2.7065E-02
 DIIS is running in this iteration step.
 RMS of [F,P]:                                         0.00055984162943
 RMS of difference density:                            0.00135975590286
 Gap [au]:  0.18152590
 ALPHA OCC:  38
 BETA  OCC:  38
 
 ***HARTREE-FOCK ENERGY IN STEP   4 IS       -584.0227270104037416 [AU]
 
 Step comparison  Energy Drift [au]  DIIS error drift  Gradient drift
        3            2.5540E-02         3.4166E-03       9.3758E-02
 ======================================================================
 ITERATION STEP   5
 CPU time [min]:     0.834                   Wall time [min]:     0.028
 

 SCF control                  : diis
 Damping factor/level shift   : 0.000/0.200
 DIIS [start/end/frequency]   :   2 / 50 /  1

 Constructing Fock-matrix...
 
 Pipek-Mezey localization...
 Step  Convergence
   1  14.545956393983
   2   1.496270177687
   3   0.087602661816
   4   0.000203530325
   5   0.000000015971
 CPU time [min]:     0.855                   Wall time [min]:     0.028
 
 Constructing local fitting domains...
 Local fitting domains are unchanged.
 
 First step of Coulomb + first step of exchange...
 Exchange contribution is evaluated for MOs 1 to 38.
   1% done.
  13% done.
  25% done.
  38% done.
  56% done.
  75% done.
  89% done.
 100% done.
 CPU time [min]:     0.967                   Wall time [min]:     0.032
 
 Fitting and assembly step of exchange...
 CPU time [min]:     0.973                   Wall time [min]:     0.032
 
 Second step of Coulomb...
   1% done.
  13% done.
  25% done.
  38% done.
  56% done.
  75% done.
  89% done.
 100% done.
 CPU time [min]:     1.013                   Wall time [min]:     0.033
 
 Gradient norm:      1.5572E-02
 DIIS is running in this iteration step.
 RMS of [F,P]:                                         0.00027837138487
 RMS of difference density:                            0.00103108748795
 Gap [au]:  0.18315611
 ALPHA OCC:  38
 BETA  OCC:  38
 
 ***HARTREE-FOCK ENERGY IN STEP   5 IS       -584.0244931420645571 [AU]
 
 Step comparison  Energy Drift [au]  DIIS error drift  Gradient drift
        4            1.7661E-03         2.8147E-04       1.1493E-02
 ======================================================================
 ITERATION STEP   6
 CPU time [min]:     1.023                   Wall time [min]:     0.033
 

 SCF control                  : diis
 Damping factor/level shift   : 0.000/0.200
 DIIS [start/end/frequency]   :   2 / 50 /  1

 Constructing Fock-matrix...
 
 Pipek-Mezey localization...
 Step  Convergence
   1  10.858886266201
   2   1.807691645190
   3   0.020561145963
   4   0.000014635930
   5   0.000000004702
 CPU time [min]:     1.044                   Wall time [min]:     0.034
 
 Constructing local fitting domains...
 Local fitting domains are unchanged.
 
 First step of Coulomb + first step of exchange...
 Exchange contribution is evaluated for MOs 1 to 38.
   1% done.
  13% done.
  25% done.
  38% done.
  56% done.
  75% done.
  89% done.
 100% done.
 CPU time [min]:     1.155                   Wall time [min]:     0.037
 
 Fitting and assembly step of exchange...
 CPU time [min]:     1.161                   Wall time [min]:     0.037
 
 Second step of Coulomb...
   1% done.
  13% done.
  25% done.
  38% done.
  56% done.
  75% done.
  89% done.
 100% done.
 CPU time [min]:     1.201                   Wall time [min]:     0.038
 
 Gradient norm:      7.9545E-03
 DIIS is running in this iteration step.
 RMS of [F,P]:                                         0.00010351239500
 RMS of difference density:                            0.00042508694748
 Gap [au]:  0.18341089
 ALPHA OCC:  38
 BETA  OCC:  38
 
 ***HARTREE-FOCK ENERGY IN STEP   6 IS       -584.0250794697483343 [AU]
 
 Step comparison  Energy Drift [au]  DIIS error drift  Gradient drift
        5            5.8633E-04         1.7486E-04       7.6172E-03
 ======================================================================
 ITERATION STEP   7
 CPU time [min]:     1.211                   Wall time [min]:     0.038
 

 SCF control                  : diis
 Damping factor/level shift   : 0.000/0.200
 DIIS [start/end/frequency]   :   2 / 50 /  1

 Constructing Fock-matrix...
 
 Pipek-Mezey localization...
 Step  Convergence
   1  16.662617842707
   2   9.179316783070
   3  12.455839017047
   4   6.546582053461
   5   1.923981518819
   6   0.287456870538
   7   0.064425134199
   8   0.002290661843
   9   0.000980064911
  10   0.000173065066
  11   0.000065176571
  12   0.000015842933
  13   0.000005618991
  14   0.000001598216
  15   0.000000555143
  16   0.000000173834
  17   0.000000060435
  18   0.000000020088
  19   0.000000007056
  20   0.000000002430
  21   0.000000000862
  22   0.000000000303
  23   0.000000000108
  24   0.000000000039
  25   0.000000000014
  26   0.000000000005
  27   0.000000000002
  28   0.000000000001
 CPU time [min]:     1.242                   Wall time [min]:     0.039
 
 Constructing local fitting domains...
 Local fitting domains are unchanged.
 
 First step of Coulomb + first step of exchange...
 Exchange contribution is evaluated for MOs 1 to 38.
   1% done.
  13% done.
  25% done.
  38% done.
  56% done.
  75% done.
  89% done.
 100% done.
 CPU time [min]:     1.354                   Wall time [min]:     0.042
 
 Fitting and assembly step of exchange...
 CPU time [min]:     1.360                   Wall time [min]:     0.043
 
 Second step of Coulomb...
   1% done.
  13% done.
  25% done.
  38% done.
  56% done.
  75% done.
  89% done.
 100% done.
 CPU time [min]:     1.400                   Wall time [min]:     0.044
 
 Gradient norm:      4.2159E-03
 DIIS is running in this iteration step.
 RMS of [F,P]:                                         0.00005957973525
 RMS of difference density:                            0.00025247923843
 Gap [au]:  0.18377914
 ALPHA OCC:  38
 BETA  OCC:  38
 
 ***HARTREE-FOCK ENERGY IN STEP   7 IS       -584.0252086547009185 [AU]
 
 Step comparison  Energy Drift [au]  DIIS error drift  Gradient drift
        6            1.2918E-04         4.3933E-05       3.7385E-03
 ======================================================================
 ITERATION STEP   8
 CPU time [min]:     1.409                   Wall time [min]:     0.044
 

 SCF control                  : diis
 Damping factor/level shift   : 0.000/0.200
 DIIS [start/end/frequency]   :   2 / 50 /  1

 Constructing Fock-matrix...
 
 Pipek-Mezey localization...
 Step  Convergence
   1  15.942121508981
   2   7.258197657173
   3   6.641167268158
   4   6.387089232291
   5   1.192430476102
   6   0.082706712575
   7   0.008260306661
   8   0.001073358701
   9   0.000337970423
  10   0.000087665433
  11   0.000023396618
  12   0.000007406945
  13   0.000002025867
  14   0.000000663988
  15   0.000000192275
  16   0.000000062770
  17   0.000000018907
  18   0.000000006134
  19   0.000000001896
  20   0.000000000613
  21   0.000000000193
  22   0.000000000062
  23   0.000000000020
  24   0.000000000006
  25   0.000000000002
  26   0.000000000001
 CPU time [min]:     1.439                   Wall time [min]:     0.045
 
 Constructing local fitting domains...
 Local fitting domains are unchanged.
 
 First step of Coulomb + first step of exchange...
 Exchange contribution is evaluated for MOs 1 to 38.
   1% done.
  13% done.
  25% done.
  38% done.
  56% done.
  75% done.
  89% done.
 100% done.
 CPU time [min]:     1.551                   Wall time [min]:     0.048
 
 Fitting and assembly step of exchange...
 CPU time [min]:     1.557                   Wall time [min]:     0.048
 
 Second step of Coulomb...
   1% done.
  13% done.
  25% done.
  38% done.
  56% done.
  75% done.
  89% done.
 100% done.
 CPU time [min]:     1.597                   Wall time [min]:     0.049
 
 Gradient norm:      2.5002E-03
 DIIS is running in this iteration step.
 RMS of [F,P]:                                         0.00002669135053
 RMS of difference density:                            0.00010036262130
 Gap [au]:  0.18379545
 ALPHA OCC:  38
 BETA  OCC:  38
 
 ***HARTREE-FOCK ENERGY IN STEP   8 IS       -584.0252504397994926 [AU]
 
 Step comparison  Energy Drift [au]  DIIS error drift  Gradient drift
        7            4.1785E-05         3.2888E-05       1.7158E-03
 ======================================================================
 ITERATION STEP   9
 CPU time [min]:     1.606                   Wall time [min]:     0.049
 

 SCF control                  : diis
 Damping factor/level shift   : 0.000/0.000
 DIIS [start/end/frequency]   :   2 / 50 /  1

 Constructing Fock-matrix...
 
 Pipek-Mezey localization...
 Step  Convergence
   1  18.532846717385
   2   6.749028400240
   3  10.875589411565
   4   8.858943756177
   5   4.595180359808
   6   1.734277803111
   7   0.107682216990
   8   0.034690446282
   9   0.028185268818
  10   0.027605707407
  11   0.021489556334
  12   0.002883771613
  13   0.000435247988
  14   0.000055841321
  15   0.000009386984
  16   0.000001653559
  17   0.000000299846
  18   0.000000054788
  19   0.000000010048
  20   0.000000001845
  21   0.000000000340
  22   0.000000000062
  23   0.000000000011
  24   0.000000000002
  25   0.000000000000
 CPU time [min]:     1.636                   Wall time [min]:     0.050
 
 Constructing local fitting domains...
 Local fitting domains are unchanged.
 
 First step of Coulomb + first step of exchange...
 Exchange contribution is evaluated for MOs 1 to 38.
   1% done.
  13% done.
  25% done.
  38% done.
  56% done.
  75% done.
  89% done.
 100% done.
 CPU time [min]:     1.748                   Wall time [min]:     0.053
 
 Fitting and assembly step of exchange...
 CPU time [min]:     1.754                   Wall time [min]:     0.054
 
 Second step of Coulomb...
   1% done.
  13% done.
  25% done.
  38% done.
  56% done.
  75% done.
  89% done.
 100% done.
 CPU time [min]:     1.793                   Wall time [min]:     0.055
 
 Gradient norm:      1.3864E-03
 DIIS is running in this iteration step.
 RMS of [F,P]:                                         0.00001321671552
 RMS of difference density:                            0.00007403465795
 Gap [au]:  0.18383879
 ALPHA OCC:  38
 BETA  OCC:  38
 
 ***HARTREE-FOCK ENERGY IN STEP   9 IS       -584.0252589231627098 [AU]
 
 Step comparison  Energy Drift [au]  DIIS error drift  Gradient drift
        8            8.4834E-06         1.3475E-05       1.1137E-03
 ======================================================================
 ITERATION STEP  10
 CPU time [min]:     1.803                   Wall time [min]:     0.055
 

 SCF control                  : diis
 Damping factor/level shift   : 0.000/0.000
 DIIS [start/end/frequency]   :   2 / 50 /  1

 Constructing Fock-matrix...
 
 Pipek-Mezey localization...
 Step  Convergence
   1  18.624623177800
   2   7.042702498655
   3  10.452972925914
   4   5.996658941120
   5   2.241918633295
   6   0.224672730218
   7   0.060474812545
   8   0.098963811437
   9   0.073865275786
  10   0.019704573103
  11   0.002437202714
  12   0.000628462791
  13   0.000160288604
  14   0.000046355097
  15   0.000013097216
  16   0.000003851783
  17   0.000001114658
  18   0.000000327023
  19   0.000000097171
  20   0.000000028326
  21   0.000000008428
  22   0.000000002467
  23   0.000000000732
  24   0.000000000216
  25   0.000000000064
  26   0.000000000019
  27   0.000000000006
  28   0.000000000002
  29   0.000000000000
 CPU time [min]:     1.835                   Wall time [min]:     0.056
 
 Constructing local fitting domains...
 Local fitting domains are unchanged.
 
 First step of Coulomb + first step of exchange...
 Exchange contribution is evaluated for MOs 1 to 38.
   1% done.
  13% done.
  25% done.
  38% done.
  56% done.
  75% done.
  89% done.
 100% done.
 CPU time [min]:     1.946                   Wall time [min]:     0.059
 
 Fitting and assembly step of exchange...
 CPU time [min]:     1.952                   Wall time [min]:     0.059
 
 Second step of Coulomb...
   1% done.
  13% done.
  25% done.
  38% done.
  56% done.
  75% done.
  89% done.
 100% done.
 CPU time [min]:     1.992                   Wall time [min]:     0.060
 
 Gradient norm:      1.5637E-04
 DIIS is running in this iteration step.
 RMS of [F,P]:                                         0.00000253077911
 RMS of difference density:                            0.00000971168789
 Gap [au]:  0.18385889
 ALPHA OCC:  38
 BETA  OCC:  38
 
 ***HARTREE-FOCK ENERGY IN STEP  10 IS       -584.0252618354256811 [AU]
 
 Step comparison  Energy Drift [au]  DIIS error drift  Gradient drift
        9            2.9123E-06         1.0686E-05       1.2301E-03
 ======================================================================
 ITERATION STEP  11
 CPU time [min]:     2.030                   Wall time [min]:     0.061
 

 SCF control                  : diis
 Damping factor/level shift   : 0.000/0.000
 DIIS [start/end/frequency]   :   2 / 50 /  1

 Constructing Fock-matrix...
 
 Pipek-Mezey localization...
 Step  Convergence
   1  17.938145605724
   2   9.049027798674
   3   8.302734990853
   4   4.039338488085
   5   2.632910397906
   6   0.288772687863
   7   0.082068410080
   8   0.089235115993
   9   0.076514664350
  10   0.026821082545
  11   0.001644903208
  12   0.000142216227
  13   0.000021473447
  14   0.000003547116
  15   0.000000592692
  16   0.000000099420
  17   0.000000016823
  18   0.000000002880
  19   0.000000000497
  20   0.000000000087
  21   0.000000000015
  22   0.000000000003
  23   0.000000000001
 CPU time [min]:     2.059                   Wall time [min]:     0.062
 
 Constructing local fitting domains...
 Local fitting domains are unchanged.
 
 First step of Coulomb + first step of exchange...
 Exchange contribution is evaluated for MOs 1 to 38.
   1% done.
  13% done.
  25% done.
  38% done.
  56% done.
  75% done.
  89% done.
 100% done.
 CPU time [min]:     2.171                   Wall time [min]:     0.065
 
 Fitting and assembly step of exchange...
 CPU time [min]:     2.177                   Wall time [min]:     0.066
 
 Second step of Coulomb...
   1% done.
  13% done.
  25% done.
  38% done.
  56% done.
  75% done.
  89% done.
 100% done.
 CPU time [min]:     2.217                   Wall time [min]:     0.067
 
 Gradient norm:      3.1474E-05
 DIIS is running in this iteration step.
 RMS of [F,P]:                                         0.00000076750813
 RMS of difference density:                            0.00000258931893
 Gap [au]:  0.18386203
 ALPHA OCC:  38
 BETA  OCC:  38
 
 ***HARTREE-FOCK ENERGY IN STEP  11 IS       -584.0252618893823637 [AU]
 
 Step comparison  Energy Drift [au]  DIIS error drift  Gradient drift
       10            5.3957E-08         1.7633E-06       1.2489E-04
 ======================================================================
 ITERATION STEP  12
 CPU time [min]:     2.226                   Wall time [min]:     0.067
 

 SCF control                  : diis
 Damping factor/level shift   : 0.000/0.000
 DIIS [start/end/frequency]   :   2 / 50 /  1

 Constructing Fock-matrix...
 
 Pipek-Mezey localization...
 Step  Convergence
   1  21.319388502122
   2   8.966969889112
   3  10.391124581659
   4   7.103857145870
   5   2.952253077855
   6   1.371587759794
   7   0.108801327436
   8   0.031481232978
   9   0.002936449610
  10   0.000561643662
  11   0.000106297878
  12   0.000023417112
  13   0.000006011970
  14   0.000001282820
  15   0.000000351339
  16   0.000000076727
  17   0.000000021475
  18   0.000000004835
  19   0.000000001360
  20   0.000000000316
  21   0.000000000089
  22   0.000000000021
  23   0.000000000006
  24   0.000000000001
  25   0.000000000000
 CPU time [min]:     2.256                   Wall time [min]:     0.068
 
 Constructing local fitting domains...
 Local fitting domains are unchanged.
 
 First step of Coulomb + first step of exchange...
 Exchange contribution is evaluated for MOs 1 to 38.
   1% done.
  13% done.
  25% done.
  38% done.
  56% done.
  75% done.
  89% done.
 100% done.
 CPU time [min]:     2.368                   Wall time [min]:     0.071
 
 Fitting and assembly step of exchange...
 CPU time [min]:     2.374                   Wall time [min]:     0.071
 
 Second step of Coulomb...
   1% done.
  13% done.
  25% done.
  38% done.
  56% done.
  75% done.
  89% done.
 100% done.
 CPU time [min]:     2.414                   Wall time [min]:     0.072
 
 Gradient norm:      1.0924E-05
 DIIS is running in this iteration step.
 RMS of [F,P]:                                         0.00000031888658
 RMS of difference density:                            0.00000094139111
 Gap [au]:  0.18386297
 ALPHA OCC:  38
 BETA  OCC:  38
 
 ***HARTREE-FOCK ENERGY IN STEP  12 IS       -584.0252618940919547 [AU]
 
 Step comparison  Energy Drift [au]  DIIS error drift  Gradient drift
       11            4.7096E-09         4.4862E-07       2.0550E-05
 ======================================================================
 ITERATION STEP  13
 CPU time [min]:     2.423                   Wall time [min]:     0.072
 

 SCF control                  : diis
 Damping factor/level shift   : 0.000/0.000
 DIIS [start/end/frequency]   :   2 / 50 /  1

 Constructing Fock-matrix...
 
 Pipek-Mezey localization...
 Step  Convergence
   1  18.122731439680
   2   8.822641116866
   3   8.716795198613
   4   3.113834144438
   5   1.292933319689
   6   0.080511281966
   7   0.077117680969
   8   0.006625134934
   9   0.001914206915
  10   0.000134279927
  11   0.000027720402
  12   0.000005486784
  13   0.000001207027
  14   0.000000262804
  15   0.000000059706
  16   0.000000013268
  17   0.000000003081
  18   0.000000000696
  19   0.000000000165
  20   0.000000000038
  21   0.000000000009
  22   0.000000000002
  23   0.000000000001
 CPU time [min]:     2.452                   Wall time [min]:     0.073
 
 Constructing local fitting domains...
 Local fitting domains are unchanged.
 
 First step of Coulomb + first step of exchange...
 Exchange contribution is evaluated for MOs 1 to 38.
   1% done.
  13% done.
  25% done.
  38% done.
  56% done.
  75% done.
  89% done.
 100% done.
 CPU time [min]:     2.564                   Wall time [min]:     0.076
 
 Fitting and assembly step of exchange...
 CPU time [min]:     2.570                   Wall time [min]:     0.077
 
 Second step of Coulomb...
   1% done.
  13% done.
  25% done.
  38% done.
  56% done.
  75% done.
  89% done.
 100% done.
 CPU time [min]:     2.610                   Wall time [min]:     0.078
 
 Gradient norm:      3.8544E-06
 DIIS is running in this iteration step.
 RMS of [F,P]:                                         0.00000007234993
 RMS of difference density:                            0.00000021191629
 Gap [au]:  0.18386304
 ALPHA OCC:  38
 BETA  OCC:  38
 
 ***HARTREE-FOCK ENERGY IN STEP  13 IS       -584.0252618947070005 [AU]
 
 Step comparison  Energy Drift [au]  DIIS error drift  Gradient drift
       12            6.1505E-10         2.4654E-07       7.0692E-06
 ======================================================================
 ITERATION STEP  14
 CPU time [min]:     2.619                   Wall time [min]:     0.078
 

 SCF control                  : diis
 Damping factor/level shift   : 0.000/0.000
 DIIS [start/end/frequency]   :   2 / 50 /  1

 Constructing Fock-matrix...
 
 Pipek-Mezey localization...
 Step  Convergence
   1  19.336392192442
   2   6.050080010786
   3   8.704053525889
   4   5.696969957924
   5   2.271437923627
   6   0.689978348572
   7   0.019947965239
   8   0.001044752793
   9   0.000205379985
  10   0.000054143497
  11   0.000015842116
  12   0.000004285035
  13   0.000001392489
  14   0.000000407485
  15   0.000000135701
  16   0.000000039547
  17   0.000000015541
  18   0.000000004907
  19   0.000000001678
  20   0.000000000498
  21   0.000000000213
  22   0.000000000068
  23   0.000000000021
  24   0.000000000009
  25   0.000000000003
  26   0.000000000001
 CPU time [min]:     2.649                   Wall time [min]:     0.079
 
 Constructing local fitting domains...
 Local fitting domains are unchanged.
 
 First step of Coulomb + first step of exchange...
 Exchange contribution is evaluated for MOs 1 to 38.
   1% done.
  13% done.
  25% done.
  38% done.
  56% done.
  75% done.
  89% done.
 100% done.
 CPU time [min]:     2.761                   Wall time [min]:     0.082
 
 Fitting and assembly step of exchange...
 CPU time [min]:     2.767                   Wall time [min]:     0.082
 
 Second step of Coulomb...
   1% done.
  13% done.
  25% done.
  38% done.
  56% done.
  75% done.
  89% done.
 100% done.
 CPU time [min]:     2.807                   Wall time [min]:     0.083
 
 Gradient norm:      1.0813E-06
 DIIS is running in this iteration step.
 RMS of [F,P]:                                         0.00000001671939
 RMS of difference density:                            0.00000006478802
 Gap [au]:  0.18386301
 ALPHA OCC:  38
 BETA  OCC:  38
 
 ***HARTREE-FOCK ENERGY IN STEP  14 IS       -584.0252618947497467 [AU]
 
 Step comparison  Energy Drift [au]  DIIS error drift  Gradient drift
       13            4.2746E-11         5.5631E-08       2.7730E-06
 ======================================================================
 
 SUCCESS...
 THE SCF ITERATION HAS CONVERGED!
 
                   A   
 FINAL ALPHA OCC:  38
 FINAL BETA  OCC:  38
 
 ***FINAL HARTREE-FOCK ENERGY:       -584.0252618947497467 [AU]
 
 Orbital energies [au]:
      Irrep         Alpha          Beta
    1   A         -4.365962      -4.365962
    2   A         -4.365473      -4.365473
    3   A         -4.335222      -4.335222
    4   A         -4.335208      -4.335208
    5   A         -2.813860      -2.813860
    6   A         -2.808926      -2.808926
    7   A         -2.808452      -2.808452
    8   A         -2.808408      -2.808408
    9   A         -2.808312      -2.808312
   10   A         -2.807897      -2.807897
   11   A         -2.778372      -2.778372
   12   A         -2.778183      -2.778183
   13   A         -2.776547      -2.776547
   14   A         -2.776447      -2.776447
   15   A         -2.775077      -2.775077
   16   A         -2.775060      -2.775060
   17   A         -0.560260      -0.560260
   18   A         -0.557468      -0.557468
   19   A         -0.542324      -0.542324
   20   A         -0.538780      -0.538780
   21   A         -0.532992      -0.532992
   22   A         -0.531616      -0.531616
   23   A         -0.523737      -0.523737
   24   A         -0.517034      -0.517034
   25   A         -0.504945      -0.504945
   26   A         -0.500246      -0.500246
   27   A         -0.487792      -0.487792
   28   A         -0.485947      -0.485947
   29   A         -0.485158      -0.485158
   30   A         -0.483770      -0.483770
   31   A         -0.479737      -0.479737
   32   A         -0.477567      -0.477567
   33   A         -0.475886      -0.475886
   34   A         -0.473168      -0.473168
   35   A         -0.469401      -0.469401
   36   A         -0.457386      -0.457386
   37   A         -0.302643      -0.302643
   38   A         -0.190416      -0.190416
 
   39   A         -0.006553      -0.006553
   40   A          0.026590       0.026590
   41   A          0.034268       0.034268
   42   A          0.061565       0.061565
   43   A          0.063934       0.063934
   44   A          0.081642       0.081642
   45   A          0.089699       0.089699
   46   A          0.104478       0.104478
   47   A          0.128262       0.128262
   48   A          0.135975       0.135975
   49   A          0.150635       0.150635
   50   A          0.164055       0.164055
   51   A          0.181638       0.181638
   52   A          0.183431       0.183431
   53   A          0.200338       0.200338
   54   A          0.240907       0.240907
   55   A          0.268466       0.268466
   56   A          0.290163       0.290163
   57   A          0.384095       0.384095
   58   A          0.399979       0.399979
   59   A          0.415864       0.415864
   60   A          0.416836       0.416836
   61   A          0.479163       0.479163
   62   A          0.485784       0.485784
   63   A          0.508050       0.508050
   64   A          0.544757       0.544757
   65   A          0.566865       0.566865
   66   A          0.575141       0.575141
   67   A          0.592722       0.592722
   68   A          0.593908       0.593908
   69   A          0.602552       0.602552
   70   A          0.616678       0.616678
   71   A          0.619003       0.619003
   72   A          0.667698       0.667698
   73   A          0.668587       0.668587
   74   A          0.694861       0.694861
   75   A          0.776015       0.776015
   76   A          0.784461       0.784461
   77   A          0.800209       0.800209
   78   A          0.811733       0.811733
   79   A          0.814998       0.814998
   80   A          0.823856       0.823856
   81   A          0.852518       0.852518
   82   A          0.873863       0.873863
   83   A          0.910866       0.910866
   84   A          0.986307       0.986307
   85   A          1.011411       1.011411
   86   A          1.045837       1.045837
   87   A          1.071911       1.071911
   88   A          1.191686       1.191686
   89   A          2.443252       2.443252
   90   A          2.500619       2.500619
   91   A          2.553271       2.553271
   92   A          2.568734       2.568734
   93   A          2.980553       2.980553
   94   A          2.980799       2.980799
   95   A          2.982236       2.982236
   96   A          2.984817       2.984817
   97   A          2.985293       2.985293
   98   A          2.986151       2.986151
   99   A          2.986280       2.986280
  100   A          2.987242       2.987242
  101   A          2.988498       2.988498
  102   A          2.988925       2.988925
  103   A          2.990653       2.990653
  104   A          2.993143       2.993143
  105   A          3.008399       3.008399
  106   A          3.013565       3.013565
  107   A          3.015086       3.015086
  108   A          3.015968       3.015968
  109   A          3.016046       3.016046
  110   A          3.016522       3.016522
  111   A          3.017145       3.017145
  112   A          3.017387       3.017387
  113   A          3.020381       3.020381
  114   A          3.020632       3.020632
  115   A          3.022136       3.022136
  116   A          3.025614       3.025614
  117   A          3.032104       3.032104
  118   A          3.043317       3.043317
  119   A          3.054365       3.054365
  120   A          3.056376       3.056376
  121   A         56.437003      56.437003
  122   A         56.484833      56.484833
  123   A         56.521581      56.521581
  124   A         56.545728      56.545728
 
 RETURNING FROM SCF ALGORITHM
 ======================================================================

 ************************ 2023-02-18 18:07:37 *************************
 Executing integ...

 Allocation of 220.0 Gbytes of memory...
 
 
 Number of atoms:                  4
 Charge:                           0
 Number of electrons:             76
 Number of core electrons:        32
 Spin multiplicity:                1
 
                 Cartesian coordinates [bohr]      Atomic mass [AMU]  Z
   1  Ag   -4.47764742    0.00934050    0.24393522   106.905092      47
   2  Ag   -0.00538275   -2.52771923   -0.09128838   106.905092      47
   3  Ag    0.00275823    2.52508164   -0.34919278   106.905092      47
   4  Ag    4.48027194   -0.00670292    0.19654592   106.905092      47
 
 This molecule is an asymmetric top.
 
 Point group: C1  
 Computational point group: C1  
 
 Cartesian coordinates in standard orientation [bohr]
   1  Ag   -4.47888447   -0.00987180    0.22003290
   2  Ag   -0.00047925   -2.51963203   -0.22176843
   3  Ag    0.00018912    2.53975181   -0.21826861
   4  Ag    4.47917460   -0.01024798    0.22000414
 
 Nuclear repulsion energy [au]:        391.343065586760
 
 
 Basis set information:
 
 Maximum angular momentum: i
 Maximum number of contracted Gaussians:   13
 Maximum number of primitive Gaussians:    13
 Spherical harmonic GTOs are used.
 
 
 Conventional basis set:
 
   1  Ag bse_acvtz [ 13s 12p 11d 4f 3g | 8s 8p 7d 4f 3g ]
   2  Ag bse_acvtz [ 13s 12p 11d 4f 3g | 8s 8p 7d 4f 3g ]
   3  Ag bse_acvtz [ 13s 12p 11d 4f 3g | 8s 8p 7d 4f 3g ]
   4  Ag bse_acvtz [ 13s 12p 11d 4f 3g | 8s 8p 7d 4f 3g ]
 
 Basis functions:
            1             2             3             4             5             6             7             8             9            10
    0    1Ag1s         1Ag2s         1Ag3s         1Ag4s         1Ag5s         1Ag6s         1Ag7s         1Ag8s         1Ag1pz        1Ag1py    
    1    1Ag1px        1Ag2pz        1Ag2py        1Ag2px        1Ag3pz        1Ag3py        1Ag3px        1Ag4pz        1Ag4py        1Ag4px    
    2    1Ag5pz        1Ag5py        1Ag5px        1Ag6pz        1Ag6py        1Ag6px        1Ag7pz        1Ag7py        1Ag7px        1Ag8pz    
    3    1Ag8py        1Ag8px        1Ag1d-2       1Ag1d-1       1Ag1d0        1Ag1d+1       1Ag1d+2       1Ag2d-2       1Ag2d-1       1Ag2d0    
    4    1Ag2d+1       1Ag2d+2       1Ag3d-2       1Ag3d-1       1Ag3d0        1Ag3d+1       1Ag3d+2       1Ag4d-2       1Ag4d-1       1Ag4d0    
    5    1Ag4d+1       1Ag4d+2       1Ag5d-2       1Ag5d-1       1Ag5d0        1Ag5d+1       1Ag5d+2       1Ag6d-2       1Ag6d-1       1Ag6d0    
    6    1Ag6d+1       1Ag6d+2       1Ag7d-2       1Ag7d-1       1Ag7d0        1Ag7d+1       1Ag7d+2       1Ag1f-3       1Ag1f-2       1Ag1f-1   
    7    1Ag1f0        1Ag1f+1       1Ag1f+2       1Ag1f+3       1Ag2f-3       1Ag2f-2       1Ag2f-1       1Ag2f0        1Ag2f+1       1Ag2f+2   
    8    1Ag2f+3       1Ag3f-3       1Ag3f-2       1Ag3f-1       1Ag3f0        1Ag3f+1       1Ag3f+2       1Ag3f+3       1Ag4f-3       1Ag4f-2   
    9    1Ag4f-1       1Ag4f0        1Ag4f+1       1Ag4f+2       1Ag4f+3       1Ag1g-4       1Ag1g-3       1Ag1g-2       1Ag1g-1       1Ag1g0    
   10    1Ag1g+1       1Ag1g+2       1Ag1g+3       1Ag1g+4       1Ag2g-4       1Ag2g-3       1Ag2g-2       1Ag2g-1       1Ag2g0        1Ag2g+1   
   11    1Ag2g+2       1Ag2g+3       1Ag2g+4       1Ag3g-4       1Ag3g-3       1Ag3g-2       1Ag3g-1       1Ag3g0        1Ag3g+1       1Ag3g+2   
   12    1Ag3g+3       1Ag3g+4       2Ag1s         2Ag2s         2Ag3s         2Ag4s         2Ag5s         2Ag6s         2Ag7s         2Ag8s     
   13    2Ag1pz        2Ag1py        2Ag1px        2Ag2pz        2Ag2py        2Ag2px        2Ag3pz        2Ag3py        2Ag3px        2Ag4pz    
   14    2Ag4py        2Ag4px        2Ag5pz        2Ag5py        2Ag5px        2Ag6pz        2Ag6py        2Ag6px        2Ag7pz        2Ag7py    
   15    2Ag7px        2Ag8pz        2Ag8py        2Ag8px        2Ag1d-2       2Ag1d-1       2Ag1d0        2Ag1d+1       2Ag1d+2       2Ag2d-2   
   16    2Ag2d-1       2Ag2d0        2Ag2d+1       2Ag2d+2       2Ag3d-2       2Ag3d-1       2Ag3d0        2Ag3d+1       2Ag3d+2       2Ag4d-2   
   17    2Ag4d-1       2Ag4d0        2Ag4d+1       2Ag4d+2       2Ag5d-2       2Ag5d-1       2Ag5d0        2Ag5d+1       2Ag5d+2       2Ag6d-2   
   18    2Ag6d-1       2Ag6d0        2Ag6d+1       2Ag6d+2       2Ag7d-2       2Ag7d-1       2Ag7d0        2Ag7d+1       2Ag7d+2       2Ag1f-3   
   19    2Ag1f-2       2Ag1f-1       2Ag1f0        2Ag1f+1       2Ag1f+2       2Ag1f+3       2Ag2f-3       2Ag2f-2       2Ag2f-1       2Ag2f0    
   20    2Ag2f+1       2Ag2f+2       2Ag2f+3       2Ag3f-3       2Ag3f-2       2Ag3f-1       2Ag3f0        2Ag3f+1       2Ag3f+2       2Ag3f+3   
   21    2Ag4f-3       2Ag4f-2       2Ag4f-1       2Ag4f0        2Ag4f+1       2Ag4f+2       2Ag4f+3       2Ag1g-4       2Ag1g-3       2Ag1g-2   
   22    2Ag1g-1       2Ag1g0        2Ag1g+1       2Ag1g+2       2Ag1g+3       2Ag1g+4       2Ag2g-4       2Ag2g-3       2Ag2g-2       2Ag2g-1   
   23    2Ag2g0        2Ag2g+1       2Ag2g+2       2Ag2g+3       2Ag2g+4       2Ag3g-4       2Ag3g-3       2Ag3g-2       2Ag3g-1       2Ag3g0    
   24    2Ag3g+1       2Ag3g+2       2Ag3g+3       2Ag3g+4       3Ag1s         3Ag2s         3Ag3s         3Ag4s         3Ag5s         3Ag6s     
   25    3Ag7s         3Ag8s         3Ag1pz        3Ag1py        3Ag1px        3Ag2pz        3Ag2py        3Ag2px        3Ag3pz        3Ag3py    
   26    3Ag3px        3Ag4pz        3Ag4py        3Ag4px        3Ag5pz        3Ag5py        3Ag5px        3Ag6pz        3Ag6py        3Ag6px    
   27    3Ag7pz        3Ag7py        3Ag7px        3Ag8pz        3Ag8py        3Ag8px        3Ag1d-2       3Ag1d-1       3Ag1d0        3Ag1d+1   
   28    3Ag1d+2       3Ag2d-2       3Ag2d-1       3Ag2d0        3Ag2d+1       3Ag2d+2       3Ag3d-2       3Ag3d-1       3Ag3d0        3Ag3d+1   
   29    3Ag3d+2       3Ag4d-2       3Ag4d-1       3Ag4d0        3Ag4d+1       3Ag4d+2       3Ag5d-2       3Ag5d-1       3Ag5d0        3Ag5d+1   
   30    3Ag5d+2       3Ag6d-2       3Ag6d-1       3Ag6d0        3Ag6d+1       3Ag6d+2       3Ag7d-2       3Ag7d-1       3Ag7d0        3Ag7d+1   
   31    3Ag7d+2       3Ag1f-3       3Ag1f-2       3Ag1f-1       3Ag1f0        3Ag1f+1       3Ag1f+2       3Ag1f+3       3Ag2f-3       3Ag2f-2   
   32    3Ag2f-1       3Ag2f0        3Ag2f+1       3Ag2f+2       3Ag2f+3       3Ag3f-3       3Ag3f-2       3Ag3f-1       3Ag3f0        3Ag3f+1   
   33    3Ag3f+2       3Ag3f+3       3Ag4f-3       3Ag4f-2       3Ag4f-1       3Ag4f0        3Ag4f+1       3Ag4f+2       3Ag4f+3       3Ag1g-4   
   34    3Ag1g-3       3Ag1g-2       3Ag1g-1       3Ag1g0        3Ag1g+1       3Ag1g+2       3Ag1g+3       3Ag1g+4       3Ag2g-4       3Ag2g-3   
   35    3Ag2g-2       3Ag2g-1       3Ag2g0        3Ag2g+1       3Ag2g+2       3Ag2g+3       3Ag2g+4       3Ag3g-4       3Ag3g-3       3Ag3g-2   
   36    3Ag3g-1       3Ag3g0        3Ag3g+1       3Ag3g+2       3Ag3g+3       3Ag3g+4       4Ag1s         4Ag2s         4Ag3s         4Ag4s     
   37    4Ag5s         4Ag6s         4Ag7s         4Ag8s         4Ag1pz        4Ag1py        4Ag1px        4Ag2pz        4Ag2py        4Ag2px    
   38    4Ag3pz        4Ag3py        4Ag3px        4Ag4pz        4Ag4py        4Ag4px        4Ag5pz        4Ag5py        4Ag5px        4Ag6pz    
   39    4Ag6py        4Ag6px        4Ag7pz        4Ag7py        4Ag7px        4Ag8pz        4Ag8py        4Ag8px        4Ag1d-2       4Ag1d-1   
   40    4Ag1d0        4Ag1d+1       4Ag1d+2       4Ag2d-2       4Ag2d-1       4Ag2d0        4Ag2d+1       4Ag2d+2       4Ag3d-2       4Ag3d-1   
   41    4Ag3d0        4Ag3d+1       4Ag3d+2       4Ag4d-2       4Ag4d-1       4Ag4d0        4Ag4d+1       4Ag4d+2       4Ag5d-2       4Ag5d-1   
   42    4Ag5d0        4Ag5d+1       4Ag5d+2       4Ag6d-2       4Ag6d-1       4Ag6d0        4Ag6d+1       4Ag6d+2       4Ag7d-2       4Ag7d-1   
   43    4Ag7d0        4Ag7d+1       4Ag7d+2       4Ag1f-3       4Ag1f-2       4Ag1f-1       4Ag1f0        4Ag1f+1       4Ag1f+2       4Ag1f+3   
   44    4Ag2f-3       4Ag2f-2       4Ag2f-1       4Ag2f0        4Ag2f+1       4Ag2f+2       4Ag2f+3       4Ag3f-3       4Ag3f-2       4Ag3f-1   
   45    4Ag3f0        4Ag3f+1       4Ag3f+2       4Ag3f+3       4Ag4f-3       4Ag4f-2       4Ag4f-1       4Ag4f0        4Ag4f+1       4Ag4f+2   
   46    4Ag4f+3       4Ag1g-4       4Ag1g-3       4Ag1g-2       4Ag1g-1       4Ag1g0        4Ag1g+1       4Ag1g+2       4Ag1g+3       4Ag1g+4   
   47    4Ag2g-4       4Ag2g-3       4Ag2g-2       4Ag2g-1       4Ag2g0        4Ag2g+1       4Ag2g+2       4Ag2g+3       4Ag2g+4       4Ag3g-4   
   48    4Ag3g-3       4Ag3g-2       4Ag3g-1       4Ag3g0        4Ag3g+1       4Ag3g+2       4Ag3g+3       4Ag3g+4   
 
 Maximum number of basis functions per shell:   35
 Total number of basis functions:    488
 
 
 Fitting basis set for the SCF calculation:
 
   1  Ag def2-qzvpp-ri-jk [ 13s 12p 10d 9f 6g 3h 2i | 11s 10p 9d 8f 6g 3h 2i ]
   2  Ag def2-qzvpp-ri-jk [ 13s 12p 10d 9f 6g 3h 2i | 11s 10p 9d 8f 6g 3h 2i ]
   3  Ag def2-qzvpp-ri-jk [ 13s 12p 10d 9f 6g 3h 2i | 11s 10p 9d 8f 6g 3h 2i ]
   4  Ag def2-qzvpp-ri-jk [ 13s 12p 10d 9f 6g 3h 2i | 11s 10p 9d 8f 6g 3h 2i ]
 
 Basis functions:
            1             2             3             4             5             6             7             8             9            10
    0    1Ag1s         1Ag2s         1Ag3s         1Ag4s         1Ag5s         1Ag6s         1Ag7s         1Ag8s         1Ag9s         1Ag10s    
    1    1Ag11s        1Ag1pz        1Ag1py        1Ag1px        1Ag2pz        1Ag2py        1Ag2px        1Ag3pz        1Ag3py        1Ag3px    
    2    1Ag4pz        1Ag4py        1Ag4px        1Ag5pz        1Ag5py        1Ag5px        1Ag6pz        1Ag6py        1Ag6px        1Ag7pz    
    3    1Ag7py        1Ag7px        1Ag8pz        1Ag8py        1Ag8px        1Ag9pz        1Ag9py        1Ag9px        1Ag10pz       1Ag10py   
    4    1Ag10px       1Ag1d-2       1Ag1d-1       1Ag1d0        1Ag1d+1       1Ag1d+2       1Ag2d-2       1Ag2d-1       1Ag2d0        1Ag2d+1   
    5    1Ag2d+2       1Ag3d-2       1Ag3d-1       1Ag3d0        1Ag3d+1       1Ag3d+2       1Ag4d-2       1Ag4d-1       1Ag4d0        1Ag4d+1   
    6    1Ag4d+2       1Ag5d-2       1Ag5d-1       1Ag5d0        1Ag5d+1       1Ag5d+2       1Ag6d-2       1Ag6d-1       1Ag6d0        1Ag6d+1   
    7    1Ag6d+2       1Ag7d-2       1Ag7d-1       1Ag7d0        1Ag7d+1       1Ag7d+2       1Ag8d-2       1Ag8d-1       1Ag8d0        1Ag8d+1   
    8    1Ag8d+2       1Ag9d-2       1Ag9d-1       1Ag9d0        1Ag9d+1       1Ag9d+2       1Ag1f-3       1Ag1f-2       1Ag1f-1       1Ag1f0    
    9    1Ag1f+1       1Ag1f+2       1Ag1f+3       1Ag2f-3       1Ag2f-2       1Ag2f-1       1Ag2f0        1Ag2f+1       1Ag2f+2       1Ag2f+3   
   10    1Ag3f-3       1Ag3f-2       1Ag3f-1       1Ag3f0        1Ag3f+1       1Ag3f+2       1Ag3f+3       1Ag4f-3       1Ag4f-2       1Ag4f-1   
   11    1Ag4f0        1Ag4f+1       1Ag4f+2       1Ag4f+3       1Ag5f-3       1Ag5f-2       1Ag5f-1       1Ag5f0        1Ag5f+1       1Ag5f+2   
   12    1Ag5f+3       1Ag6f-3       1Ag6f-2       1Ag6f-1       1Ag6f0        1Ag6f+1       1Ag6f+2       1Ag6f+3       1Ag7f-3       1Ag7f-2   
   13    1Ag7f-1       1Ag7f0        1Ag7f+1       1Ag7f+2       1Ag7f+3       1Ag8f-3       1Ag8f-2       1Ag8f-1       1Ag8f0        1Ag8f+1   
   14    1Ag8f+2       1Ag8f+3       1Ag1g-4       1Ag1g-3       1Ag1g-2       1Ag1g-1       1Ag1g0        1Ag1g+1       1Ag1g+2       1Ag1g+3   
   15    1Ag1g+4       1Ag2g-4       1Ag2g-3       1Ag2g-2       1Ag2g-1       1Ag2g0        1Ag2g+1       1Ag2g+2       1Ag2g+3       1Ag2g+4   
   16    1Ag3g-4       1Ag3g-3       1Ag3g-2       1Ag3g-1       1Ag3g0        1Ag3g+1       1Ag3g+2       1Ag3g+3       1Ag3g+4       1Ag4g-4   
   17    1Ag4g-3       1Ag4g-2       1Ag4g-1       1Ag4g0        1Ag4g+1       1Ag4g+2       1Ag4g+3       1Ag4g+4       1Ag5g-4       1Ag5g-3   
   18    1Ag5g-2       1Ag5g-1       1Ag5g0        1Ag5g+1       1Ag5g+2       1Ag5g+3       1Ag5g+4       1Ag6g-4       1Ag6g-3       1Ag6g-2   
   19    1Ag6g-1       1Ag6g0        1Ag6g+1       1Ag6g+2       1Ag6g+3       1Ag6g+4       1Ag1h-5       1Ag1h-4       1Ag1h-3       1Ag1h-2   
   20    1Ag1h-1       1Ag1h0        1Ag1h+1       1Ag1h+2       1Ag1h+3       1Ag1h+4       1Ag1h+5       1Ag2h-5       1Ag2h-4       1Ag2h-3   
   21    1Ag2h-2       1Ag2h-1       1Ag2h0        1Ag2h+1       1Ag2h+2       1Ag2h+3       1Ag2h+4       1Ag2h+5       1Ag3h-5       1Ag3h-4   
   22    1Ag3h-3       1Ag3h-2       1Ag3h-1       1Ag3h0        1Ag3h+1       1Ag3h+2       1Ag3h+3       1Ag3h+4       1Ag3h+5       1Ag1i-6   
   23    1Ag1i-5       1Ag1i-4       1Ag1i-3       1Ag1i-2       1Ag1i-1       1Ag1i0        1Ag1i+1       1Ag1i+2       1Ag1i+3       1Ag1i+4   
   24    1Ag1i+5       1Ag1i+6       1Ag2i-6       1Ag2i-5       1Ag2i-4       1Ag2i-3       1Ag2i-2       1Ag2i-1       1Ag2i0        1Ag2i+1   
   25    1Ag2i+2       1Ag2i+3       1Ag2i+4       1Ag2i+5       1Ag2i+6       2Ag1s         2Ag2s         2Ag3s         2Ag4s         2Ag5s     
   26    2Ag6s         2Ag7s         2Ag8s         2Ag9s         2Ag10s        2Ag11s        2Ag1pz        2Ag1py        2Ag1px        2Ag2pz    
   27    2Ag2py        2Ag2px        2Ag3pz        2Ag3py        2Ag3px        2Ag4pz        2Ag4py        2Ag4px        2Ag5pz        2Ag5py    
   28    2Ag5px        2Ag6pz        2Ag6py        2Ag6px        2Ag7pz        2Ag7py        2Ag7px        2Ag8pz        2Ag8py        2Ag8px    
   29    2Ag9pz        2Ag9py        2Ag9px        2Ag10pz       2Ag10py       2Ag10px       2Ag1d-2       2Ag1d-1       2Ag1d0        2Ag1d+1   
   30    2Ag1d+2       2Ag2d-2       2Ag2d-1       2Ag2d0        2Ag2d+1       2Ag2d+2       2Ag3d-2       2Ag3d-1       2Ag3d0        2Ag3d+1   
   31    2Ag3d+2       2Ag4d-2       2Ag4d-1       2Ag4d0        2Ag4d+1       2Ag4d+2       2Ag5d-2       2Ag5d-1       2Ag5d0        2Ag5d+1   
   32    2Ag5d+2       2Ag6d-2       2Ag6d-1       2Ag6d0        2Ag6d+1       2Ag6d+2       2Ag7d-2       2Ag7d-1       2Ag7d0        2Ag7d+1   
   33    2Ag7d+2       2Ag8d-2       2Ag8d-1       2Ag8d0        2Ag8d+1       2Ag8d+2       2Ag9d-2       2Ag9d-1       2Ag9d0        2Ag9d+1   
   34    2Ag9d+2       2Ag1f-3       2Ag1f-2       2Ag1f-1       2Ag1f0        2Ag1f+1       2Ag1f+2       2Ag1f+3       2Ag2f-3       2Ag2f-2   
   35    2Ag2f-1       2Ag2f0        2Ag2f+1       2Ag2f+2       2Ag2f+3       2Ag3f-3       2Ag3f-2       2Ag3f-1       2Ag3f0        2Ag3f+1   
   36    2Ag3f+2       2Ag3f+3       2Ag4f-3       2Ag4f-2       2Ag4f-1       2Ag4f0        2Ag4f+1       2Ag4f+2       2Ag4f+3       2Ag5f-3   
   37    2Ag5f-2       2Ag5f-1       2Ag5f0        2Ag5f+1       2Ag5f+2       2Ag5f+3       2Ag6f-3       2Ag6f-2       2Ag6f-1       2Ag6f0    
   38    2Ag6f+1       2Ag6f+2       2Ag6f+3       2Ag7f-3       2Ag7f-2       2Ag7f-1       2Ag7f0        2Ag7f+1       2Ag7f+2       2Ag7f+3   
   39    2Ag8f-3       2Ag8f-2       2Ag8f-1       2Ag8f0        2Ag8f+1       2Ag8f+2       2Ag8f+3       2Ag1g-4       2Ag1g-3       2Ag1g-2   
   40    2Ag1g-1       2Ag1g0        2Ag1g+1       2Ag1g+2       2Ag1g+3       2Ag1g+4       2Ag2g-4       2Ag2g-3       2Ag2g-2       2Ag2g-1   
   41    2Ag2g0        2Ag2g+1       2Ag2g+2       2Ag2g+3       2Ag2g+4       2Ag3g-4       2Ag3g-3       2Ag3g-2       2Ag3g-1       2Ag3g0    
   42    2Ag3g+1       2Ag3g+2       2Ag3g+3       2Ag3g+4       2Ag4g-4       2Ag4g-3       2Ag4g-2       2Ag4g-1       2Ag4g0        2Ag4g+1   
   43    2Ag4g+2       2Ag4g+3       2Ag4g+4       2Ag5g-4       2Ag5g-3       2Ag5g-2       2Ag5g-1       2Ag5g0        2Ag5g+1       2Ag5g+2   
   44    2Ag5g+3       2Ag5g+4       2Ag6g-4       2Ag6g-3       2Ag6g-2       2Ag6g-1       2Ag6g0        2Ag6g+1       2Ag6g+2       2Ag6g+3   
   45    2Ag6g+4       2Ag1h-5       2Ag1h-4       2Ag1h-3       2Ag1h-2       2Ag1h-1       2Ag1h0        2Ag1h+1       2Ag1h+2       2Ag1h+3   
   46    2Ag1h+4       2Ag1h+5       2Ag2h-5       2Ag2h-4       2Ag2h-3       2Ag2h-2       2Ag2h-1       2Ag2h0        2Ag2h+1       2Ag2h+2   
   47    2Ag2h+3       2Ag2h+4       2Ag2h+5       2Ag3h-5       2Ag3h-4       2Ag3h-3       2Ag3h-2       2Ag3h-1       2Ag3h0        2Ag3h+1   
   48    2Ag3h+2       2Ag3h+3       2Ag3h+4       2Ag3h+5       2Ag1i-6       2Ag1i-5       2Ag1i-4       2Ag1i-3       2Ag1i-2       2Ag1i-1   
   49    2Ag1i0        2Ag1i+1       2Ag1i+2       2Ag1i+3       2Ag1i+4       2Ag1i+5       2Ag1i+6       2Ag2i-6       2Ag2i-5       2Ag2i-4   
   50    2Ag2i-3       2Ag2i-2       2Ag2i-1       2Ag2i0        2Ag2i+1       2Ag2i+2       2Ag2i+3       2Ag2i+4       2Ag2i+5       2Ag2i+6   
   51    3Ag1s         3Ag2s         3Ag3s         3Ag4s         3Ag5s         3Ag6s         3Ag7s         3Ag8s         3Ag9s         3Ag10s    
   52    3Ag11s        3Ag1pz        3Ag1py        3Ag1px        3Ag2pz        3Ag2py        3Ag2px        3Ag3pz        3Ag3py        3Ag3px    
   53    3Ag4pz        3Ag4py        3Ag4px        3Ag5pz        3Ag5py        3Ag5px        3Ag6pz        3Ag6py        3Ag6px        3Ag7pz    
   54    3Ag7py        3Ag7px        3Ag8pz        3Ag8py        3Ag8px        3Ag9pz        3Ag9py        3Ag9px        3Ag10pz       3Ag10py   
   55    3Ag10px       3Ag1d-2       3Ag1d-1       3Ag1d0        3Ag1d+1       3Ag1d+2       3Ag2d-2       3Ag2d-1       3Ag2d0        3Ag2d+1   
   56    3Ag2d+2       3Ag3d-2       3Ag3d-1       3Ag3d0        3Ag3d+1       3Ag3d+2       3Ag4d-2       3Ag4d-1       3Ag4d0        3Ag4d+1   
   57    3Ag4d+2       3Ag5d-2       3Ag5d-1       3Ag5d0        3Ag5d+1       3Ag5d+2       3Ag6d-2       3Ag6d-1       3Ag6d0        3Ag6d+1   
   58    3Ag6d+2       3Ag7d-2       3Ag7d-1       3Ag7d0        3Ag7d+1       3Ag7d+2       3Ag8d-2       3Ag8d-1       3Ag8d0        3Ag8d+1   
   59    3Ag8d+2       3Ag9d-2       3Ag9d-1       3Ag9d0        3Ag9d+1       3Ag9d+2       3Ag1f-3       3Ag1f-2       3Ag1f-1       3Ag1f0    
   60    3Ag1f+1       3Ag1f+2       3Ag1f+3       3Ag2f-3       3Ag2f-2       3Ag2f-1       3Ag2f0        3Ag2f+1       3Ag2f+2       3Ag2f+3   
   61    3Ag3f-3       3Ag3f-2       3Ag3f-1       3Ag3f0        3Ag3f+1       3Ag3f+2       3Ag3f+3       3Ag4f-3       3Ag4f-2       3Ag4f-1   
   62    3Ag4f0        3Ag4f+1       3Ag4f+2       3Ag4f+3       3Ag5f-3       3Ag5f-2       3Ag5f-1       3Ag5f0        3Ag5f+1       3Ag5f+2   
   63    3Ag5f+3       3Ag6f-3       3Ag6f-2       3Ag6f-1       3Ag6f0        3Ag6f+1       3Ag6f+2       3Ag6f+3       3Ag7f-3       3Ag7f-2   
   64    3Ag7f-1       3Ag7f0        3Ag7f+1       3Ag7f+2       3Ag7f+3       3Ag8f-3       3Ag8f-2       3Ag8f-1       3Ag8f0        3Ag8f+1   
   65    3Ag8f+2       3Ag8f+3       3Ag1g-4       3Ag1g-3       3Ag1g-2       3Ag1g-1       3Ag1g0        3Ag1g+1       3Ag1g+2       3Ag1g+3   
   66    3Ag1g+4       3Ag2g-4       3Ag2g-3       3Ag2g-2       3Ag2g-1       3Ag2g0        3Ag2g+1       3Ag2g+2       3Ag2g+3       3Ag2g+4   
   67    3Ag3g-4       3Ag3g-3       3Ag3g-2       3Ag3g-1       3Ag3g0        3Ag3g+1       3Ag3g+2       3Ag3g+3       3Ag3g+4       3Ag4g-4   
   68    3Ag4g-3       3Ag4g-2       3Ag4g-1       3Ag4g0        3Ag4g+1       3Ag4g+2       3Ag4g+3       3Ag4g+4       3Ag5g-4       3Ag5g-3   
   69    3Ag5g-2       3Ag5g-1       3Ag5g0        3Ag5g+1       3Ag5g+2       3Ag5g+3       3Ag5g+4       3Ag6g-4       3Ag6g-3       3Ag6g-2   
[...]
 
 T1 contribution [au]:                         0.000000000000
 CCSD correlation energy [au]:                -0.101774884863
 
 CPU time [min]:   862.298                   Wall time [min]:    28.822
 
 Calculation of (T) correction...
 
 Laplace threshold, nquadmin:  1.00E-03   4
 Number of quadrature points:    5
 
      787.14 MB memory is utilized for (T)

 0%       25%       50%       75%       100%
 |---------|---------|---------|---------| 
 
 (T) correction [au]:                   -0.004894807492
 CCSD(T) correlation energy [au]:       -0.106669692355
 
 CPU time [min]:   871.775                   Wall time [min]:    29.108
 
 MO:    36
 Number of atoms in domain:       4
 Number of atomic orbitals:     488
 Number of atoms for local DF:    4
 Number of fitting functions:  1444 (100.00%)
 Number of occupied orbitals:    34
 Number of virtual  orbitals:   450
 Number of Cholesky vectors:      9
 MP2 energy in ED [au]:          -0.112361581192
 Number of occupied LNOs:        22  (64.71%)
 Number of virtual  LNOs:       131  (29.11%)
dropped smallnorm     2     3   5.01996524E-06
 tol*100>norm                    15  2.747593699873066E-005
 tol*100>norm                    16  3.186186908798024E-005
 tol*100>norm                    17  3.301137449162123E-005
 tol*100>norm                    44  9.457617757151569E-004
dropped smallnorm   123   125   8.34401497E-06
 tol*100>norm                   137  2.593931866625930E-005
 tol*100>norm                   138  3.149704840283590E-005
 tol*100>norm                   139  1.599346921744343E-005
 tol*100>norm                   166  9.649366642582779E-004
 tol*100>norm                   168  9.935937520913899E-004
dropped smallnorm   244   247   8.02775400E-06
 tol*100>norm                   259  2.608093388714273E-005
 tol*100>norm                   260  3.170720287026880E-005
 tol*100>norm                   261  1.581776925404896E-005
 tol*100>norm                   288  9.610427629464028E-004
 tol*100>norm                   290  9.736885164579799E-004
 tol*100>norm                   410  9.457512616646974E-004
 small norm                    14  2.747593699873065E-005
 small norm                    15  3.186186908798025E-005
 small norm                    16  3.301137449162127E-005
 small norm                   135  2.593931866625931E-005
 small norm                   136  3.149704840283592E-005
 small norm                   137  1.599346921744342E-005
 small norm                   256  2.608093388714274E-005
 small norm                   257  3.170720287026873E-005
 small norm                   258  1.581776925404895E-005
 Number of Cholesky vectors:      8
 MP2 energy in LIS [au]:         -0.112048105679
 Correction for frozen LNO [au]: -0.000313475513     (0.279%)
 Number of NAFs:                474  (32.83%)
 CPU time [min]:   883.023                   Wall time [min]:    29.494
 

 Direct DF-CCSD(T) calculation
 
 Convergence criterion:  1.0E-05
 
 Number of occupied/virtual/auxiliary orbitals:    22   131   474
    454.29 MB is the minimal memory requirement for (T)
    254.39 MB is the minimal memory requirement for CCSD
 
 MP2 correlation energy [au]:       -1.374120147784
 
 LMP2 domain correlation energy contribution [au]:       -0.112042373817
 
 CPU time [min]:   883.240                   Wall time [min]:    29.507
 
 
 Starting CCSD iterations...
 
                     Residual norm       Correlation Energy
 Iteration  1        0.340306981939       -1.252019581030
 Iteration  2        0.102933435989       -1.293799828085
 Iteration  3        0.029788521156       -1.300473332880
 Iteration  4        0.014635953244       -1.297954175324
 Iteration  5        0.005826061525       -1.297028104308
 Iteration  6        0.002596408746       -1.297397343020
 Iteration  7        0.001191460536       -1.297569241854
 Iteration  8        0.000521832660       -1.297517948048
 Iteration  9        0.000277778906       -1.297504885633
 Iteration 10        0.000138872461       -1.297513925619
 Iteration 11        0.000090333057       -1.297513805180
 
 CCSD iteration has converged in 11 steps.
     1358.75 MB memory was utilized by CCSD
 
 T1 diagnostic:      2.298E-02            D1 diagnostic:      1.217E-01
 
 T1 contribution [au]:                         0.000000000000
 CCSD correlation energy [au]:                -0.101775358276
 
 CPU time [min]:   893.233                   Wall time [min]:    29.856
 
 Calculation of (T) correction...
 
 Laplace threshold, nquadmin:  1.00E-03   4
 Number of quadrature points:    5
 
      787.14 MB memory is utilized for (T)

 0%       25%       50%       75%       100%
 |---------|---------|---------|---------| 
 
 (T) correction [au]:                   -0.004894835328
 CCSD(T) correlation energy [au]:       -0.106670193604
 
 CPU time [min]:   902.714                   Wall time [min]:    30.144
 
 MO:    37
 Number of atoms in domain:       4
 Number of atomic orbitals:     488
 Number of atoms for local DF:    4
 Number of fitting functions:  1444 (100.00%)
 Number of occupied orbitals:    38
 Number of virtual  orbitals:   450
 Number of Cholesky vectors:      9
 MP2 energy in ED [au]:          -0.085339681247
 Number of occupied LNOs:        37  (97.37%)
 Number of virtual  LNOs:       262  (58.22%)
dropped smallnorm     2     3   5.01796202E-06
 tol*100>norm                    15  2.747591204390355E-005
 tol*100>norm                    16  3.186183814121417E-005
 tol*100>norm                    17  3.301059634019985E-005
 tol*100>norm                    44  9.457190715586051E-004
dropped smallnorm   123   125   7.38765953E-06
 tol*100>norm                   137  2.593597823088583E-005
 tol*100>norm                   138  3.095112215051566E-005
 tol*100>norm                   139  1.496241703181558E-005
 tol*100>norm                   166  9.499268568156573E-004
 tol*100>norm                   168  9.466413232249093E-004
dropped smallnorm   244   247   7.42917402E-06
 tol*100>norm                   259  2.597614448965796E-005
 tol*100>norm                   260  3.093024344934242E-005
 tol*100>norm                   261  1.485455913691363E-005
 tol*100>norm                   288  9.464625043416916E-004
 tol*100>norm                   290  9.294367662108468E-004
dropped smallnorm   365   369   5.01826010E-06
 tol*100>norm                   381  2.747441642281869E-005
 tol*100>norm                   382  3.185523349043714E-005
 tol*100>norm                   383  3.300390222983392E-005
 tol*100>norm                   410  9.456058251483179E-004
 small norm                    14  2.747591204390356E-005
 small norm                    15  3.186183814121416E-005
 small norm                    16  3.301059634019981E-005
 small norm                   135  2.593597823088582E-005
 small norm                   136  3.095112215051563E-005
 small norm                   137  1.496241703181558E-005
 small norm                   256  2.597614448965797E-005
 small norm                   257  3.093024344934239E-005
 small norm                   258  1.485455913691360E-005
 small norm                   377  2.747441642281868E-005
 small norm                   378  3.185523349043716E-005
 small norm                   379  3.300390222983390E-005
 Number of Cholesky vectors:      8
 MP2 energy in LIS [au]:         -0.084892186482
 Correction for frozen LNO [au]: -0.000447494765     (0.524%)
 Number of NAFs:                900  (62.33%)
 CPU time [min]:   919.828                   Wall time [min]:    30.802
 

 Direct DF-CCSD(T) calculation
 
 Convergence criterion:  1.0E-05
 
 Number of occupied/virtual/auxiliary orbitals:    37   262   900
   3678.99 MB is the minimal memory requirement for (T)
   2007.83 MB is the minimal memory requirement for CCSD
 
 MP2 correlation energy [au]:       -2.802267824739
 
 LMP2 domain correlation energy contribution [au]:       -0.084889334809
 
 CPU time [min]:   920.719                   Wall time [min]:    30.960
 
 
 Starting CCSD iterations...
 
                     Residual norm       Correlation Energy
 Iteration  1        0.507690217397       -2.518977376118
 Iteration  2        0.170590643727       -2.603594606323
 Iteration  3        0.038647129993       -2.619600784494
 Iteration  4        0.017779345864       -2.616234282800
 Iteration  5        0.006640142490       -2.614129530211
 Iteration  6        0.003178203090       -2.614164964342
 Iteration  7        0.001547496605       -2.614548722651
 Iteration  8        0.000764034291       -2.614536578400
 Iteration  9        0.000330279683       -2.614502804869
 Iteration 10        0.000172649461       -2.614511774932
 Iteration 11        0.000078090001       -2.614512174036
 
 CCSD iteration has converged in 11 steps.
    19939.39 MB memory was utilized by CCSD
 
 T1 diagnostic:      1.762E-02            D1 diagnostic:      8.458E-02
 
 T1 contribution [au]:                         0.000000000000
 CCSD correlation energy [au]:                -0.076422749119
 
 CPU time [min]:  1091.689                   Wall time [min]:    37.478
 
 Calculation of (T) correction...
 
 Laplace threshold, nquadmin:  1.00E-03   4
 Number of quadrature points:    5
 
     8649.62 MB memory is utilized for (T)

 0%       25%       50%       75%       100%
 |---------|---------|---------|---------| 
 
 (T) correction [au]:                   -0.007444792484
 CCSD(T) correlation energy [au]:       -0.083867541603
 
 CPU time [min]:  1411.013                   Wall time [min]:    47.046
 
 MO:    38
 Number of atoms in domain:       4
 Number of atomic orbitals:     488
 Number of atoms for local DF:    4
 Number of fitting functions:  1444 (100.00%)
 Number of occupied orbitals:    38
 Number of virtual  orbitals:   450
 Number of Cholesky vectors:      9
 MP2 energy in ED [au]:          -0.085332785335
 Number of occupied LNOs:        37  (97.37%)
 Number of virtual  LNOs:       262  (58.22%)
dropped smallnorm     2     3   5.01796202E-06
 tol*100>norm                    15  2.747591204390354E-005
 tol*100>norm                    16  3.186183814121415E-005
 tol*100>norm                    17  3.301059634019989E-005
 tol*100>norm                    44  9.457190715586054E-004
dropped smallnorm   123   125   7.38765953E-06
 tol*100>norm                   137  2.593597823088584E-005
 tol*100>norm                   138  3.095112215051566E-005
 tol*100>norm                   139  1.496241703181558E-005
 tol*100>norm                   166  9.499268568156581E-004
 tol*100>norm                   168  9.466413232249089E-004
dropped smallnorm   244   247   7.42917402E-06
 tol*100>norm                   259  2.597614448965796E-005
 tol*100>norm                   260  3.093024344934246E-005
 tol*100>norm                   261  1.485455913691365E-005
 tol*100>norm                   288  9.464625043416915E-004
 tol*100>norm                   290  9.294367662108466E-004
dropped smallnorm   365   369   5.01826010E-06
 tol*100>norm                   381  2.747441642281869E-005
 tol*100>norm                   382  3.185523349043715E-005
 tol*100>norm                   383  3.300390222983391E-005
 tol*100>norm                   410  9.456058251483179E-004
 small norm                    14  2.747591204390357E-005
 small norm                    15  3.186183814121412E-005
 small norm                    16  3.301059634019986E-005
 small norm                   135  2.593597823088584E-005
 small norm                   136  3.095112215051564E-005
 small norm                   137  1.496241703181558E-005
 small norm                   256  2.597614448965796E-005
 small norm                   257  3.093024344934239E-005
 small norm                   258  1.485455913691362E-005
 small norm                   377  2.747441642281869E-005
 small norm                   378  3.185523349043718E-005
 small norm                   379  3.300390222983388E-005
 Number of Cholesky vectors:      8
 MP2 energy in LIS [au]:         -0.084885359967
 Correction for frozen LNO [au]: -0.000447425368     (0.524%)
 Number of NAFs:                900  (62.33%)
 CPU time [min]:  1428.079                   Wall time [min]:    47.703
 

 Direct DF-CCSD(T) calculation
 
 Convergence criterion:  1.0E-05
 
 Number of occupied/virtual/auxiliary orbitals:    37   262   900
   3678.99 MB is the minimal memory requirement for (T)
   2007.83 MB is the minimal memory requirement for CCSD
 
 MP2 correlation energy [au]:       -2.802254489802
 
 LMP2 domain correlation energy contribution [au]:       -0.084882510081
 
 CPU time [min]:  1428.977                   Wall time [min]:    47.861
 
 
 Starting CCSD iterations...
 
                     Residual norm       Correlation Energy
 Iteration  1        0.507739520948       -2.518964483787
 Iteration  2        0.170616907669       -2.603581589808
 Iteration  3        0.038651428144       -2.619587663767
 Iteration  4        0.017780555553       -2.616221068919
 Iteration  5        0.006640915364       -2.614116409170
 Iteration  6        0.003178466164       -2.614151942873
 Iteration  7        0.001547736966       -2.614535674484
 Iteration  8        0.000764152337       -2.614523508975
 Iteration  9        0.000330367212       -2.614489736974
 Iteration 10        0.000172682822       -2.614498713419
 Iteration 11        0.000078117739       -2.614499112315
 
 CCSD iteration has converged in 11 steps.
    19939.39 MB memory was utilized by CCSD
 
 T1 diagnostic:      1.762E-02            D1 diagnostic:      8.458E-02
 
 T1 contribution [au]:                         0.000000000000
 CCSD correlation energy [au]:                -0.076417877593
 
 CPU time [min]:  1599.959                   Wall time [min]:    54.373
 
 Calculation of (T) correction...
 
 Laplace threshold, nquadmin:  1.00E-03   4
 Number of quadrature points:    5
 
     8649.62 MB memory is utilized for (T)

 0%       25%       50%       75%       100%
 |---------|---------|---------|---------| 
 
 (T) correction [au]:                   -0.007444539552
 CCSD(T) correlation energy [au]:       -0.083862417145
 
 CPU time [min]:  1919.381                   Wall time [min]:    63.961
 
 **********************************************************************
 Dimensions of the extended domains:    Minimum / Average / Maximum
 
 Number of atoms in domain:                   4       4.0         4
 Number of atomic orbitals:                 488     488.0       488
 Number of fitting functions:              1444    1444.0      1444
 Number of occupied localized MOs:           21      30.8        38
 Number of PAOs:                            450     450.0       450
 Number of occupied LNOs:                    10      18.9        37
 Number of virtual  LNOs:                    73     115.9       262
 Number of NAFs:                            261     418.8       900
 
 **********************************************************************
 Distant (and weak) pair contributions, corrections
 
 Sum of pair energies [au]:                    -0.000042974201    (0.001%)
 Sum of energy corrections [au]:               -0.010066627603    (0.304%)
 Pair energies + LNO corrections [au]:         -0.010109601804
 Sum of LMP2 contributions [au]:               -3.310158026097
 
 **********************************************************************
  Time of manipulations in the EDs:      max CPU/Wall [s]  all CPU/Wall [min]
 
 PD construction & multipole pair E     183.78     5.36     3.06     0.09
 Construct MO basis of the ED             3.67     0.10     1.92     0.05
 (mu,nu|P) evaluation & trf 2 (ai|P)    182.34     5.08   101.31     2.82
 Evaluate MP2 energy of the ED           18.79     0.52     9.50     0.26
 Transformations to the LNO basis        14.43     0.40     5.00     0.14
 Build W_PQ (Jai or Jpi part)             2.02     0.06     0.71     0.02
 Evaluate MP2 energy of the LIS           4.60     0.13     0.45     0.01
 (mu,nu|P) evaluation & trf 2 J(abQ)    774.72    31.82   262.16    10.14
 Total of the above for all EDs        1000.56    38.11   381.06    13.45
 
 **********************************************************************
 Maximum memory requirement [MB]:       
 
 PD construction & multipole pair E         19.6
 AO integral evaluation in the EDs        2959.4
 (mu,nu|P) evaluation & trf 2 (aI|P)      3812.8
 Evaluate MP2 energy in the EDs            502.1
 Transformation to the LNO basis           424.0
 (mu,nu|P) to Jab transformation          3249.9
 Evaluate MP2 energy in the LIS            459.7
 Minimum requirement for LIS CCSD         2007.8
 Actually allocated  for LIS CCSD        19939.4
 Minimum requirement for LIS (T)          3679.1
 Actually allocated  for LIS (T)          8649.6
 
 ======================================================================
 ======================================================================
 
 
 
 ======================================================================
 ======================================================================
 
 Final local CC results:
 
 Minimum number of correlated electrons:        20       ( 26.3%)
 Maximum number of correlated electrons:        74       ( 97.4%)
 Average number of correlated electrons:        37.9     ( 49.9%)
 Minimum number of correlated orbitals:         84       ( 17.2%)
 Maximum number of correlated orbitals:        299       ( 61.3%)
 Average number of correlated orbitals:        134.9     ( 27.6%)
 
 CPU time for integral calculations [min]:                  8.769
 Wall time for integral calculations [min]:                 0.720
 
 CPU time for SCF calculation [min]:                       15.975
 Wall time for SCF calculation [min]:                       0.468
 
 CPU time for orbital localization [min]:                   0.182
 Wall time for orbital localization [min]:                  0.025
 
 CPU time for integral transformations [min]:             393.678
 Wall time for integral transformations [min]:             13.836
 
 Reference energy [au]:                                  -584.261123170988
 
 LMP2 correlation energy [au]:                             -3.310158026097
 Total LMP2 energy [au]:                                 -587.571281197086
 
 Total MP2 correction for dropped NAFs [au]:               -0.000152707393
 Total MP2 correction [au]:                                -0.010262309197
 
 CPU time for CCSD calculations [min]:                    594.274
 Total CPU time for CCSD [min]:                          1012.878
 Wall time for CCSD calculations [min]:                    22.224
 Total wall time for CCSD [min]:                           37.273
 
 CCSD correlation energy [au]:                             -3.103624518639
 Total CCSD energy [au]:                                 -587.364747689627
 CCSD correlation energy + 0.5 MP2 corrections [au]:       -3.108755673238
 Total LNO-CCSD energy with MP2 corrections [au]:        -587.369878844226
 
 CPU time for (T) corrections [min]:                      931.449
 Total CPU time for CCSD(T) [min]:                       1944.326
 Wall time for (T) corrections [min]:                      27.902
 Total wall time for CCSD(T) [min]:                        65.175
 
 Total (T) correlation energy contribution [au]:           -0.126402858960
 Total (T) correlation energy+0.5 MP2 correction [au]:     -0.131534013558
 CCSD(T) correlation energy [au]:                          -3.230027377599
 Total CCSD(T) energy [au]:                              -587.491150548587
 CCSD(T) correlation energy + MP2 corrections [au]:        -3.240289686796
 Total LNO-CCSD(T) energy with MP2 corrections [au]:     -587.501412857784
 
 ======================================================================
 ======================================================================
 
 ************************ 2023-02-18 19:12:49 *************************
                      Normal termination of mrcc.
 **********************************************************************
