 **********************************************************************
                          MRCC program system
 **********************************************************************
 
                              Written by
     Mihaly Kallay, Peter R. Nagy, David Mester, Laszlo Gyevi-Nagy,
        Jozsef Csoka, P. Bernat Szabo, Zoltan Rolik, Gyula Samu,
     Jozsef Csontos, Bence Hegely, Adam Ganyecz, Istvan Ladjanszki,
       Lorant Szegedy, Bence Ladoczki, Klara Petrov, Mate Farkas,
                    Pal D. Mezei, and Reka A. Horvath
 
        Department of Physical Chemistry and Materials Science
            Budapest University of Technology and Economics
                  Budapest P.O.Box 91, H-1521 Hungary
 
                              www.mrcc.hu
 
                      Release date: March 18, 2022

 ************************ 2022-08-31 16:47:35 *************************
 Executing minp...

 Reading input from MINP...
 
 Input file:
 
calc=LNO-CCSD(T)
scftype=rhf
verbosity=3
mem=190GB
symm=off
unit=angs
scfiguess=small
scfmaxit=1000
scfalg=locfit1


lcorthr=tight
ccmaxit=400
usedisk=0
ccsdalg=dfdirect
ccsdthreads=4
ccsdmkl=thr
ptthreads=4

charge=0
core=8

basis=special
aug-cc-pVDZ-PP
aug-cc-pVDZ-PP
aug-cc-pVDZ
cc-pVDZ
cc-pVDZ
cc-pVDZ
cc-pVDZ
aug-cc-pVDZ
aug-cc-pVDZ
aug-cc-pVDZ
aug-cc-pVDZ
aug-cc-pVDZ
aug-cc-pVDZ
aug-cc-pVDZ
aug-cc-pVDZ
aug-cc-pVDZ
aug-cc-pVDZ
aug-cc-pVDZ
aug-cc-pVDZ

basis_sm=special
def2-SVP
def2-SVP
def2-SVP
def2-SVP
def2-SVP
def2-SVP
def2-SVP
def2-SVP
def2-SVP
def2-SVP
def2-SVP
def2-SVP
def2-SVP
def2-SVP
def2-SVP
def2-SVP
def2-SVP
def2-SVP
def2-SVP

dfbasis_scf=special
def2-QZVPP-RI-JK
def2-QZVPP-RI-JK
def2-QZVPP-RI-JK
def2-QZVPP-RI-JK
def2-QZVPP-RI-JK
def2-QZVPP-RI-JK
def2-QZVPP-RI-JK
def2-QZVPP-RI-JK
def2-QZVPP-RI-JK
def2-QZVPP-RI-JK
def2-QZVPP-RI-JK
def2-QZVPP-RI-JK
def2-QZVPP-RI-JK
def2-QZVPP-RI-JK
def2-QZVPP-RI-JK
def2-QZVPP-RI-JK
def2-QZVPP-RI-JK
def2-QZVPP-RI-JK
def2-QZVPP-RI-JK

dfbasis_cor=special
aug-cc-pVDZ-PP-RI
aug-cc-pVDZ-PP-RI
aug-cc-pVDZ-RI
cc-pVDZ-RI
cc-pVDZ-RI
cc-pVDZ-RI
cc-pVDZ-RI
aug-cc-pVDZ-RI
aug-cc-pVDZ-RI
aug-cc-pVDZ-RI
aug-cc-pVDZ-RI
aug-cc-pVDZ-RI
aug-cc-pVDZ-RI
aug-cc-pVDZ-RI
aug-cc-pVDZ-RI
aug-cc-pVDZ-RI
aug-cc-pVDZ-RI
aug-cc-pVDZ-RI
aug-cc-pVDZ-RI

ecp=special
MCDHF-ECP-60
MCDHF-ECP-60
none
none
none
none
none
none
none
none
none
none
none
none
none
none
none
none
none

unit=angs
geom=xyz
19
Au2 Mg4 O13 ECP33
Au    0.90300929467   -0.90300929566    2.55913745879
Au   -0.90300929467    0.90300929368    2.55913745879
O     0.00000000000    0.00000000000    0.00000000000
Mg   -2.11388582115    0.00000000000    0.00000000000
Mg    0.00000000000    2.11388582115    0.00000000000
Mg    2.11388582115    0.00000000000    0.00000000000
Mg    0.00000000000   -2.11388582115    0.00000000000
O    -2.11388582115    2.11388582115    0.00000000000
O     2.11388582115    2.11388582115    0.00000000000
O     2.11388582115   -2.11388582115    0.00000000000
O    -2.11388582115   -2.11388582115    0.00000000000
O    -2.11388582115    0.00000000000   -2.11388582115
O     0.00000000000    2.11388582115   -2.11388582115
O     2.11388582115    0.00000000000   -2.11388582115
O     0.00000000000   -2.11388582115   -2.11388582115
O    -4.22777164231    0.00000000000    0.00000000000
O     0.00000000000    4.22777164231    0.00000000000
O     4.22777164231    0.00000000000    0.00000000000
O     0.00000000000   -4.22777164231    0.00000000000

ghost=serialno
3-19

 
 
 Checking keyword combinations...
 
 Keywords:
 
 active=none
 agrid=ld0006-ld0590
 agrid_pssp=ld0006-ld0194
 agrid_pssp_sm=ld0006-ld0074
 basis=special
 basis_sm=special
 basopt=off
 bfbasis=none
 bfgsmem=10
 bfgstol=1.0d-3
 bpcompo=0.985
 bpcompv=0.98
 bpdfo=0.985
 bpocc=0.99995d0
 bppdo=0.999d0
 bppdv=0.98
 bpedo=0.99995d0
 bpedv=0.995d0
 calc=ccsd(t)
 ccmaxit=400
 ccprog=ccsd
 ccsdalg=dfdirect
 ccsdmkl=thr
 ccsdrest=off
 ccsdthreads=4
 cctol=5
 charge=0
 cialg=direct
 ciguess=off
 cmpgrp=auto
 comprest=off
 core=8
 corembed=off
 csapprox=off
 cvs=off
 dboc=off
 delocsomofact=
 dendec=cholesky
 dens=0
 dfalg=lineq
 dfbasis_cab=none
 dfbasis_cor=special
 dfbasis_scf=special
 dfbasis_scf_sm=special
 dfintran=drpa
 dft=off
 dhexc=adc(2)
 diag=david
 docc=
 domrad=10.d0
 drpaalg=auto
 dual=off
 dual_df=off
 ecp=special
 edisp=off
 edisp_embed=off
 embed=off
 etemp=300
 epert=none
 eps=
 espcharge=off
 excrad=1.0
 excrad_fin=0.100000000D-02
 fitting=coulomb
 fmm=off
 fmmord=8
 freq=off
 gamma=1.d0
 gauss=spher
 geom=xyz
 gopt=off
 ghost=serialno
 gtol=7
 grdens=off
 gridbatch_cos=2000
 grtol=10
 guido_ct=off
 hamilton=dc
 iface=none
 intalg=auto
 itol=10
 laptol=1.d-3
 lccoporder=lccfirst
 lcorthr=tight
 lccrest=off
 lmp2dens=on
 lnoepso=3e-6
 lnoepsv=3e-7
 boysalg=jacobi
 localcc=2021
 localcorrsymm=off
 locintrf=direct
 mact=
 maxact=off
 maxdim=100
 maxex=0
 maxmicroit=100
 mcscfiguess=hf
 mem=190gb
 mmprog=
 molden=on
 mpitasks=1
 mulmet=3
 mult=
 nacto=0
 nactv=0
 naf_amp=1.d-2
 naf_cor=1e-2
 naf_scf=off
 nafalg=albe
 naftyp=jpq
 nchol=auto
 ndeps=1e-3
 nstate=1
 nsing=0
 nto=off
 ntrip=0
 occ=
 occri=off
 oniom=off
 oniom_eechg=off
 oniom_pcm=off
 oniom_qcorr=off
 optalg=
 optmaxit=50
 optetol=1e-6
 optex=0
 optgtol=1e-4
 optstol=1e-3
 orblocc=off
 orbloce=off
 orbloco=boys
 orblocv=pao
 orblocguess=cholesky
 osveps=-1.d0
 ovirt=off
 ovltol=1e-7
 ovosnorb=80.0
 pcm=off
 popul=off
 pressure=100000
 pssp=off
 ptfreq=0.0
 ptthreads=4
 qro=off
 qscf=off
 qmmm=off
 redcost_exc=off
 redcost_tddft=0.985d0
 refdet=none
 rest=0
 rgrid=log3
 rism=off
 rohfcore=standard
 rohftype=semicanonical
 scfalg=locfit1
 scf_conv=difficult
 scfdamp=0.0d0
 scfdamp_mode=off
 scfdamp_end=1000
 scfdamp_dampstep=0.d0
 scfdamp_dtol=0.0d0
 scfdamp_maxfact=0.0d0
 scfdamp_minfact=0.0d0
 scfdiis=on
 scfdiis_dtol=0.0d0
 scfdiis_end=1000
 scfdiis_start=2
 scfdiis_step=1
 scfdiis_watch=off
 scfdiis_wrange=10
 scfdiis_wlimit=5
 scfdiis_delmax=2
 scfdtol=7
 scfext=10
 scfguessdens=
 scfiguess=small
 scfloc=pm
 scflshift=0.20
 scflshift_end=8
 scflshift_dtol=0.0
 scflshift_gaptol=0.20
 scfmaxit=1000
 scftype=rhf
 scftol=6
 scspe=1.d0
 scsph=1.d0
 scsps=1.2d0
 scsps_t=1.2d0
 scspt=0.33333333333333
 scspt_t=0.33333333333333
 scspv=1.d0
 spairtol=-1.d0
 sqmprog=
 subminp=top
 symm=0
 talg=lapl
 temp=298.15
 test=off
 theodore=off
 tlmo=0.999
 tpao=0.94
 tprint=off
 uncontract=off
 unit=angs
 usedisk=0
 verbosity=3
 wpairtol=3.d-6
 
 Calculating integrals for small-basis SCF...

 ************************ 2022-08-31 16:47:37 *************************
 Executing integ...

 Allocation of 190.0 Gbytes of memory...
 
 
 Number of atoms:                 19
 Charge:                           0
 Number of electrons:             38
 Number of core electrons:        16
 Spin multiplicity:                1
 
                 Cartesian coordinates [bohr]      Atomic mass [AMU]  Z
   1  Au    1.70644026   -1.70644026    4.83606891   196.966543      79
   2  Au   -1.70644026    1.70644025    4.83606891   196.966543      79
   3  O     0.00000000    0.00000000    0.00000000     0.000000       0
   4  Mg   -3.99466526    0.00000000    0.00000000     0.000000       0
   5  Mg    0.00000000    3.99466526    0.00000000     0.000000       0
   6  Mg    3.99466526    0.00000000    0.00000000     0.000000       0
   7  Mg    0.00000000   -3.99466526    0.00000000     0.000000       0
   8  O    -3.99466526    3.99466526    0.00000000     0.000000       0
   9  O     3.99466526    3.99466526    0.00000000     0.000000       0
  10  O     3.99466526   -3.99466526    0.00000000     0.000000       0
  11  O    -3.99466526   -3.99466526    0.00000000     0.000000       0
  12  O    -3.99466526    0.00000000   -3.99466526     0.000000       0
  13  O     0.00000000    3.99466526   -3.99466526     0.000000       0
  14  O     3.99466526    0.00000000   -3.99466526     0.000000       0
  15  O     0.00000000   -3.99466526   -3.99466526     0.000000       0
  16  O    -7.98933052    0.00000000    0.00000000     0.000000       0
  17  O     0.00000000    7.98933052    0.00000000     0.000000       0
  18  O     7.98933052    0.00000000    0.00000000     0.000000       0
  19  O     0.00000000   -7.98933052    0.00000000     0.000000       0
 
 This molecule is an asymmetric top.
 
 Point group: C2v 
 Computational point group: C1  
 
 Cartesian coordinates in standard orientation [bohr]
   1  Au    2.41327095    0.40656373    0.00000000
   2  Au   -2.41327095    0.40656373    0.00000000
   3  O    -0.00000000   -4.42950519   -0.00000000
   4  Mg   -2.82465490   -4.42950518   -2.82465490
   5  Mg   -2.82465490   -4.42950519    2.82465490
   6  Mg    2.82465489   -4.42950519    2.82465490
   7  Mg    2.82465489   -4.42950519   -2.82465490
   8  O    -5.64930979   -4.42950519   -0.00000000
   9  O    -0.00000000   -4.42950519    5.64930979
  10  O     5.64930979   -4.42950519   -0.00000000
  11  O    -0.00000000   -4.42950518   -5.64930979
  12  O    -2.82465490   -8.42417045   -2.82465490
  13  O    -2.82465490   -8.42417045    2.82465489
  14  O     2.82465489   -8.42417045    2.82465489
  15  O     2.82465489   -8.42417045   -2.82465490
  16  O    -5.64930979   -4.42950518   -5.64930979
  17  O    -5.64930979   -4.42950519    5.64930979
  18  O     5.64930979   -4.42950519    5.64930979
  19  O     5.64930979   -4.42950518   -5.64930979
 
 Nuclear repulsion energy [au]:         74.794750991223
 
 
 Basis set information:
 
 Maximum angular momentum: i
 Maximum number of contracted Gaussians:   13
 Maximum number of primitive Gaussians:    16
 Spherical harmonic GTOs are used.
 
 
 Conventional basis set:
 
   1  Au def2-svp [ 7s 6p 5d 1f | 6s 3p 2d 1f ]
   2  Au def2-svp [ 7s 6p 5d 1f | 6s 3p 2d 1f ]
   3  O  def2-svp [ 7s 4p 1d | 3s 2p 1d ]
   4  Mg def2-svp [ 10s 7p 1d | 4s 3p 1d ]
   5  Mg def2-svp [ 10s 7p 1d | 4s 3p 1d ]
   6  Mg def2-svp [ 10s 7p 1d | 4s 3p 1d ]
   7  Mg def2-svp [ 10s 7p 1d | 4s 3p 1d ]
   8  O  def2-svp [ 7s 4p 1d | 3s 2p 1d ]
   9  O  def2-svp [ 7s 4p 1d | 3s 2p 1d ]
  10  O  def2-svp [ 7s 4p 1d | 3s 2p 1d ]
  11  O  def2-svp [ 7s 4p 1d | 3s 2p 1d ]
  12  O  def2-svp [ 7s 4p 1d | 3s 2p 1d ]
  13  O  def2-svp [ 7s 4p 1d | 3s 2p 1d ]
  14  O  def2-svp [ 7s 4p 1d | 3s 2p 1d ]
  15  O  def2-svp [ 7s 4p 1d | 3s 2p 1d ]
  16  O  def2-svp [ 7s 4p 1d | 3s 2p 1d ]
  17  O  def2-svp [ 7s 4p 1d | 3s 2p 1d ]
  18  O  def2-svp [ 7s 4p 1d | 3s 2p 1d ]
  19  O  def2-svp [ 7s 4p 1d | 3s 2p 1d ]
 
 Basis functions:
            1             2             3             4             5             6             7             8             9            10
    0    1Au1s         1Au2s         1Au3s         1Au4s         1Au5s         1Au6s         1Au1pz        1Au1py        1Au1px        1Au2pz    
    1    1Au2py        1Au2px        1Au3pz        1Au3py        1Au3px        1Au1d-2       1Au1d-1       1Au1d0        1Au1d+1       1Au1d+2   
    2    1Au2d-2       1Au2d-1       1Au2d0        1Au2d+1       1Au2d+2       1Au1f-3       1Au1f-2       1Au1f-1       1Au1f0        1Au1f+1   
    3    1Au1f+2       1Au1f+3       2Au1s         2Au2s         2Au3s         2Au4s         2Au5s         2Au6s         2Au1pz        2Au1py    
    4    2Au1px        2Au2pz        2Au2py        2Au2px        2Au3pz        2Au3py        2Au3px        2Au1d-2       2Au1d-1       2Au1d0    
    5    2Au1d+1       2Au1d+2       2Au2d-2       2Au2d-1       2Au2d0        2Au2d+1       2Au2d+2       2Au1f-3       2Au1f-2       2Au1f-1   
    6    2Au1f0        2Au1f+1       2Au1f+2       2Au1f+3       3O1s          3O2s          3O3s          3O1pz         3O1py         3O1px     
    7    3O2pz         3O2py         3O2px         3O1d-2        3O1d-1        3O1d0         3O1d+1        3O1d+2        4Mg1s         4Mg2s     
    8    4Mg3s         4Mg4s         4Mg1pz        4Mg1py        4Mg1px        4Mg2pz        4Mg2py        4Mg2px        4Mg3pz        4Mg3py    
    9    4Mg3px        4Mg1d-2       4Mg1d-1       4Mg1d0        4Mg1d+1       4Mg1d+2       5Mg1s         5Mg2s         5Mg3s         5Mg4s     
   10    5Mg1pz        5Mg1py        5Mg1px        5Mg2pz        5Mg2py        5Mg2px        5Mg3pz        5Mg3py        5Mg3px        5Mg1d-2   
   11    5Mg1d-1       5Mg1d0        5Mg1d+1       5Mg1d+2       6Mg1s         6Mg2s         6Mg3s         6Mg4s         6Mg1pz        6Mg1py    
   12    6Mg1px        6Mg2pz        6Mg2py        6Mg2px        6Mg3pz        6Mg3py        6Mg3px        6Mg1d-2       6Mg1d-1       6Mg1d0    
   13    6Mg1d+1       6Mg1d+2       7Mg1s         7Mg2s         7Mg3s         7Mg4s         7Mg1pz        7Mg1py        7Mg1px        7Mg2pz    
   14    7Mg2py        7Mg2px        7Mg3pz        7Mg3py        7Mg3px        7Mg1d-2       7Mg1d-1       7Mg1d0        7Mg1d+1       7Mg1d+2   
   15    8O1s          8O2s          8O3s          8O1pz         8O1py         8O1px         8O2pz         8O2py         8O2px         8O1d-2    
   16    8O1d-1        8O1d0         8O1d+1        8O1d+2        9O1s          9O2s          9O3s          9O1pz         9O1py         9O1px     
   17    9O2pz         9O2py         9O2px         9O1d-2        9O1d-1        9O1d0         9O1d+1        9O1d+2       10O1s         10O2s      
   18   10O3s         10O1pz        10O1py        10O1px        10O2pz        10O2py        10O2px        10O1d-2       10O1d-1       10O1d0     
   19   10O1d+1       10O1d+2       11O1s         11O2s         11O3s         11O1pz        11O1py        11O1px        11O2pz        11O2py     
   20   11O2px        11O1d-2       11O1d-1       11O1d0        11O1d+1       11O1d+2       12O1s         12O2s         12O3s         12O1pz     
   21   12O1py        12O1px        12O2pz        12O2py        12O2px        12O1d-2       12O1d-1       12O1d0        12O1d+1       12O1d+2    
   22   13O1s         13O2s         13O3s         13O1pz        13O1py        13O1px        13O2pz        13O2py        13O2px        13O1d-2    
   23   13O1d-1       13O1d0        13O1d+1       13O1d+2       14O1s         14O2s         14O3s         14O1pz        14O1py        14O1px     
   24   14O2pz        14O2py        14O2px        14O1d-2       14O1d-1       14O1d0        14O1d+1       14O1d+2       15O1s         15O2s      
   25   15O3s         15O1pz        15O1py        15O1px        15O2pz        15O2py        15O2px        15O1d-2       15O1d-1       15O1d0     
   26   15O1d+1       15O1d+2       16O1s         16O2s         16O3s         16O1pz        16O1py        16O1px        16O2pz        16O2py     
   27   16O2px        16O1d-2       16O1d-1       16O1d0        16O1d+1       16O1d+2       17O1s         17O2s         17O3s         17O1pz     
   28   17O1py        17O1px        17O2pz        17O2py        17O2px        17O1d-2       17O1d-1       17O1d0        17O1d+1       17O1d+2    
   29   18O1s         18O2s         18O3s         18O1pz        18O1py        18O1px        18O2pz        18O2py        18O2px        18O1d-2    
   30   18O1d-1       18O1d0        18O1d+1       18O1d+2       19O1s         19O2s         19O3s         19O1pz        19O1py        19O1px     
   31   19O2pz        19O2py        19O2px        19O1d-2       19O1d-1       19O1d0        19O1d+1       19O1d+2    
 
 Maximum number of basis functions per shell:   10
 Total number of basis functions:    318
 
 
 Fitting basis set for the SCF calculation:
 
   1  Au def2-qzvpp-ri-jk [ 13s 12p 11d 9f 5g 3h 2i | 13s 11p 10d 8f 4g 3h 2i ]
   2  Au def2-qzvpp-ri-jk [ 13s 12p 11d 9f 5g 3h 2i | 13s 11p 10d 8f 4g 3h 2i ]
   3  O  def2-qzvpp-ri-jk [ 14s 10p 6d 2f 1g | 10s 8p 4d 2f 1g ]
   4  Mg def2-qzvpp-ri-jk [ 16s 12p 9d 4f 1g | 13s 9p 7d 4f 1g ]
   5  Mg def2-qzvpp-ri-jk [ 16s 12p 9d 4f 1g | 13s 9p 7d 4f 1g ]
   6  Mg def2-qzvpp-ri-jk [ 16s 12p 9d 4f 1g | 13s 9p 7d 4f 1g ]
   7  Mg def2-qzvpp-ri-jk [ 16s 12p 9d 4f 1g | 13s 9p 7d 4f 1g ]
   8  O  def2-qzvpp-ri-jk [ 14s 10p 6d 2f 1g | 10s 8p 4d 2f 1g ]
   9  O  def2-qzvpp-ri-jk [ 14s 10p 6d 2f 1g | 10s 8p 4d 2f 1g ]
  10  O  def2-qzvpp-ri-jk [ 14s 10p 6d 2f 1g | 10s 8p 4d 2f 1g ]
  11  O  def2-qzvpp-ri-jk [ 14s 10p 6d 2f 1g | 10s 8p 4d 2f 1g ]
  12  O  def2-qzvpp-ri-jk [ 14s 10p 6d 2f 1g | 10s 8p 4d 2f 1g ]
  13  O  def2-qzvpp-ri-jk [ 14s 10p 6d 2f 1g | 10s 8p 4d 2f 1g ]
  14  O  def2-qzvpp-ri-jk [ 14s 10p 6d 2f 1g | 10s 8p 4d 2f 1g ]
  15  O  def2-qzvpp-ri-jk [ 14s 10p 6d 2f 1g | 10s 8p 4d 2f 1g ]
  16  O  def2-qzvpp-ri-jk [ 14s 10p 6d 2f 1g | 10s 8p 4d 2f 1g ]
  17  O  def2-qzvpp-ri-jk [ 14s 10p 6d 2f 1g | 10s 8p 4d 2f 1g ]
  18  O  def2-qzvpp-ri-jk [ 14s 10p 6d 2f 1g | 10s 8p 4d 2f 1g ]
  19  O  def2-qzvpp-ri-jk [ 14s 10p 6d 2f 1g | 10s 8p 4d 2f 1g ]
 
 Basis functions:
            1             2             3             4             5             6             7             8             9            10
    0    1Au1s         1Au2s         1Au3s         1Au4s         1Au5s         1Au6s         1Au7s         1Au8s         1Au9s         1Au10s    
    1    1Au11s        1Au12s        1Au13s        1Au1pz        1Au1py        1Au1px        1Au2pz        1Au2py        1Au2px        1Au3pz    
    2    1Au3py        1Au3px        1Au4pz        1Au4py        1Au4px        1Au5pz        1Au5py        1Au5px        1Au6pz        1Au6py    
    3    1Au6px        1Au7pz        1Au7py        1Au7px        1Au8pz        1Au8py        1Au8px        1Au9pz        1Au9py        1Au9px    
    4    1Au10pz       1Au10py       1Au10px       1Au11pz       1Au11py       1Au11px       1Au1d-2       1Au1d-1       1Au1d0        1Au1d+1   
    5    1Au1d+2       1Au2d-2       1Au2d-1       1Au2d0        1Au2d+1       1Au2d+2       1Au3d-2       1Au3d-1       1Au3d0        1Au3d+1   
    6    1Au3d+2       1Au4d-2       1Au4d-1       1Au4d0        1Au4d+1       1Au4d+2       1Au5d-2       1Au5d-1       1Au5d0        1Au5d+1   
    7    1Au5d+2       1Au6d-2       1Au6d-1       1Au6d0        1Au6d+1       1Au6d+2       1Au7d-2       1Au7d-1       1Au7d0        1Au7d+1   
    8    1Au7d+2       1Au8d-2       1Au8d-1       1Au8d0        1Au8d+1       1Au8d+2       1Au9d-2       1Au9d-1       1Au9d0        1Au9d+1   
    9    1Au9d+2       1Au10d-2      1Au10d-1      1Au10d0       1Au10d+1      1Au10d+2      1Au1f-3       1Au1f-2       1Au1f-1       1Au1f0    
   10    1Au1f+1       1Au1f+2       1Au1f+3       1Au2f-3       1Au2f-2       1Au2f-1       1Au2f0        1Au2f+1       1Au2f+2       1Au2f+3   
   11    1Au3f-3       1Au3f-2       1Au3f-1       1Au3f0        1Au3f+1       1Au3f+2       1Au3f+3       1Au4f-3       1Au4f-2       1Au4f-1   
   12    1Au4f0        1Au4f+1       1Au4f+2       1Au4f+3       1Au5f-3       1Au5f-2       1Au5f-1       1Au5f0        1Au5f+1       1Au5f+2   
   13    1Au5f+3       1Au6f-3       1Au6f-2       1Au6f-1       1Au6f0        1Au6f+1       1Au6f+2       1Au6f+3       1Au7f-3       1Au7f-2   
   14    1Au7f-1       1Au7f0        1Au7f+1       1Au7f+2       1Au7f+3       1Au8f-3       1Au8f-2       1Au8f-1       1Au8f0        1Au8f+1   
   15    1Au8f+2       1Au8f+3       1Au1g-4       1Au1g-3       1Au1g-2       1Au1g-1       1Au1g0        1Au1g+1       1Au1g+2       1Au1g+3   
   16    1Au1g+4       1Au2g-4       1Au2g-3       1Au2g-2       1Au2g-1       1Au2g0        1Au2g+1       1Au2g+2       1Au2g+3       1Au2g+4   
   17    1Au3g-4       1Au3g-3       1Au3g-2       1Au3g-1       1Au3g0        1Au3g+1       1Au3g+2       1Au3g+3       1Au3g+4       1Au4g-4   
   18    1Au4g-3       1Au4g-2       1Au4g-1       1Au4g0        1Au4g+1       1Au4g+2       1Au4g+3       1Au4g+4       1Au1h-5       1Au1h-4   
   19    1Au1h-3       1Au1h-2       1Au1h-1       1Au1h0        1Au1h+1       1Au1h+2       1Au1h+3       1Au1h+4       1Au1h+5       1Au2h-5   
   20    1Au2h-4       1Au2h-3       1Au2h-2       1Au2h-1       1Au2h0        1Au2h+1       1Au2h+2       1Au2h+3       1Au2h+4       1Au2h+5   
   21    1Au3h-5       1Au3h-4       1Au3h-3       1Au3h-2       1Au3h-1       1Au3h0        1Au3h+1       1Au3h+2       1Au3h+3       1Au3h+4   
   22    1Au3h+5       1Au1i-6       1Au1i-5       1Au1i-4       1Au1i-3       1Au1i-2       1Au1i-1       1Au1i0        1Au1i+1       1Au1i+2   
   23    1Au1i+3       1Au1i+4       1Au1i+5       1Au1i+6       1Au2i-6       1Au2i-5       1Au2i-4       1Au2i-3       1Au2i-2       1Au2i-1   
   24    1Au2i0        1Au2i+1       1Au2i+2       1Au2i+3       1Au2i+4       1Au2i+5       1Au2i+6       2Au1s         2Au2s         2Au3s     
   25    2Au4s         2Au5s         2Au6s         2Au7s         2Au8s         2Au9s         2Au10s        2Au11s        2Au12s        2Au13s    
   26    2Au1pz        2Au1py        2Au1px        2Au2pz        2Au2py        2Au2px        2Au3pz        2Au3py        2Au3px        2Au4pz    
   27    2Au4py        2Au4px        2Au5pz        2Au5py        2Au5px        2Au6pz        2Au6py        2Au6px        2Au7pz        2Au7py    
   28    2Au7px        2Au8pz        2Au8py        2Au8px        2Au9pz        2Au9py        2Au9px        2Au10pz       2Au10py       2Au10px   
   29    2Au11pz       2Au11py       2Au11px       2Au1d-2       2Au1d-1       2Au1d0        2Au1d+1       2Au1d+2       2Au2d-2       2Au2d-1   
   30    2Au2d0        2Au2d+1       2Au2d+2       2Au3d-2       2Au3d-1       2Au3d0        2Au3d+1       2Au3d+2       2Au4d-2       2Au4d-1   
   31    2Au4d0        2Au4d+1       2Au4d+2       2Au5d-2       2Au5d-1       2Au5d0        2Au5d+1       2Au5d+2       2Au6d-2       2Au6d-1   
   32    2Au6d0        2Au6d+1       2Au6d+2       2Au7d-2       2Au7d-1       2Au7d0        2Au7d+1       2Au7d+2       2Au8d-2       2Au8d-1   
   33    2Au8d0        2Au8d+1       2Au8d+2       2Au9d-2       2Au9d-1       2Au9d0        2Au9d+1       2Au9d+2       2Au10d-2      2Au10d-1  
   34    2Au10d0       2Au10d+1      2Au10d+2      2Au1f-3       2Au1f-2       2Au1f-1       2Au1f0        2Au1f+1       2Au1f+2       2Au1f+3   
   35    2Au2f-3       2Au2f-2       2Au2f-1       2Au2f0        2Au2f+1       2Au2f+2       2Au2f+3       2Au3f-3       2Au3f-2       2Au3f-1   
   36    2Au3f0        2Au3f+1       2Au3f+2       2Au3f+3       2Au4f-3       2Au4f-2       2Au4f-1       2Au4f0        2Au4f+1       2Au4f+2   
   37    2Au4f+3       2Au5f-3       2Au5f-2       2Au5f-1       2Au5f0        2Au5f+1       2Au5f+2       2Au5f+3       2Au6f-3       2Au6f-2   
   38    2Au6f-1       2Au6f0        2Au6f+1       2Au6f+2       2Au6f+3       2Au7f-3       2Au7f-2       2Au7f-1       2Au7f0        2Au7f+1   
   39    2Au7f+2       2Au7f+3       2Au8f-3       2Au8f-2       2Au8f-1       2Au8f0        2Au8f+1       2Au8f+2       2Au8f+3       2Au1g-4   
   40    2Au1g-3       2Au1g-2       2Au1g-1       2Au1g0        2Au1g+1       2Au1g+2       2Au1g+3       2Au1g+4       2Au2g-4       2Au2g-3   
   41    2Au2g-2       2Au2g-1       2Au2g0        2Au2g+1       2Au2g+2       2Au2g+3       2Au2g+4       2Au3g-4       2Au3g-3       2Au3g-2   
   42    2Au3g-1       2Au3g0        2Au3g+1       2Au3g+2       2Au3g+3       2Au3g+4       2Au4g-4       2Au4g-3       2Au4g-2       2Au4g-1   
   43    2Au4g0        2Au4g+1       2Au4g+2       2Au4g+3       2Au4g+4       2Au1h-5       2Au1h-4       2Au1h-3       2Au1h-2       2Au1h-1   
   44    2Au1h0        2Au1h+1       2Au1h+2       2Au1h+3       2Au1h+4       2Au1h+5       2Au2h-5       2Au2h-4       2Au2h-3       2Au2h-2   
   45    2Au2h-1       2Au2h0        2Au2h+1       2Au2h+2       2Au2h+3       2Au2h+4       2Au2h+5       2Au3h-5       2Au3h-4       2Au3h-3   
   46    2Au3h-2       2Au3h-1       2Au3h0        2Au3h+1       2Au3h+2       2Au3h+3       2Au3h+4       2Au3h+5       2Au1i-6       2Au1i-5   
   47    2Au1i-4       2Au1i-3       2Au1i-2       2Au1i-1       2Au1i0        2Au1i+1       2Au1i+2       2Au1i+3       2Au1i+4       2Au1i+5   
   48    2Au1i+6       2Au2i-6       2Au2i-5       2Au2i-4       2Au2i-3       2Au2i-2       2Au2i-1       2Au2i0        2Au2i+1       2Au2i+2   
   49    2Au2i+3       2Au2i+4       2Au2i+5       2Au2i+6       3O1s          3O2s          3O3s          3O4s          3O5s          3O6s      
   50    3O7s          3O8s          3O9s          3O10s         3O1pz         3O1py         3O1px         3O2pz         3O2py         3O2px     
   51    3O3pz         3O3py         3O3px         3O4pz         3O4py         3O4px         3O5pz         3O5py         3O5px         3O6pz     
   52    3O6py         3O6px         3O7pz         3O7py         3O7px         3O8pz         3O8py         3O8px         3O1d-2        3O1d-1    
   53    3O1d0         3O1d+1        3O1d+2        3O2d-2        3O2d-1        3O2d0         3O2d+1        3O2d+2        3O3d-2        3O3d-1    
   54    3O3d0         3O3d+1        3O3d+2        3O4d-2        3O4d-1        3O4d0         3O4d+1        3O4d+2        3O1f-3        3O1f-2    
   55    3O1f-1        3O1f0         3O1f+1        3O1f+2        3O1f+3        3O2f-3        3O2f-2        3O2f-1        3O2f0         3O2f+1    
   56    3O2f+2        3O2f+3        3O1g-4        3O1g-3        3O1g-2        3O1g-1        3O1g0         3O1g+1        3O1g+2        3O1g+3    
   57    3O1g+4        4Mg1s         4Mg2s         4Mg3s         4Mg4s         4Mg5s         4Mg6s         4Mg7s         4Mg8s         4Mg9s     
   58    4Mg10s        4Mg11s        4Mg12s        4Mg13s        4Mg1pz        4Mg1py        4Mg1px        4Mg2pz        4Mg2py        4Mg2px    
   59    4Mg3pz        4Mg3py        4Mg3px        4Mg4pz        4Mg4py        4Mg4px        4Mg5pz        4Mg5py        4Mg5px        4Mg6pz    
   60    4Mg6py        4Mg6px        4Mg7pz        4Mg7py        4Mg7px        4Mg8pz        4Mg8py        4Mg8px        4Mg9pz        4Mg9py    
   61    4Mg9px        4Mg1d-2       4Mg1d-1       4Mg1d0        4Mg1d+1       4Mg1d+2       4Mg2d-2       4Mg2d-1       4Mg2d0        4Mg2d+1   
   62    4Mg2d+2       4Mg3d-2       4Mg3d-1       4Mg3d0        4Mg3d+1       4Mg3d+2       4Mg4d-2       4Mg4d-1       4Mg4d0        4Mg4d+1   
   63    4Mg4d+2       4Mg5d-2       4Mg5d-1       4Mg5d0        4Mg5d+1       4Mg5d+2       4Mg6d-2       4Mg6d-1       4Mg6d0        4Mg6d+1   
   64    4Mg6d+2       4Mg7d-2       4Mg7d-1       4Mg7d0        4Mg7d+1       4Mg7d+2       4Mg1f-3       4Mg1f-2       4Mg1f-1       4Mg1f0    
   65    4Mg1f+1       4Mg1f+2       4Mg1f+3       4Mg2f-3       4Mg2f-2       4Mg2f-1       4Mg2f0        4Mg2f+1       4Mg2f+2       4Mg2f+3   
   66    4Mg3f-3       4Mg3f-2       4Mg3f-1       4Mg3f0        4Mg3f+1       4Mg3f+2       4Mg3f+3       4Mg4f-3       4Mg4f-2       4Mg4f-1   
   67    4Mg4f0        4Mg4f+1       4Mg4f+2       4Mg4f+3       4Mg1g-4       4Mg1g-3       4Mg1g-2       4Mg1g-1       4Mg1g0        4Mg1g+1   
   68    4Mg1g+2       4Mg1g+3       4Mg1g+4       5Mg1s         5Mg2s         5Mg3s         5Mg4s         5Mg5s         5Mg6s         5Mg7s     
   69    5Mg8s         5Mg9s         5Mg10s        5Mg11s        5Mg12s        5Mg13s        5Mg1pz        5Mg1py        5Mg1px        5Mg2pz    
   70    5Mg2py        5Mg2px        5Mg3pz        5Mg3py        5Mg3px        5Mg4pz        5Mg4py        5Mg4px        5Mg5pz        5Mg5py    
   71    5Mg5px        5Mg6pz        5Mg6py        5Mg6px        5Mg7pz        5Mg7py        5Mg7px        5Mg8pz        5Mg8py        5Mg8px    
   72    5Mg9pz        5Mg9py        5Mg9px        5Mg1d-2       5Mg1d-1       5Mg1d0        5Mg1d+1       5Mg1d+2       5Mg2d-2       5Mg2d-1   
   73    5Mg2d0        5Mg2d+1       5Mg2d+2       5Mg3d-2       5Mg3d-1       5Mg3d0        5Mg3d+1       5Mg3d+2       5Mg4d-2       5Mg4d-1   
   74    5Mg4d0        5Mg4d+1       5Mg4d+2       5Mg5d-2       5Mg5d-1       5Mg5d0        5Mg5d+1       5Mg5d+2       5Mg6d-2       5Mg6d-1   
   75    5Mg6d0        5Mg6d+1       5Mg6d+2       5Mg7d-2       5Mg7d-1       5Mg7d0        5Mg7d+1       5Mg7d+2       5Mg1f-3       5Mg1f-2   
   76    5Mg1f-1       5Mg1f0        5Mg1f+1       5Mg1f+2       5Mg1f+3       5Mg2f-3       5Mg2f-2       5Mg2f-1       5Mg2f0        5Mg2f+1   
   77    5Mg2f+2       5Mg2f+3       5Mg3f-3       5Mg3f-2       5Mg3f-1       5Mg3f0        5Mg3f+1       5Mg3f+2       5Mg3f+3       5Mg4f-3   
   78    5Mg4f-2       5Mg4f-1       5Mg4f0        5Mg4f+1       5Mg4f+2       5Mg4f+3       5Mg1g-4       5Mg1g-3       5Mg1g-2       5Mg1g-1   
   79    5Mg1g0        5Mg1g+1       5Mg1g+2       5Mg1g+3       5Mg1g+4       6Mg1s         6Mg2s         6Mg3s         6Mg4s         6Mg5s     
   80    6Mg6s         6Mg7s         6Mg8s         6Mg9s         6Mg10s        6Mg11s        6Mg12s        6Mg13s        6Mg1pz        6Mg1py    
   81    6Mg1px        6Mg2pz        6Mg2py        6Mg2px        6Mg3pz        6Mg3py        6Mg3px        6Mg4pz        6Mg4py        6Mg4px    
   82    6Mg5pz        6Mg5py        6Mg5px        6Mg6pz        6Mg6py        6Mg6px        6Mg7pz        6Mg7py        6Mg7px        6Mg8pz    
   83    6Mg8py        6Mg8px        6Mg9pz        6Mg9py        6Mg9px        6Mg1d-2       6Mg1d-1       6Mg1d0        6Mg1d+1       6Mg1d+2   
   84    6Mg2d-2       6Mg2d-1       6Mg2d0        6Mg2d+1       6Mg2d+2       6Mg3d-2       6Mg3d-1       6Mg3d0        6Mg3d+1       6Mg3d+2   
   85    6Mg4d-2       6Mg4d-1       6Mg4d0        6Mg4d+1       6Mg4d+2       6Mg5d-2       6Mg5d-1       6Mg5d0        6Mg5d+1       6Mg5d+2   
   86    6Mg6d-2       6Mg6d-1       6Mg6d0        6Mg6d+1       6Mg6d+2       6Mg7d-2       6Mg7d-1       6Mg7d0        6Mg7d+1       6Mg7d+2   
   87    6Mg1f-3       6Mg1f-2       6Mg1f-1       6Mg1f0        6Mg1f+1       6Mg1f+2       6Mg1f+3       6Mg2f-3       6Mg2f-2       6Mg2f-1   
   88    6Mg2f0        6Mg2f+1       6Mg2f+2       6Mg2f+3       6Mg3f-3       6Mg3f-2       6Mg3f-1       6Mg3f0        6Mg3f+1       6Mg3f+2   
   89    6Mg3f+3       6Mg4f-3       6Mg4f-2       6Mg4f-1       6Mg4f0        6Mg4f+1       6Mg4f+2       6Mg4f+3       6Mg1g-4       6Mg1g-3   
   90    6Mg1g-2       6Mg1g-1       6Mg1g0        6Mg1g+1       6Mg1g+2       6Mg1g+3       6Mg1g+4       7Mg1s         7Mg2s         7Mg3s     
   91    7Mg4s         7Mg5s         7Mg6s         7Mg7s         7Mg8s         7Mg9s         7Mg10s        7Mg11s        7Mg12s        7Mg13s    
   92    7Mg1pz        7Mg1py        7Mg1px        7Mg2pz        7Mg2py        7Mg2px        7Mg3pz        7Mg3py        7Mg3px        7Mg4pz    
   93    7Mg4py        7Mg4px        7Mg5pz        7Mg5py        7Mg5px        7Mg6pz        7Mg6py        7Mg6px        7Mg7pz        7Mg7py    
   94    7Mg7px        7Mg8pz        7Mg8py        7Mg8px        7Mg9pz        7Mg9py        7Mg9px        7Mg1d-2       7Mg1d-1       7Mg1d0    
   95    7Mg1d+1       7Mg1d+2       7Mg2d-2       7Mg2d-1       7Mg2d0        7Mg2d+1       7Mg2d+2       7Mg3d-2       7Mg3d-1       7Mg3d0    
   96    7Mg3d+1       7Mg3d+2       7Mg4d-2       7Mg4d-1       7Mg4d0        7Mg4d+1       7Mg4d+2       7Mg5d-2       7Mg5d-1       7Mg5d0    
   97    7Mg5d+1       7Mg5d+2       7Mg6d-2       7Mg6d-1       7Mg6d0        7Mg6d+1       7Mg6d+2       7Mg7d-2       7Mg7d-1       7Mg7d0    
   98    7Mg7d+1       7Mg7d+2       7Mg1f-3       7Mg1f-2       7Mg1f-1       7Mg1f0        7Mg1f+1       7Mg1f+2       7Mg1f+3       7Mg2f-3   
   99    7Mg2f-2       7Mg2f-1       7Mg2f0        7Mg2f+1       7Mg2f+2       7Mg2f+3       7Mg3f-3       7Mg3f-2       7Mg3f-1       7Mg3f0    
  100    7Mg3f+1       7Mg3f+2       7Mg3f+3       7Mg4f-3       7Mg4f-2       7Mg4f-1       7Mg4f0        7Mg4f+1       7Mg4f+2       7Mg4f+3   
  101    7Mg1g-4       7Mg1g-3       7Mg1g-2       7Mg1g-1       7Mg1g0        7Mg1g+1       7Mg1g+2       7Mg1g+3       7Mg1g+4       8O1s      
  102    8O2s          8O3s          8O4s          8O5s          8O6s          8O7s          8O8s          8O9s          8O10s         8O1pz     
  103    8O1py         8O1px         8O2pz         8O2py         8O2px         8O3pz         8O3py         8O3px         8O4pz         8O4py     
  104    8O4px         8O5pz         8O5py         8O5px         8O6pz         8O6py         8O6px         8O7pz         8O7py         8O7px     
  105    8O8pz         8O8py         8O8px         8O1d-2        8O1d-1        8O1d0         8O1d+1        8O1d+2        8O2d-2        8O2d-1    
  106    8O2d0         8O2d+1        8O2d+2        8O3d-2        8O3d-1        8O3d0         8O3d+1        8O3d+2        8O4d-2        8O4d-1    
  107    8O4d0         8O4d+1        8O4d+2        8O1f-3        8O1f-2        8O1f-1        8O1f0         8O1f+1        8O1f+2        8O1f+3    
  108    8O2f-3        8O2f-2        8O2f-1        8O2f0         8O2f+1        8O2f+2        8O2f+3        8O1g-4        8O1g-3        8O1g-2    
  109    8O1g-1        8O1g0         8O1g+1        8O1g+2        8O1g+3        8O1g+4        9O1s          9O2s          9O3s          9O4s      
  110    9O5s          9O6s          9O7s          9O8s          9O9s          9O10s         9O1pz         9O1py         9O1px         9O2pz     
  111    9O2py         9O2px         9O3pz         9O3py         9O3px         9O4pz         9O4py         9O4px         9O5pz         9O5py     
  112    9O5px         9O6pz         9O6py         9O6px         9O7pz         9O7py         9O7px         9O8pz         9O8py         9O8px     
  113    9O1d-2        9O1d-1        9O1d0         9O1d+1        9O1d+2        9O2d-2        9O2d-1        9O2d0         9O2d+1        9O2d+2    
  114    9O3d-2        9O3d-1        9O3d0         9O3d+1        9O3d+2        9O4d-2        9O4d-1        9O4d0         9O4d+1        9O4d+2    
  115    9O1f-3        9O1f-2        9O1f-1        9O1f0         9O1f+1        9O1f+2        9O1f+3        9O2f-3        9O2f-2        9O2f-1    
  116    9O2f0         9O2f+1        9O2f+2        9O2f+3        9O1g-4        9O1g-3        9O1g-2        9O1g-1        9O1g0         9O1g+1    
  117    9O1g+2        9O1g+3        9O1g+4       10O1s         10O2s         10O3s         10O4s         10O5s         10O6s         10O7s      
  118   10O8s         10O9s         10O10s        10O1pz        10O1py        10O1px        10O2pz        10O2py        10O2px        10O3pz     
  119   10O3py        10O3px        10O4pz        10O4py        10O4px        10O5pz        10O5py        10O5px        10O6pz        10O6py     
  120   10O6px        10O7pz        10O7py        10O7px        10O8pz        10O8py        10O8px        10O1d-2       10O1d-1       10O1d0     
  121   10O1d+1       10O1d+2       10O2d-2       10O2d-1       10O2d0        10O2d+1       10O2d+2       10O3d-2       10O3d-1       10O3d0     
  122   10O3d+1       10O3d+2       10O4d-2       10O4d-1       10O4d0        10O4d+1       10O4d+2       10O1f-3       10O1f-2       10O1f-1    
  123   10O1f0        10O1f+1       10O1f+2       10O1f+3       10O2f-3       10O2f-2       10O2f-1       10O2f0        10O2f+1       10O2f+2    
  124   10O2f+3       10O1g-4       10O1g-3       10O1g-2       10O1g-1       10O1g0        10O1g+1       10O1g+2       10O1g+3       10O1g+4    
  125   11O1s         11O2s         11O3s         11O4s         11O5s         11O6s         11O7s         11O8s         11O9s         11O10s     
  126   11O1pz        11O1py        11O1px        11O2pz        11O2py        11O2px        11O3pz        11O3py        11O3px        11O4pz     
  127   11O4py        11O4px        11O5pz        11O5py        11O5px        11O6pz        11O6py        11O6px        11O7pz        11O7py     
  128   11O7px        11O8pz        11O8py        11O8px        11O1d-2       11O1d-1       11O1d0        11O1d+1       11O1d+2       11O2d-2    
  129   11O2d-1       11O2d0        11O2d+1       11O2d+2       11O3d-2       11O3d-1       11O3d0        11O3d+1       11O3d+2       11O4d-2    
  130   11O4d-1       11O4d0        11O4d+1       11O4d+2       11O1f-3       11O1f-2       11O1f-1       11O1f0        11O1f+1       11O1f+2    
  131   11O1f+3       11O2f-3       11O2f-2       11O2f-1       11O2f0        11O2f+1       11O2f+2       11O2f+3       11O1g-4       11O1g-3    
  132   11O1g-2       11O1g-1       11O1g0        11O1g+1       11O1g+2       11O1g+3       11O1g+4       12O1s         12O2s         12O3s      
  133   12O4s         12O5s         12O6s         12O7s         12O8s         12O9s         12O10s        12O1pz        12O1py        12O1px     
  134   12O2pz        12O2py        12O2px        12O3pz        12O3py        12O3px        12O4pz        12O4py        12O4px        12O5pz     
  135   12O5py        12O5px        12O6pz        12O6py        12O6px        12O7pz        12O7py        12O7px        12O8pz        12O8py     
  136   12O8px        12O1d-2       12O1d-1       12O1d0        12O1d+1       12O1d+2       12O2d-2       12O2d-1       12O2d0        12O2d+1    
  137   12O2d+2       12O3d-2       12O3d-1       12O3d0        12O3d+1       12O3d+2       12O4d-2       12O4d-1       12O4d0        12O4d+1    
  138   12O4d+2       12O1f-3       12O1f-2       12O1f-1       12O1f0        12O1f+1       12O1f+2       12O1f+3       12O2f-3       12O2f-2    
  139   12O2f-1       12O2f0        12O2f+1       12O2f+2       12O2f+3       12O1g-4       12O1g-3       12O1g-2       12O1g-1       12O1g0     
  140   12O1g+1       12O1g+2       12O1g+3       12O1g+4       13O1s         13O2s         13O3s         13O4s         13O5s         13O6s      
  141   13O7s         13O8s         13O9s         13O10s        13O1pz        13O1py        13O1px        13O2pz        13O2py        13O2px     
  142   13O3pz        13O3py        13O3px        13O4pz        13O4py        13O4px        13O5pz        13O5py        13O5px        13O6pz     
  143   13O6py        13O6px        13O7pz        13O7py        13O7px        13O8pz        13O8py        13O8px        13O1d-2       13O1d-1    
  144   13O1d0        13O1d+1       13O1d+2       13O2d-2       13O2d-1       13O2d0        13O2d+1       13O2d+2       13O3d-2       13O3d-1    
  145   13O3d0        13O3d+1       13O3d+2       13O4d-2       13O4d-1       13O4d0        13O4d+1       13O4d+2       13O1f-3       13O1f-2    
  146   13O1f-1       13O1f0        13O1f+1       13O1f+2       13O1f+3       13O2f-3       13O2f-2       13O2f-1       13O2f0        13O2f+1    
  147   13O2f+2       13O2f+3       13O1g-4       13O1g-3       13O1g-2       13O1g-1       13O1g0        13O1g+1       13O1g+2       13O1g+3    
  148   13O1g+4       14O1s         14O2s         14O3s         14O4s         14O5s         14O6s         14O7s         14O8s         14O9s      
  149   14O10s        14O1pz        14O1py        14O1px        14O2pz        14O2py        14O2px        14O3pz        14O3py        14O3px     
  150   14O4pz        14O4py        14O4px        14O5pz        14O5py        14O5px        14O6pz        14O6py        14O6px        14O7pz     
  151   14O7py        14O7px        14O8pz        14O8py        14O8px        14O1d-2       14O1d-1       14O1d0        14O1d+1       14O1d+2    
  152   14O2d-2       14O2d-1       14O2d0        14O2d+1       14O2d+2       14O3d-2       14O3d-1       14O3d0        14O3d+1       14O3d+2    
  153   14O4d-2       14O4d-1       14O4d0        14O4d+1       14O4d+2       14O1f-3       14O1f-2       14O1f-1       14O1f0        14O1f+1    
  154   14O1f+2       14O1f+3       14O2f-3       14O2f-2       14O2f-1       14O2f0        14O2f+1       14O2f+2       14O2f+3       14O1g-4    
  155   14O1g-3       14O1g-2       14O1g-1       14O1g0        14O1g+1       14O1g+2       14O1g+3       14O1g+4       15O1s         15O2s      
  156   15O3s         15O4s         15O5s         15O6s         15O7s         15O8s         15O9s         15O10s        15O1pz        15O1py     
  157   15O1px        15O2pz        15O2py        15O2px        15O3pz        15O3py        15O3px        15O4pz        15O4py        15O4px     
  158   15O5pz        15O5py        15O5px        15O6pz        15O6py        15O6px        15O7pz        15O7py        15O7px        15O8pz     
  159   15O8py        15O8px        15O1d-2       15O1d-1       15O1d0        15O1d+1       15O1d+2       15O2d-2       15O2d-1       15O2d0     
  160   15O2d+1       15O2d+2       15O3d-2       15O3d-1       15O3d0        15O3d+1       15O3d+2       15O4d-2       15O4d-1       15O4d0     
  161   15O4d+1       15O4d+2       15O1f-3       15O1f-2       15O1f-1       15O1f0        15O1f+1       15O1f+2       15O1f+3       15O2f-3    
  162   15O2f-2       15O2f-1       15O2f0        15O2f+1       15O2f+2       15O2f+3       15O1g-4       15O1g-3       15O1g-2       15O1g-1    
  163   15O1g0        15O1g+1       15O1g+2       15O1g+3       15O1g+4       16O1s         16O2s         16O3s         16O4s         16O5s      
  164   16O6s         16O7s         16O8s         16O9s         16O10s        16O1pz        16O1py        16O1px        16O2pz        16O2py     
  165   16O2px        16O3pz        16O3py        16O3px        16O4pz        16O4py        16O4px        16O5pz        16O5py        16O5px     
  166   16O6pz        16O6py        16O6px        16O7pz        16O7py        16O7px        16O8pz        16O8py        16O8px        16O1d-2    
  167   16O1d-1       16O1d0        16O1d+1       16O1d+2       16O2d-2       16O2d-1       16O2d0        16O2d+1       16O2d+2       16O3d-2    
  168   16O3d-1       16O3d0        16O3d+1       16O3d+2       16O4d-2       16O4d-1       16O4d0        16O4d+1       16O4d+2       16O1f-3    
  169   16O1f-2       16O1f-1       16O1f0        16O1f+1       16O1f+2       16O1f+3       16O2f-3       16O2f-2       16O2f-1       16O2f0     
  170   16O2f+1       16O2f+2       16O2f+3       16O1g-4       16O1g-3       16O1g-2       16O1g-1       16O1g0        16O1g+1       16O1g+2    
  171   16O1g+3       16O1g+4       17O1s         17O2s         17O3s         17O4s         17O5s         17O6s         17O7s         17O8s      
  172   17O9s         17O10s        17O1pz        17O1py        17O1px        17O2pz        17O2py        17O2px        17O3pz        17O3py     
  173   17O3px        17O4pz        17O4py        17O4px        17O5pz        17O5py        17O5px        17O6pz        17O6py        17O6px     
  174   17O7pz        17O7py        17O7px        17O8pz        17O8py        17O8px        17O1d-2       17O1d-1       17O1d0        17O1d+1    
  175   17O1d+2       17O2d-2       17O2d-1       17O2d0        17O2d+1       17O2d+2       17O3d-2       17O3d-1       17O3d0        17O3d+1    
  176   17O3d+2       17O4d-2       17O4d-1       17O4d0        17O4d+1       17O4d+2       17O1f-3       17O1f-2       17O1f-1       17O1f0     
  177   17O1f+1       17O1f+2       17O1f+3       17O2f-3       17O2f-2       17O2f-1       17O2f0        17O2f+1       17O2f+2       17O2f+3    
  178   17O1g-4       17O1g-3       17O1g-2       17O1g-1       17O1g0        17O1g+1       17O1g+2       17O1g+3       17O1g+4       18O1s      
  179   18O2s         18O3s         18O4s         18O5s         18O6s         18O7s         18O8s         18O9s         18O10s        18O1pz     
  180   18O1py        18O1px        18O2pz        18O2py        18O2px        18O3pz        18O3py        18O3px        18O4pz        18O4py     
  181   18O4px        18O5pz        18O5py        18O5px        18O6pz        18O6py        18O6px        18O7pz        18O7py        18O7px     
  182   18O8pz        18O8py        18O8px        18O1d-2       18O1d-1       18O1d0        18O1d+1       18O1d+2       18O2d-2       18O2d-1    
  183   18O2d0        18O2d+1       18O2d+2       18O3d-2       18O3d-1       18O3d0        18O3d+1       18O3d+2       18O4d-2       18O4d-1    
  184   18O4d0        18O4d+1       18O4d+2       18O1f-3       18O1f-2       18O1f-1       18O1f0        18O1f+1       18O1f+2       18O1f+3    
  185   18O2f-3       18O2f-2       18O2f-1       18O2f0        18O2f+1       18O2f+2       18O2f+3       18O1g-4       18O1g-3       18O1g-2    
  186   18O1g-1       18O1g0        18O1g+1       18O1g+2       18O1g+3       18O1g+4       19O1s         19O2s         19O3s         19O4s      
  187   19O5s         19O6s         19O7s         19O8s         19O9s         19O10s        19O1pz        19O1py        19O1px        19O2pz     
  188   19O2py        19O2px        19O3pz        19O3py        19O3px        19O4pz        19O4py        19O4px        19O5pz        19O5py     
  189   19O5px        19O6pz        19O6py        19O6px        19O7pz        19O7py        19O7px        19O8pz        19O8py        19O8px     
  190   19O1d-2       19O1d-1       19O1d0        19O1d+1       19O1d+2       19O2d-2       19O2d-1       19O2d0        19O2d+1       19O2d+2    
  191   19O3d-2       19O3d-1       19O3d0        19O3d+1       19O3d+2       19O4d-2       19O4d-1       19O4d0        19O4d+1       19O4d+2    
  192   19O1f-3       19O1f-2       19O1f-1       19O1f0        19O1f+1       19O1f+2       19O1f+3       19O2f-3       19O2f-2       19O2f-1    
  193   19O2f0        19O2f+1       19O2f+2       19O2f+3       19O1g-4       19O1g-3       19O1g-2       19O1g-1       19O1g0        19O1g+1    
  194   19O1g+2       19O1g+3       19O1g+4    
 
 Maximum number of basis functions per shell:   56
 Total number of basis functions:   1943
 
 
 Effective core potentials:
 
   1  Au mcdhf-ecp-60        
   2  Au mcdhf-ecp-60        
 
 Initializing the SAD routines for the initial guess...
 Checking the files required for the initial guess...
 Atomic density files have been found for the atoms with the following serial numbers:
  
 Atomic density files have not been found for the atoms with the following serial numbers:
  1 2
 Generating SCFDENSITIES.Au.def2-svp.0
 CPU time [min]:     0.067                   Wall time [min]:     0.152
 
 Character table for point group C1:
 
          E  
    A     1
 
 Number of basis functions per irrep:
    A     318
 
 
 Calculation of overlap integrals...
 CPU time [min]:     0.069                   Wall time [min]:     0.153
 
 Calculation of the square root of the overlap matrix...
 Minimum eigenvalue of the overlap matrix: 0.902094E-03
 CPU time [min]:     0.094                   Wall time [min]:     0.154
 
 Calculation of kinetic energy integrals...
 CPU time [min]:     0.096                   Wall time [min]:     0.154
 Calculation of dipole moment integrals...
 CPU time [min]:     0.097                   Wall time [min]:     0.154
 Calculation of nuclear attraction integrals...
 CPU time [min]:     0.099                   Wall time [min]:     0.154
 Calculation of core potential integrals...
 CPU time [min]:     0.278                   Wall time [min]:     0.275
 
 Calculation of prescreening integrals...
 CPU time [min]:     0.546                   Wall time [min]:     0.289
 
 Calculation of two-center Coulomb integrals...
   1% done.
  12% done.
  24% done.
  35% done.
  46% done.
  57% done.
  69% done.
  81% done.
  92% done.
 100% done.
 CPU time [min]:     0.559                   Wall time [min]:     0.289
 
 Cholesky decomposition of the two-center matrix...
 Reciprocal of the condition number:  0.589132E-06
 Warning! Ill-conditioned two-center integral matrix.
 This may result in convergence problems.
 CPU time [min]:     0.689                   Wall time [min]:     0.302
 
 
 Running small-basis SCF...

 ************************ 2022-08-31 16:47:55 *************************
 Executing scf...

 @scfsetup: integrals calculated directly
            mrcc/integ direct run
 @scfsetup: calculating on full matrices
            not using symmetry adapted basis
 @scfsetup: diis switched on
 @scfsetup: number of steps to extrapolate from  10
 @scfsetup: tolerance in energy deviation    0.100000E-05
            tolerance in density deviation    0.100000E-06
 @scfsetup: maximum number of iterations:1000
 @scfsetup: restricted closed shell hf calc
 @scfsetup: starting scf from superposition of atomic densities
 @scfsetup: occupation set:
            from initial orbitals
 @scfsetup: Parameter-set for SCF acceleration: difficult
 @scfsetup: diis runs from iteration:   2
 @scfsetup: diis runs to iteration:1000
 @scfsetup: diis runs in every iteration
 @scfsetup: diiswatch is disabled                   
 @scfsetup: diis dtol criteria to switch on:      0.0000E+00
           (or the iteration number below is reached)
 @scfsetup: damping is turned off.
 @scfsetup: dynamic level shifting
            tolarance in HOMO-LUMO gap:  0.200
            tolarance in density deviation:     0.0000E+00
            iteration step criteria to turn level shifting off: 8
 Allocation of 190.0 Gbytes of memory...
 ======================================================================
 ITERATION STEP   1
 CPU time [min]:     0.038                   Wall time [min]:     0.010
 

 SCF control                  : initial
 Damping factor/level shift   : 0.000/0.200
 DIIS [start/end/frequency]   :   2 /*** /  1

 Constructing Fock-matrix...
 
 Pipek-Mezey localization...
 Step  Convergence
   1  18.263914750580
   2  13.297964185288
   3   5.407964903986
   4   2.449066713666
   5   0.142837114191
   6   0.000140162938
   7   0.000000000843
 CPU time [min]:     0.058                   Wall time [min]:     0.011
 
 Constructing local fitting domains...
 Maximum number of atoms in fitting domains:   19
 Average number of atoms in fitting domains:   10.5
 
 First step of Coulomb + first step of exchange...
 Exchange contribution is evaluated for MOs 1 to 19.
   1% done.
  12% done.
  23% done.
  35% done.
  46% done.
  58% done.
  69% done.
  80% done.
  91% done.
 100% done.
 Fitting and assembly step of exchange...
 CPU time [min]:     0.427                   Wall time [min]:     0.029
 
 Second step of Coulomb...
   1% done.
  12% done.
  23% done.
  35% done.
  46% done.
  58% done.
  69% done.
  80% done.
  91% done.
 100% done.
 CPU time [min]:     0.518                   Wall time [min]:     0.034
 
 Gradient norm:      2.0683E+00
 RMS of [F,P]:                                         0.01025859203866
 RMS of difference density:                            0.00805218786866
 Gap [au]:  0.20196892
 ALPHA OCC:  19
 BETA  OCC:  19
 
 ***HARTREE-FOCK ENERGY IN STEP   1 IS       -268.9002536480468279 [AU]
 ======================================================================
 ITERATION STEP   2
 CPU time [min]:     0.538                   Wall time [min]:     0.035
 

 SCF control                  : diis
 Damping factor/level shift   : 0.000/0.000
 DIIS [start/end/frequency]   :   2 /*** /  1

 Constructing Fock-matrix...
 
 Pipek-Mezey localization...
 Step  Convergence
   1   0.595095795769
   2   0.185137433424
   3   0.000382137007
   4   0.000000008219
 CPU time [min]:     0.554                   Wall time [min]:     0.036
 
 Constructing local fitting domains...
 Maximum number of atoms in fitting domains:   19
 Average number of atoms in fitting domains:   10.5
 
 First step of Coulomb + first step of exchange...
 Exchange contribution is evaluated for MOs 1 to 19.
   1% done.
  12% done.
  23% done.
  35% done.
  46% done.
  58% done.
  69% done.
  80% done.
  91% done.
 100% done.
 Fitting and assembly step of exchange...
 CPU time [min]:     1.071                   Wall time [min]:     0.062
 
 Second step of Coulomb...
   1% done.
  12% done.
  23% done.
  35% done.
  46% done.
  58% done.
  69% done.
  80% done.
  91% done.
 100% done.
 CPU time [min]:     1.161                   Wall time [min]:     0.066
 
 Gradient norm:      3.8632E-01
 DIIS is running in this iteration step.
 RMS of [F,P]:                                         0.00392665224882
 RMS of difference density:                            0.00550725644144
 Gap [au]:  0.28340582
 ALPHA OCC:  19
 BETA  OCC:  19
 
 ***HARTREE-FOCK ENERGY IN STEP   2 IS       -269.4352436897906955 [AU]
 
 Step comparison  Energy Drift [au]  DIIS error drift  Gradient drift
        1            5.3499E-01         6.3319E-03       1.6820E+00
        2            2.6944E+02         1.0000E-07       1.6820E+00
 ======================================================================
 ITERATION STEP   3
 CPU time [min]:     1.198                   Wall time [min]:     0.068
 

 SCF control                  : diis
 Damping factor/level shift   : 0.000/0.000
 DIIS [start/end/frequency]   :   2 /*** /  1

 Constructing Fock-matrix...
 
 Pipek-Mezey localization...
 Step  Convergence
   1   2.331120466437
   2   2.705764626372
   3   0.422789724110
   4   0.000787331393
   5   0.000000030645
 CPU time [min]:     1.221                   Wall time [min]:     0.069
 
 Constructing local fitting domains...
 Local fitting domains are unchanged.
 
 First step of Coulomb + first step of exchange...
 Exchange contribution is evaluated for MOs 1 to 19.
   1% done.
  12% done.
  23% done.
  35% done.
  46% done.
  58% done.
  69% done.
  80% done.
  91% done.
 100% done.
 Fitting and assembly step of exchange...
 CPU time [min]:     1.752                   Wall time [min]:     0.096
 
 Second step of Coulomb...
   1% done.
  12% done.
  23% done.
  35% done.
  46% done.
  58% done.
  69% done.
  80% done.
  91% done.
 100% done.
 CPU time [min]:     1.843                   Wall time [min]:     0.101
 
 Gradient norm:      1.4495E-01
 DIIS is running in this iteration step.
 RMS of [F,P]:                                         0.00197537775812
 RMS of difference density:                            0.00169593664094
 Gap [au]:  0.26549285
 ALPHA OCC:  19
 BETA  OCC:  19
 
 ***HARTREE-FOCK ENERGY IN STEP   3 IS       -269.5290773915459113 [AU]
 
 Step comparison  Energy Drift [au]  DIIS error drift  Gradient drift
        2            9.3834E-02         1.9513E-03       2.4138E-01
 ======================================================================
 ITERATION STEP   4
 CPU time [min]:     1.865                   Wall time [min]:     0.102
 

 SCF control                  : diis
 Damping factor/level shift   : 0.000/0.000
 DIIS [start/end/frequency]   :   2 /*** /  1

 Constructing Fock-matrix...
 
 Pipek-Mezey localization...
 Step  Convergence
   1   2.833284579827
   2   1.899921977265
   3   0.162630043414
   4   0.000115205691
   5   0.000000010382
 CPU time [min]:     1.881                   Wall time [min]:     0.103
 
 Constructing local fitting domains...
 Local fitting domains are unchanged.
 
 First step of Coulomb + first step of exchange...
 Exchange contribution is evaluated for MOs 1 to 19.
   1% done.
  12% done.
  23% done.
  35% done.
  46% done.
  58% done.
  69% done.
  80% done.
  91% done.
 100% done.
 Fitting and assembly step of exchange...
 CPU time [min]:     2.397                   Wall time [min]:     0.128
 
 Second step of Coulomb...
   1% done.
  12% done.
  23% done.
  35% done.
  46% done.
  58% done.
  69% done.
  80% done.
  91% done.
 100% done.
 CPU time [min]:     2.488                   Wall time [min]:     0.133
 
 Gradient norm:      2.1320E-02
 DIIS is running in this iteration step.
 RMS of [F,P]:                                         0.00020776992254
 RMS of difference density:                            0.00029305620016
 Gap [au]:  0.27386106
 ALPHA OCC:  19
 BETA  OCC:  19
 
 ***HARTREE-FOCK ENERGY IN STEP   4 IS       -269.5689548974781928 [AU]
 
 Step comparison  Energy Drift [au]  DIIS error drift  Gradient drift
        3            3.9878E-02         1.7676E-03       1.2363E-01
 ======================================================================
 ITERATION STEP   5
 CPU time [min]:     2.521                   Wall time [min]:     0.135
 

 SCF control                  : diis
 Damping factor/level shift   : 0.000/0.000
 DIIS [start/end/frequency]   :   2 /*** /  1

 Constructing Fock-matrix...
 
 Pipek-Mezey localization...
 Step  Convergence
   1  14.144297525674
   2   7.017874240934
   3   4.659970444608
   4   2.642944675710
   5   2.266974852027
   6   0.759255104495
   7   0.295020078402
   8   0.004492616700
   9   0.000103802947
  10   0.000012991056
  11   0.000000960362
  12   0.000000196462
  13   0.000000023366
  14   0.000000003672
  15   0.000000000489
  16   0.000000000076
  17   0.000000000011
  18   0.000000000002
  19   0.000000000000
 CPU time [min]:     2.546                   Wall time [min]:     0.136
 
 Constructing local fitting domains...
 Local fitting domains are unchanged.
 
 First step of Coulomb + first step of exchange...
 Exchange contribution is evaluated for MOs 1 to 19.
   1% done.
  12% done.
  23% done.
  35% done.
  46% done.
  58% done.
  69% done.
  80% done.
  91% done.
 100% done.
 Fitting and assembly step of exchange...
 CPU time [min]:     3.088                   Wall time [min]:     0.163
 
 Second step of Coulomb...
   1% done.
  12% done.
  23% done.
  35% done.
  46% done.
  58% done.
  69% done.
  80% done.
  91% done.
 100% done.
 CPU time [min]:     3.181                   Wall time [min]:     0.168
 
 Gradient norm:      1.2472E-02
 DIIS is running in this iteration step.
 RMS of [F,P]:                                         0.00009941390534
 RMS of difference density:                            0.00022894513764
 Gap [au]:  0.27606822
 ALPHA OCC:  19
 BETA  OCC:  19
 
 ***HARTREE-FOCK ENERGY IN STEP   5 IS       -269.5697222874889576 [AU]
 
 Step comparison  Energy Drift [au]  DIIS error drift  Gradient drift
        4            7.6739E-04         1.0836E-04       8.8474E-03
 ======================================================================
 ITERATION STEP   6
 CPU time [min]:     3.218                   Wall time [min]:     0.170
 

 SCF control                  : diis
 Damping factor/level shift   : 0.000/0.000
 DIIS [start/end/frequency]   :   2 /*** /  1

 Constructing Fock-matrix...
 
 Pipek-Mezey localization...
 Step  Convergence
   1   7.258785223153
   2   5.932840007815
   3   3.209171108020
   4   1.158120156287
   5   0.508303370125
   6   0.168207365778
   7   0.108431096423
   8   0.000260859868
   9   0.000072328968
  10   0.000000472499
  11   0.000000074758
  12   0.000000002327
  13   0.000000000112
  14   0.000000000024
  15   0.000000000002
  16   0.000000000000
 CPU time [min]:     3.243                   Wall time [min]:     0.171
 
 Constructing local fitting domains...
 Local fitting domains are unchanged.
 
 First step of Coulomb + first step of exchange...
 Exchange contribution is evaluated for MOs 1 to 19.
   1% done.
  12% done.
  23% done.
  35% done.
  46% done.
  58% done.
  69% done.
  80% done.
  91% done.
 100% done.
 Fitting and assembly step of exchange...
 CPU time [min]:     3.794                   Wall time [min]:     0.199
 
 Second step of Coulomb...
   1% done.
  12% done.
  23% done.
  35% done.
  46% done.
  58% done.
  69% done.
  80% done.
  91% done.
 100% done.
 CPU time [min]:     3.889                   Wall time [min]:     0.203
 
 Gradient norm:      4.7707E-03
 DIIS is running in this iteration step.
 RMS of [F,P]:                                         0.00002177964108
 RMS of difference density:                            0.00010332765568
 Gap [au]:  0.27678255
 ALPHA OCC:  19
 BETA  OCC:  19
 
 ***HARTREE-FOCK ENERGY IN STEP   6 IS       -269.5699594941610258 [AU]
 
 Step comparison  Energy Drift [au]  DIIS error drift  Gradient drift
        5            2.3721E-04         7.7634E-05       7.7015E-03
 ======================================================================
 ITERATION STEP   7
 CPU time [min]:     3.941                   Wall time [min]:     0.206
 

 SCF control                  : diis
 Damping factor/level shift   : 0.000/0.000
 DIIS [start/end/frequency]   :   2 /*** /  1

 Constructing Fock-matrix...
 
 Pipek-Mezey localization...
 Step  Convergence
   1   6.812847740943
   2   3.078347400902
   3   2.806863564499
   4   0.610060870363
   5   0.237453481189
   6   0.004992892217
   7   0.000458209991
   8   0.000019193524
   9   0.000002084211
  10   0.000000186299
  11   0.000000027930
  12   0.000000003338
  13   0.000000000488
  14   0.000000000063
  15   0.000000000009
  16   0.000000000001
  17   0.000000000000
 CPU time [min]:     3.974                   Wall time [min]:     0.208
 
 Constructing local fitting domains...
 Local fitting domains are unchanged.
 
 First step of Coulomb + first step of exchange...
 Exchange contribution is evaluated for MOs 1 to 19.
   1% done.
  12% done.
  23% done.
  35% done.
  46% done.
  58% done.
  69% done.
  80% done.
  91% done.
 100% done.
 Fitting and assembly step of exchange...
 CPU time [min]:     4.538                   Wall time [min]:     0.236
 
 Second step of Coulomb...
   1% done.
  12% done.
  23% done.
  35% done.
  46% done.
  58% done.
  69% done.
  80% done.
  91% done.
 100% done.
 CPU time [min]:     4.633                   Wall time [min]:     0.241
 
 Gradient norm:      1.9340E-03
 DIIS is running in this iteration step.
 RMS of [F,P]:                                         0.00000632080839
 RMS of difference density:                            0.00003228292043
 Gap [au]:  0.27705743
 ALPHA OCC:  19
 BETA  OCC:  19
 
 ***HARTREE-FOCK ENERGY IN STEP   7 IS       -269.5699981007896895 [AU]
 
 Step comparison  Energy Drift [au]  DIIS error drift  Gradient drift
        6            3.8607E-05         1.5459E-05       2.8367E-03
 ======================================================================
 ITERATION STEP   8
 CPU time [min]:     4.686                   Wall time [min]:     0.244
 

 SCF control                  : diis
 Damping factor/level shift   : 0.000/0.000
 DIIS [start/end/frequency]   :   2 /*** /  1

 Constructing Fock-matrix...
 
 Pipek-Mezey localization...
 Step  Convergence
   1   5.688098789644
   2   3.694531496347
   3   1.121730722175
   4   0.602323139914
   5   0.014741144624
   6   0.000568002251
   7   0.000083737255
   8   0.000004578440
   9   0.000001023076
  10   0.000000091911
  11   0.000000016382
  12   0.000000001671
  13   0.000000000261
  14   0.000000000031
  15   0.000000000004
  16   0.000000000001
 CPU time [min]:     4.718                   Wall time [min]:     0.246
 
 Constructing local fitting domains...
 Local fitting domains are unchanged.
 
 First step of Coulomb + first step of exchange...
 Exchange contribution is evaluated for MOs 1 to 19.
   1% done.
  12% done.
  23% done.
  35% done.
  46% done.
  58% done.
  69% done.
  80% done.
  91% done.
 100% done.
 Fitting and assembly step of exchange...
 CPU time [min]:     5.295                   Wall time [min]:     0.275
 
 Second step of Coulomb...
   1% done.
  12% done.
  23% done.
  35% done.
  46% done.
  58% done.
  69% done.
  80% done.
  91% done.
 100% done.
 CPU time [min]:     5.392                   Wall time [min]:     0.279
 
 Gradient norm:      5.8772E-04
 DIIS is running in this iteration step.
 RMS of [F,P]:                                         0.00000283038416
 RMS of difference density:                            0.00001203024929
 Gap [au]:  0.27705027
 ALPHA OCC:  19
 BETA  OCC:  19
 
 ***HARTREE-FOCK ENERGY IN STEP   8 IS       -269.5700024766109664 [AU]
 
 Step comparison  Energy Drift [au]  DIIS error drift  Gradient drift
        7            4.3758E-06         3.4904E-06       1.3462E-03
 ======================================================================
 ITERATION STEP   9
 CPU time [min]:     5.435                   Wall time [min]:     0.282
 

 SCF control                  : diis
 Damping factor/level shift   : 0.000/0.000
 DIIS [start/end/frequency]   :   2 /*** /  1

 Constructing Fock-matrix...
 
 Pipek-Mezey localization...
 Step  Convergence
   1   6.442044963277
   2   4.918270034626
   3   4.163195441425
   4   2.299218539598
   5   0.475372777823
   6   0.151669476475
   7   0.014000962720
   8   0.001291807413
   9   0.000124244584
  10   0.000012777282
  11   0.000001353242
  12   0.000000143903
  13   0.000000015769
  14   0.000000001735
  15   0.000000000200
  16   0.000000000022
  17   0.000000000003
  18   0.000000000000
 CPU time [min]:     5.460                   Wall time [min]:     0.283
 
 Constructing local fitting domains...
 Local fitting domains are unchanged.
 
 First step of Coulomb + first step of exchange...
 Exchange contribution is evaluated for MOs 1 to 19.
   1% done.
  12% done.
  23% done.
  35% done.
  46% done.
  58% done.
  69% done.
  80% done.
  91% done.
 100% done.
 Fitting and assembly step of exchange...
 CPU time [min]:     5.992                   Wall time [min]:     0.310
 
 Second step of Coulomb...
   1% done.
  12% done.
  23% done.
  35% done.
  46% done.
  58% done.
  69% done.
  80% done.
  91% done.
 100% done.
 CPU time [min]:     6.082                   Wall time [min]:     0.314
 
 Gradient norm:      9.5041E-05
 DIIS is running in this iteration step.
 RMS of [F,P]:                                         0.00000082047886
 RMS of difference density:                            0.00000216867214
 Gap [au]:  0.27704207
 ALPHA OCC:  19
 BETA  OCC:  19
 
 ***HARTREE-FOCK ENERGY IN STEP   9 IS       -269.5700030927804391 [AU]
 
 Step comparison  Energy Drift [au]  DIIS error drift  Gradient drift
        8            6.1617E-07         2.0099E-06       4.9268E-04
 ======================================================================
 ITERATION STEP  10
 CPU time [min]:     6.104                   Wall time [min]:     0.315
 

 SCF control                  : diis
 Damping factor/level shift   : 0.000/0.000
 DIIS [start/end/frequency]   :   2 /*** /  1

 Constructing Fock-matrix...
 
 Pipek-Mezey localization...
 Step  Convergence
   1   7.007037270003
   2   3.183609951081
   3   3.294497908201
   4   0.951188033526
   5   0.583256644943
   6   0.002069800326
   7   0.000152067828
   8   0.000012166809
   9   0.000001432680
  10   0.000000146297
  11   0.000000043004
  12   0.000000025149
  13   0.000000000625
  14   0.000000000077
  15   0.000000000007
  16   0.000000000001
 CPU time [min]:     6.121                   Wall time [min]:     0.316
 
 Constructing local fitting domains...
 Local fitting domains are unchanged.
 
 First step of Coulomb + first step of exchange...
 Exchange contribution is evaluated for MOs 1 to 19.
   1% done.
  12% done.
  23% done.
  35% done.
  46% done.
  58% done.
  69% done.
  80% done.
  91% done.
 100% done.
 Fitting and assembly step of exchange...
 CPU time [min]:     6.637                   Wall time [min]:     0.342
 
 Second step of Coulomb...
   1% done.
  12% done.
  23% done.
  35% done.
  46% done.
  58% done.
  69% done.
  80% done.
  91% done.
 100% done.
 CPU time [min]:     6.730                   Wall time [min]:     0.347
 
 Gradient norm:      2.3466E-05
 DIIS is running in this iteration step.
 RMS of [F,P]:                                         0.00000022231948
 RMS of difference density:                            0.00000088849498
 Gap [au]:  0.27703980
 ALPHA OCC:  19
 BETA  OCC:  19
 
 ***HARTREE-FOCK ENERGY IN STEP  10 IS       -269.5700031185583612 [AU]
 
 Step comparison  Energy Drift [au]  DIIS error drift  Gradient drift
        9            2.5778E-08         5.9816E-07       7.1576E-05
 ======================================================================
 ITERATION STEP  11
 CPU time [min]:     6.752                   Wall time [min]:     0.348
 

 SCF control                  : diis
 Damping factor/level shift   : 0.000/0.000
 DIIS [start/end/frequency]   :   2 /*** /  1

 Constructing Fock-matrix...
 
 Pipek-Mezey localization...
 Step  Convergence
   1   8.118466760029
   2   5.344176547878
   3   3.077621970246
   4   1.578574124011
   5   0.197412552345
   6   0.015024084476
   7   0.000220022420
   8   0.000027122665
   9   0.000000437392
  10   0.000000057954
  11   0.000000003975
  12   0.000000000696
  13   0.000000000067
  14   0.000000000011
  15   0.000000000001
  16   0.000000000000
 CPU time [min]:     6.769                   Wall time [min]:     0.349
 
 Constructing local fitting domains...
 Local fitting domains are unchanged.
 
 First step of Coulomb + first step of exchange...
 Exchange contribution is evaluated for MOs 1 to 19.
   1% done.
  12% done.
  23% done.
  35% done.
  46% done.
  58% done.
  69% done.
  80% done.
  91% done.
 100% done.
 Fitting and assembly step of exchange...
 CPU time [min]:     7.285                   Wall time [min]:     0.374
 
 Second step of Coulomb...
   1% done.
  12% done.
  23% done.
  35% done.
  46% done.
  58% done.
  69% done.
  80% done.
  91% done.
 100% done.
 CPU time [min]:     7.377                   Wall time [min]:     0.379
 
 Gradient norm:      3.7293E-06
 DIIS is running in this iteration step.
 RMS of [F,P]:                                         0.00000002555072
 RMS of difference density:                            0.00000011439331
 Gap [au]:  0.27703998
 ALPHA OCC:  19
 BETA  OCC:  19
 
 ***HARTREE-FOCK ENERGY IN STEP  11 IS       -269.5700031211712258 [AU]
 
 Step comparison  Energy Drift [au]  DIIS error drift  Gradient drift
       10            2.6129E-09         1.9677E-07       1.9736E-05
 ======================================================================
 ITERATION STEP  12
 CPU time [min]:     7.399                   Wall time [min]:     0.380
 

 SCF control                  : diis
 Damping factor/level shift   : 0.000/0.000
 DIIS [start/end/frequency]   :   2 /*** /  1

 Constructing Fock-matrix...
 
 Pipek-Mezey localization...
 Step  Convergence
   1   8.583408015334
   2   5.577178033397
   3   2.395421950900
   4   0.571087080359
   5   0.052057425443
   6   0.001123949079
   7   0.000147195378
   8   0.000004173494
   9   0.000000445117
  10   0.000000053323
  11   0.000000005974
  12   0.000000000834
  13   0.000000000100
  14   0.000000000014
  15   0.000000000002
  16   0.000000000000
 CPU time [min]:     7.417                   Wall time [min]:     0.381
 
 Constructing local fitting domains...
 Local fitting domains are unchanged.
 
 First step of Coulomb + first step of exchange...
 Exchange contribution is evaluated for MOs 1 to 19.
   1% done.
  12% done.
  23% done.
  35% done.
  46% done.
  58% done.
  69% done.
  80% done.
  91% done.
 100% done.
 Fitting and assembly step of exchange...
 CPU time [min]:     7.934                   Wall time [min]:     0.407
 
 Second step of Coulomb...
   1% done.
  12% done.
  23% done.
  35% done.
  46% done.
  58% done.
  69% done.
  80% done.
  91% done.
 100% done.
 CPU time [min]:     8.026                   Wall time [min]:     0.412
 
 Gradient norm:      8.9710E-07
 DIIS is running in this iteration step.
 RMS of [F,P]:                                         0.00000000577843
 RMS of difference density:                            0.00000002658820
 Gap [au]:  0.27704001
 ALPHA OCC:  19
 BETA  OCC:  19
 
 ***HARTREE-FOCK ENERGY IN STEP  12 IS       -269.5700031212203385 [AU]
 
 Step comparison  Energy Drift [au]  DIIS error drift  Gradient drift
       11            4.9113E-11         1.9772E-08       2.8322E-06
 
 The SCF iteration has converged.
 An extra iteration will be performed to calculate accurate SCF energy.
 
 ======================================================================
 ITERATION STEP  13
 CPU time [min]:     8.048                   Wall time [min]:     0.413
 

 SCF control                  : diis
 Damping factor/level shift   : 0.000/0.000
 DIIS [start/end/frequency]   :   2 /*** /  1

 Constructing Fock-matrix...
 
 Pipek-Mezey localization...
 Step  Convergence
   1   7.367865933818
   2   3.220378560339
   3   3.185051890798
   4   0.593132975938
   5   0.478311238010
   6   0.041317542365
   7   0.004116133348
   8   0.000150098687
   9   0.000005423546
  10   0.000000379249
  11   0.000000017201
  12   0.000000003133
  13   0.000000000269
  14   0.000000000045
  15   0.000000000004
  16   0.000000000001
  17   0.000000000000
 CPU time [min]:     8.066                   Wall time [min]:     0.414
 
 Constructing local fitting domains...
 Maximum number of atoms in fitting domains:   19
 Average number of atoms in fitting domains:   19.0
 
 First step of Coulomb + first step of exchange...
 Exchange contribution is evaluated for MOs 1 to 19.
   1% done.
  12% done.
  23% done.
  35% done.
  46% done.
  58% done.
  69% done.
  80% done.
  91% done.
 100% done.
 CPU time [min]:     8.334                   Wall time [min]:     0.427
 
 Fitting and assembly step of exchange...
 CPU time [min]:     8.364                   Wall time [min]:     0.429
 
 Second step of Coulomb...
   1% done.
  12% done.
  23% done.
  35% done.
  46% done.
  58% done.
  69% done.
  80% done.
  91% done.
 100% done.
 CPU time [min]:     8.456                   Wall time [min]:     0.433
 
 Gradient norm:      1.0542E-06
 RMS of [F,P]:                                         0.00000001278349
 RMS of difference density:                            0.00000008280324
 Gap [au]:  0.27703999
 ALPHA OCC:  19
 BETA  OCC:  19
 
 ***HARTREE-FOCK ENERGY IN STEP  13 IS       -269.5700037485279381 [AU]
 
 Step comparison  Energy Drift [au]  DIIS error drift  Gradient drift
       12            6.2731E-07        -7.0051E-09      -1.5714E-07
 Warning! The DIIS error goes uphill (with respect to previous step).
 Warning! The DIIS error goes uphill (with respect to step  12 ).
 Warning! The gradient goes uphill (with respect to previous step).
 Warning! The gradient goes uphill (with respect to step  12 ).
 ======================================================================
 
 SUCCESS...
 THE SCF ITERATION HAS CONVERGED!
 
                   A   
 FINAL ALPHA OCC:  19
 FINAL BETA  OCC:  19
 
 ***FINAL HARTREE-FOCK ENERGY:       -269.5700037485279381 [AU]
 
 Orbital energies [au]:
      Irrep         Alpha          Beta
    1   A         -4.664576      -4.664576
    2   A         -4.663845      -4.663845
    3   A         -2.738949      -2.738949
    4   A         -2.725592      -2.725592
    5   A         -2.725582      -2.725582
    6   A         -2.725327      -2.725327
    7   A         -2.724490      -2.724490
    8   A         -2.724479      -2.724479
    9   A         -0.508677      -0.508677
   10   A         -0.485589      -0.485589
   11   A         -0.485550      -0.485550
   12   A         -0.451609      -0.451609
   13   A         -0.451566      -0.451566
   14   A         -0.439342      -0.439342
   15   A         -0.439288      -0.439288
   16   A         -0.420571      -0.420571
   17   A         -0.420570      -0.420570
   18   A         -0.407087      -0.407087
   19   A         -0.288393      -0.288393
 
   20   A         -0.011353      -0.011353
   21   A          0.037745       0.037745
   22   A          0.044875       0.044875
   23   A          0.067010       0.067010
   24   A          0.069696       0.069696
   25   A          0.075030       0.075030
   26   A          0.094815       0.094815
   27   A          0.099597       0.099597
   28   A          0.127574       0.127574
   29   A          0.130366       0.130366
   30   A          0.152694       0.152694
   31   A          0.152712       0.152712
   32   A          0.159427       0.159427
   33   A          0.165432       0.165432
   34   A          0.175158       0.175158
   35   A          0.180160       0.180160
   36   A          0.189592       0.189592
   37   A          0.199970       0.199970
   38   A          0.208207       0.208207
   39   A          0.209733       0.209733
   40   A          0.216165       0.216165
   41   A          0.218622       0.218622
   42   A          0.230843       0.230843
   43   A          0.236735       0.236735
   44   A          0.264237       0.264237
   45   A          0.282267       0.282267
   46   A          0.314197       0.314197
   47   A          0.340720       0.340720
   48   A          0.346607       0.346607
   49   A          0.369664       0.369664
   50   A          0.377871       0.377871
   51   A          0.386208       0.386208
   52   A          0.394509       0.394509
   53   A          0.398739       0.398739
   54   A          0.400309       0.400309
   55   A          0.408536       0.408536
   56   A          0.431936       0.431936
   57   A          0.449072       0.449072
   58   A          0.461743       0.461743
   59   A          0.462269       0.462269
   60   A          0.474282       0.474282
   61   A          0.477279       0.477279
   62   A          0.487239       0.487239
   63   A          0.502596       0.502596
   64   A          0.503507       0.503507
   65   A          0.516350       0.516350
   66   A          0.528027       0.528027
   67   A          0.529294       0.529294
   68   A          0.531182       0.531182
   69   A          0.539941       0.539941
   70   A          0.548901       0.548901
   71   A          0.559223       0.559223
   72   A          0.560059       0.560059
   73   A          0.572167       0.572167
   74   A          0.580749       0.580749
   75   A          0.583661       0.583661
   76   A          0.605296       0.605296
   77   A          0.607084       0.607084
   78   A          0.617610       0.617610
   79   A          0.636983       0.636983
   80   A          0.642820       0.642820
   81   A          0.653748       0.653748
   82   A          0.670163       0.670163
   83   A          0.673396       0.673396
   84   A          0.684347       0.684347
   85   A          0.697798       0.697798
   86   A          0.712489       0.712489
   87   A          0.736327       0.736327
   88   A          0.742898       0.742898
   89   A          0.750404       0.750404
   90   A          0.753897       0.753897
   91   A          0.754474       0.754474
   92   A          0.754485       0.754485
   93   A          0.780303       0.780303
   94   A          0.788950       0.788950
   95   A          0.801641       0.801641
   96   A          0.806563       0.806563
   97   A          0.809639       0.809639
   98   A          0.822452       0.822452
   99   A          0.825449       0.825449
  100   A          0.831189       0.831189
  101   A          0.834212       0.834212
  102   A          0.837307       0.837307
  103   A          0.853082       0.853082
  104   A          0.853432       0.853432
  105   A          0.878092       0.878092
  106   A          0.904341       0.904341
  107   A          0.909546       0.909546
  108   A          0.916443       0.916443
  109   A          0.920453       0.920453
  110   A          0.923925       0.923925
  111   A          0.932681       0.932681
  112   A          0.933701       0.933701
  113   A          0.944155       0.944155
  114   A          0.951426       0.951426
  115   A          0.956127       0.956127
  116   A          0.972294       0.972294
  117   A          0.973804       0.973804
  118   A          0.974032       0.974032
  119   A          0.978864       0.978864
  120   A          0.989564       0.989564
  121   A          0.998161       0.998161
  122   A          1.032940       1.032940
  123   A          1.038908       1.038908
  124   A          1.040329       1.040329
  125   A          1.047205       1.047205
  126   A          1.052384       1.052384
  127   A          1.063142       1.063142
  128   A          1.082835       1.082835
  129   A          1.103431       1.103431
  130   A          1.115168       1.115168
  131   A          1.132321       1.132321
  132   A          1.147231       1.147231
  133   A          1.152040       1.152040
  134   A          1.165865       1.165865
  135   A          1.169220       1.169220
  136   A          1.188186       1.188186
  137   A          1.197115       1.197115
  138   A          1.212233       1.212233
  139   A          1.216022       1.216022
  140   A          1.245580       1.245580
  141   A          1.303191       1.303191
  142   A          1.344262       1.344262
  143   A          1.360541       1.360541
  144   A          1.397696       1.397696
  145   A          1.402320       1.402320
  146   A          1.471182       1.471182
[...]
 
 Calculation of (T) correction...
 
 Laplace threshold, nquadmin:  1.00E-03   4
 Number of quadrature points:    4
 
       76.14 MB memory is utilized for (T)

 0%       25%       50%       75%       100%
 |---------|---------|---------|---------| 
 
 (T) correction [au]:                   -0.002001612700
 CCSD(T) correlation energy [au]:       -0.059548373147
 
 CPU time [min]:    26.755                   Wall time [min]:     1.590
 
 MO:     7
 Number of atoms in domain:      19
 Number of atomic orbitals:     479
 Number of atoms for local DF:   19
 Number of fitting functions:  1636 (100.00%)
 Number of occupied orbitals:    11
 Number of virtual  orbitals:   460
 Number of Cholesky vectors:      8
 MP2 energy in ED [au]:          -0.062849431941
 Number of occupied LNOs:        11 (100.00%)
 Number of virtual  LNOs:        66  (14.35%)
 tol*100>norm                    22  4.467891046265021E-004
 tol*100>norm                    76  4.467891033661843E-004
 Number of Cholesky vectors:      6
 MP2 energy in LIS [au]:         -0.062819019969
 Correction for frozen LNO [au]: -0.000030411972     (0.048%)
 Number of NAFs:                239  (14.61%)
 CPU time [min]:    30.241                   Wall time [min]:     1.800
 

 Direct DF-CCSD(T) calculation
 
 Convergence criterion:  1.0E-05
 
 Number of occupied/virtual/auxiliary orbitals:    11    66   239
     61.78 MB is the minimal memory requirement for (T)
     39.37 MB is the minimal memory requirement for CCSD
 
 MP2 correlation energy [au]:       -0.629875829943
 
 LMP2 domain correlation energy contribution [au]:       -0.062833288141
 
 CPU time [min]:    30.284                   Wall time [min]:     1.802
 
 
 Starting CCSD iterations...
 
                     Residual norm       Correlation Energy
 Iteration  1        0.184039194925       -0.560379195476
 Iteration  2        0.057002007013       -0.579717502292
 Iteration  3        0.017673680231       -0.582946098939
 Iteration  4        0.007259424095       -0.582100708110
 Iteration  5        0.003974356956       -0.582032077039
 Iteration  6        0.002073380554       -0.582285449250
 Iteration  7        0.000990626384       -0.582280607837
 Iteration  8        0.000346293816       -0.582247435060
 Iteration  9        0.000146638945       -0.582251305100
 Iteration 10        0.000047659869       -0.582252561766
 
 CCSD iteration has converged in 10 steps.
      108.41 MB memory was utilized by CCSD
 
 T1 diagnostic:      2.152E-02            D1 diagnostic:      6.600E-02
 
 T1 contribution [au]:                         0.000000000000
 CCSD correlation energy [au]:                -0.057546761382
 
 CPU time [min]:    30.768                   Wall time [min]:     1.828
 
 Calculation of (T) correction...
 
 Laplace threshold, nquadmin:  1.00E-03   4
 Number of quadrature points:    4
 
       76.14 MB memory is utilized for (T)

 0%       25%       50%       75%       100%
 |---------|---------|---------|---------| 
 
 (T) correction [au]:                   -0.002001612851
 CCSD(T) correlation energy [au]:       -0.059548374233
 
 CPU time [min]:    30.969                   Wall time [min]:     1.840
 
 MO:     8
 Number of atoms in domain:      19
 Number of atomic orbitals:     479
 Number of atoms for local DF:   19
 Number of fitting functions:  1636 (100.00%)
 Number of occupied orbitals:    11
 Number of virtual  orbitals:   460
 Number of Cholesky vectors:      8
 MP2 energy in ED [au]:          -0.062891954174
 Number of occupied LNOs:        11 (100.00%)
 Number of virtual  LNOs:        67  (14.57%)
 tol*100>norm                    22  4.467891046265021E-004
 tol*100>norm                    76  4.467891033661844E-004
 Number of Cholesky vectors:      6
 MP2 energy in LIS [au]:         -0.062861574195
 Correction for frozen LNO [au]: -0.000030379979     (0.048%)
 Number of NAFs:                240  (14.67%)
 CPU time [min]:    34.364                   Wall time [min]:     2.046
 

 Direct DF-CCSD(T) calculation
 
 Convergence criterion:  1.0E-05
 
 Number of occupied/virtual/auxiliary orbitals:    11    67   240
     63.79 MB is the minimal memory requirement for (T)
     40.21 MB is the minimal memory requirement for CCSD
 
 MP2 correlation energy [au]:       -0.632326954617
 
 LMP2 domain correlation energy contribution [au]:       -0.062875164745
 
 CPU time [min]:    34.419                   Wall time [min]:     2.048
 
 
 Starting CCSD iterations...
 
                     Residual norm       Correlation Energy
 Iteration  1        0.184172515560       -0.562348417762
 Iteration  2        0.057143742597       -0.581704742205
 Iteration  3        0.017674277329       -0.584967699599
 Iteration  4        0.007283329003       -0.584099980756
 Iteration  5        0.003968530648       -0.584028260670
 Iteration  6        0.002064269276       -0.584280571376
 Iteration  7        0.000984321982       -0.584277929072
 Iteration  8        0.000344108833       -0.584244475255
 Iteration  9        0.000144972731       -0.584248459376
 Iteration 10        0.000047270287       -0.584249664920
 
 CCSD iteration has converged in 10 steps.
      113.72 MB memory was utilized by CCSD
 
 T1 diagnostic:      2.156E-02            D1 diagnostic:      6.611E-02
 
 T1 contribution [au]:                         0.000000000000
 CCSD correlation energy [au]:                -0.057582667964
 
 CPU time [min]:    34.999                   Wall time [min]:     2.080
 
 Calculation of (T) correction...
 
 Laplace threshold, nquadmin:  1.00E-03   4
 Number of quadrature points:    4
 
       78.87 MB memory is utilized for (T)

 0%       25%       50%       75%       100%
 |---------|---------|---------|---------| 
 
 (T) correction [au]:                   -0.002009861262
 CCSD(T) correlation energy [au]:       -0.059592529226
 
 CPU time [min]:    35.229                   Wall time [min]:     2.093
 
 MO:     9
 Number of atoms in domain:      19
 Number of atomic orbitals:     479
 Number of atoms for local DF:   19
 Number of fitting functions:  1636 (100.00%)
 Number of occupied orbitals:    11
 Number of virtual  orbitals:   460
 Number of Cholesky vectors:      8
 MP2 energy in ED [au]:          -0.062849449262
 Number of occupied LNOs:        11 (100.00%)
 Number of virtual  LNOs:        66  (14.35%)
 tol*100>norm                    22  4.467891046265021E-004
 tol*100>norm                    76  4.467891033661845E-004
 Number of Cholesky vectors:      6
 MP2 energy in LIS [au]:         -0.062819036433
 Correction for frozen LNO [au]: -0.000030412830     (0.048%)
 Number of NAFs:                239  (14.61%)
 CPU time [min]:    38.707                   Wall time [min]:     2.303
 

 Direct DF-CCSD(T) calculation
 
 Convergence criterion:  1.0E-05
 
 Number of occupied/virtual/auxiliary orbitals:    11    66   239
     61.78 MB is the minimal memory requirement for (T)
     39.37 MB is the minimal memory requirement for CCSD
 
 MP2 correlation energy [au]:       -0.629876290794
 
 LMP2 domain correlation energy contribution [au]:       -0.062833306995
 
 CPU time [min]:    38.761                   Wall time [min]:     2.306
 
 
 Starting CCSD iterations...
 
                     Residual norm       Correlation Energy
 Iteration  1        0.184039350545       -0.560379625799
 Iteration  2        0.057001995676       -0.579717929371
 Iteration  3        0.017673645768       -0.582946522667
 Iteration  4        0.007259388166       -0.582101132839
 Iteration  5        0.003974329226       -0.582032502894
 Iteration  6        0.002073374291       -0.582285873862
 Iteration  7        0.000990626603       -0.582281033004
 Iteration  8        0.000346294351       -0.582247859529
 Iteration  9        0.000146638557       -0.582251729649
 Iteration 10        0.000047660051       -0.582252986331
 
 CCSD iteration has converged in 10 steps.
      108.41 MB memory was utilized by CCSD
 
 T1 diagnostic:      2.152E-02            D1 diagnostic:      6.600E-02
 
 T1 contribution [au]:                         0.000000000000
 CCSD correlation energy [au]:                -0.057546777192
 
 CPU time [min]:    39.319                   Wall time [min]:     2.336
 
 Calculation of (T) correction...
 
 Laplace threshold, nquadmin:  1.00E-03   4
 Number of quadrature points:    4
 
       76.14 MB memory is utilized for (T)

 0%       25%       50%       75%       100%
 |---------|---------|---------|---------| 
 
 (T) correction [au]:                   -0.002001615538
 CCSD(T) correlation energy [au]:       -0.059548392730
 
 CPU time [min]:    39.515                   Wall time [min]:     2.347
 
 MO:    10
 Number of atoms in domain:      19
 Number of atomic orbitals:     479
 Number of atoms for local DF:   19
 Number of fitting functions:  1636 (100.00%)
 Number of occupied orbitals:    11
 Number of virtual  orbitals:   460
 Number of Cholesky vectors:      8
 MP2 energy in ED [au]:          -0.062891950730
 Number of occupied LNOs:        11 (100.00%)
 Number of virtual  LNOs:        67  (14.57%)
 tol*100>norm                    22  4.467891046265021E-004
 tol*100>norm                    76  4.467891033661844E-004
 Number of Cholesky vectors:      6
 MP2 energy in LIS [au]:         -0.062861570887
 Correction for frozen LNO [au]: -0.000030379843     (0.048%)
 Number of NAFs:                240  (14.67%)
 CPU time [min]:    42.909                   Wall time [min]:     2.554
 

 Direct DF-CCSD(T) calculation
 
 Convergence criterion:  1.0E-05
 
 Number of occupied/virtual/auxiliary orbitals:    11    67   240
     63.79 MB is the minimal memory requirement for (T)
     40.21 MB is the minimal memory requirement for CCSD
 
 MP2 correlation energy [au]:       -0.632325881244
 
 LMP2 domain correlation energy contribution [au]:       -0.062875163072
 
 CPU time [min]:    42.964                   Wall time [min]:     2.556
 
 
 Starting CCSD iterations...
 
                     Residual norm       Correlation Energy
 Iteration  1        0.184172097595       -0.562347604057
 Iteration  2        0.057143660262       -0.581703889164
 Iteration  3        0.017674291997       -0.584966843313
 Iteration  4        0.007283352663       -0.584099117954
 Iteration  5        0.003968547942       -0.584027399921
 Iteration  6        0.002064280267       -0.584279714248
 Iteration  7        0.000984322263       -0.584277070734
 Iteration  8        0.000344107782       -0.584243616603
 Iteration  9        0.000144971567       -0.584247601003
 Iteration 10        0.000047270070       -0.584248806468
 
 CCSD iteration has converged in 10 steps.
      113.72 MB memory was utilized by CCSD
 
 T1 diagnostic:      2.156E-02            D1 diagnostic:      6.611E-02
 
 T1 contribution [au]:                         0.000000000000
 CCSD correlation energy [au]:                -0.057582667288
 
 CPU time [min]:    43.597                   Wall time [min]:     2.590
 
 Calculation of (T) correction...
 
 Laplace threshold, nquadmin:  1.00E-03   4
 Number of quadrature points:    4
 
       78.87 MB memory is utilized for (T)

 0%       25%       50%       75%       100%
 |---------|---------|---------|---------| 
 
 (T) correction [au]:                   -0.002009858911
 CCSD(T) correlation energy [au]:       -0.059592526199
 
 CPU time [min]:    43.821                   Wall time [min]:     2.603
 
 MO:    11
 Number of atoms in domain:      19
 Number of atomic orbitals:     479
 Number of atoms for local DF:   19
 Number of fitting functions:  1636 (100.00%)
 Number of occupied orbitals:    11
 Number of virtual  orbitals:   460
 Number of Cholesky vectors:      8
 MP2 energy in ED [au]:          -0.078140259051
 Number of occupied LNOs:        11 (100.00%)
 Number of virtual  LNOs:       102  (22.17%)
 tol*100>norm                    22  4.467891046265019E-004
 tol*100>norm                    76  4.467891033661845E-004
 Number of Cholesky vectors:      6
 MP2 energy in LIS [au]:         -0.078117183698
 Correction for frozen LNO [au]: -0.000023075352     (0.030%)
 Number of NAFs:                322  (19.68%)
 CPU time [min]:    48.293                   Wall time [min]:     2.868
 

 Direct DF-CCSD(T) calculation
 
 Convergence criterion:  1.0E-05
 
 Number of occupied/virtual/auxiliary orbitals:    11   102   322
    179.52 MB is the minimal memory requirement for (T)
     85.59 MB is the minimal memory requirement for CCSD
 
 MP2 correlation energy [au]:       -0.706818116256
 
 LMP2 domain correlation energy contribution [au]:       -0.078126609520
 
 CPU time [min]:    48.340                   Wall time [min]:     2.871
 
 
 Starting CCSD iterations...
 
                     Residual norm       Correlation Energy
 Iteration  1        0.189878181240       -0.624666554170
 Iteration  2        0.058932661046       -0.644845891929
 Iteration  3        0.017935028136       -0.648909299086
 Iteration  4        0.007912749767       -0.647623782929
 Iteration  5        0.004142354355       -0.647338155511
 Iteration  6        0.002294926186       -0.647686046259
 Iteration  7        0.001134766798       -0.647766594148
 Iteration  8        0.000414393959       -0.647707661389
 Iteration  9        0.000176191653       -0.647703445934
 Iteration 10        0.000056106049       -0.647707088794
 
 CCSD iteration has converged in 10 steps.
      494.02 MB memory was utilized by CCSD
 
 T1 diagnostic:      2.143E-02            D1 diagnostic:      6.927E-02
 
 T1 contribution [au]:                         0.000000000000
 CCSD correlation energy [au]:                -0.072262526504
 
 CPU time [min]:    50.010                   Wall time [min]:     2.960
 
 Calculation of (T) correction...
 
 Laplace threshold, nquadmin:  1.00E-03   4
 Number of quadrature points:    4
 
      232.95 MB memory is utilized for (T)

 0%       25%       50%       75%       100%
 |---------|---------|---------|---------| 
 
 (T) correction [au]:                   -0.004462127333
 CCSD(T) correlation energy [au]:       -0.076724653837
 
 CPU time [min]:    50.922                   Wall time [min]:     3.013
 
 **********************************************************************
 Dimensions of the extended domains:    Minimum / Average / Maximum
 
 Number of atoms in domain:                  19      19.0        19
 Number of atomic orbitals:                 479     479.0       479
 Number of fitting functions:              1636    1636.0      1636
 Number of occupied localized MOs:           11      11.0        11
 Number of PAOs:                            460     460.0       460
 Number of occupied LNOs:                    11      11.0        11
 Number of virtual  LNOs:                    66      70.0       102
 Number of NAFs:                            239     247.6       322
 
 **********************************************************************
 Distant (and weak) pair contributions, corrections
 
 Sum of pair energies [au]:                     0.000000000000    (0.000%)
 Sum of energy corrections [au]:               -0.000319119390    (0.045%)
 Pair energies + LNO corrections [au]:         -0.000319119390
 Sum of LMP2 contributions [au]:               -0.706806737674
 
 **********************************************************************
  Time of manipulations in the EDs:      max CPU/Wall [s]  all CPU/Wall [min]
 
 PD construction & multipole pair E      11.83     0.66     0.20     0.01
 Construct MO basis of the ED             3.22     0.16     0.56     0.03
 (mu,nu|P) evaluation & trf 2 (ai|P)     32.33     1.62     5.72     0.29
 Evaluate MP2 energy of the ED            5.04     0.25     0.91     0.05
 Transformations to the LNO basis         4.18     0.21     0.70     0.04
 Build W_PQ (Jai or Jpi part)             3.78     0.40     0.68     0.04
 Evaluate MP2 energy of the LIS           0.29     0.01     0.03     0.00
 (mu,nu|P) evaluation & trf 2 J(abQ)    213.08    13.10    29.92     1.89
 Total of the above for all EDs         261.91    15.75    38.53     2.33
 
 **********************************************************************
 Maximum memory requirement [MB]:       
 
 PD construction & multipole pair E         15.2
 AO integral evaluation in the EDs         764.5
 (mu,nu|P) evaluation & trf 2 (aI|P)       968.7
 Evaluate MP2 energy in the EDs            232.1
 Transformation to the LNO basis            86.7
 (mu,nu|P) to Jab transformation           826.9
 Evaluate MP2 energy in the LIS            126.9
 Minimum requirement for LIS CCSD           85.6
 Actually allocated  for LIS CCSD          494.0
 Minimum requirement for LIS (T)           179.5
 Actually allocated  for LIS (T)           233.0
 
 ======================================================================
 ======================================================================
 
 
 
 ======================================================================
 ======================================================================
 
 Final local CC results:
 
 Minimum number of correlated electrons:        22       (100.0%)
 Maximum number of correlated electrons:        22       (100.0%)
 Average number of correlated electrons:        22.0     (100.0%)
 Minimum number of correlated orbitals:         77       ( 16.3%)
 Maximum number of correlated orbitals:        113       ( 24.0%)
 Average number of correlated orbitals:         81.0     ( 17.2%)
 
 CPU time for integral calculations [min]:                  1.593
 Wall time for integral calculations [min]:                 0.439
 
 CPU time for SCF calculation [min]:                        7.906
 Wall time for SCF calculation [min]:                       0.412
 
 CPU time for orbital localization [min]:                   0.082
 Wall time for orbital localization [min]:                  0.015
 
 CPU time for integral transformations [min]:              40.189
 Wall time for integral transformations [min]:              2.425
 
 Reference energy [au]:                                  -269.590013434421
 
 LMP2 correlation energy [au]:                             -0.706806737674
 Total LMP2 energy [au]:                                 -270.296820172095
 
 Total MP2 correction for dropped NAFs [au]:                0.000150396267
 Total MP2 correction [au]:                                -0.000168723122
 
 CPU time for CCSD calculations [min]:                      7.685
 Total CPU time for CCSD [min]:                            57.454
 Wall time for CCSD calculations [min]:                     0.412
 Total wall time for CCSD [min]:                            3.703
 
 CCSD correlation energy [au]:                             -0.647878431782
 Total CCSD energy [au]:                                 -270.237891866203
 CCSD correlation energy + 0.5 MP2 corrections [au]:       -0.647962793343
 Total LNO-CCSD energy with MP2 corrections [au]:        -270.237976227764
 
 CPU time for (T) corrections [min]:                        3.059
 Total CPU time for CCSD(T) [min]:                         60.513
 Wall time for (T) corrections [min]:                       0.177
 Total wall time for CCSD(T) [min]:                         3.880
 
 Total (T) correlation energy contribution [au]:           -0.024523484626
 Total (T) correlation energy+0.5 MP2 correction [au]:     -0.024607846187
 CCSD(T) correlation energy [au]:                          -0.672401916408
 Total CCSD(T) energy [au]:                              -270.262415350829
 CCSD(T) correlation energy + MP2 corrections [au]:        -0.672570639530
 Total LNO-CCSD(T) energy with MP2 corrections [au]:     -270.262584073951
 
 ======================================================================
 ======================================================================
 
 ************************ 2022-08-31 16:52:16 *************************
                      Normal termination of mrcc.
 **********************************************************************
