 **********************************************************************
                          MRCC program system
 **********************************************************************
 
                              Written by
     Mihaly Kallay, Peter R. Nagy, David Mester, Laszlo Gyevi-Nagy,
        Jozsef Csoka, P. Bernat Szabo, Zoltan Rolik, Gyula Samu,
     Jozsef Csontos, Bence Hegely, Adam Ganyecz, Istvan Ladjanszki,
       Lorant Szegedy, Bence Ladoczki, Klara Petrov, Mate Farkas,
                    Pal D. Mezei, and Reka A. Horvath
 
        Department of Physical Chemistry and Materials Science
            Budapest University of Technology and Economics
                  Budapest P.O.Box 91, H-1521 Hungary
 
                              www.mrcc.hu
 
                      Release date: March 18, 2022

 ************************ 2023-02-04 10:26:53 *************************
 Executing minp...

 Reading input from MINP...
 
 Input file:
 
calc=FNO-CCSD(T)
verbosity=3
mem=220GB
unit=angs
scfiguess=small
scfalg=locfit1
ccmaxit=400
ccsdalg=dfdirect
ccsdthreads=4
ccsdmkl=thr
ptthreads=4
lnoepsv=1e-5
naf_cor=1e-2
ECP=MCDHF-ECP-10
basis=bse_ACVTZ
basis_sm=def2-SVP
dfbasis_scf=def2-QZVPP-RI-JK
dfbasis_cor=bse_ACVTZ_mp2fit
core=0
unit=angs
geom=xyz
    6
Cu6_4
Cu    -0.72254019    -2.74139395     0.78079631
Cu     0.53637637     0.48682571    -0.90726631
Cu    -0.53683073    -0.48677375     0.90871027
Cu     0.38080789    -1.79896385    -1.09546754
Cu     0.72271102     2.74127763    -0.78181119
Cu    -0.38052436     1.79902820     1.09503846

ghost=serialno


 
 
 Checking keyword combinations...
 
 Keywords:
 
 active=none
 agrid=ld0006-ld0590
 agrid_pssp=ld0006-ld0194
 agrid_pssp_sm=ld0006-ld0074
 basis=bse_acvtz
 basis_sm=def2-svp
 basopt=off
 bfbasis=none
 bfgsmem=10
 bfgstol=1.0d-3
 bpcompo=0.985
 bpcompv=0.98
 bpdfo=0.985
 bpocc=0.985
 bppdo=0.985
 bppdv=0.98
 bpedo=0.985
 bpedv=0.98
 calc=ccsd(t)
 ccmaxit=400
 ccprog=ccsd
 ccsdalg=dfdirect
 ccsdmkl=thr
 ccsdrest=trf
 ccsdthreads=4
 cctol=6
 charge=0
 cialg=auto
 ciguess=off
 cmpgrp=auto
 comprest=off
 core=corr
 corembed=off
 csapprox=off
 cvs=off
 dboc=off
 delocsomofact=
 dendec=cholesky
 dens=0
 dfalg=lineq
 dfbasis_cab=none
 dfbasis_cor=bse_acvtz_mp2fit
 dfbasis_scf=def2-qzvpp-ri-jk
 dfbasis_scf_sm=def2-qzvpp-ri-jk
 dfintran=drpa
 dft=off
 dhexc=adc(2)
 diag=david
 docc=
 domrad=10.d0
 drpaalg=fit
 dual=off
 dual_df=off
 ecp=mcdhf-ecp-10
 edisp=off
 edisp_embed=off
 embed=off
 etemp=300
 epert=none
 eps=
 espcharge=off
 excrad=1.0
 excrad_fin=0.100000000D-02
 fitting=coulomb
 fmm=off
 fmmord=8
 freq=off
 gamma=1.d0
 gauss=spher
 geom=xyz
 gopt=off
 ghost=serialno
 gtol=7
 grdens=off
 gridbatch_cos=2000
 grtol=10
 guido_ct=off
 hamilton=dc
 iface=none
 intalg=auto
 itol=10
 laptol=1.d-2
 lccoporder=trffirst
 lcorthr=normal
 lccrest=off
 lmp2dens=on
 lnoepso=0.d0
 lnoepsv=1e-5
 boysalg=jacobi
 localcc=off
 localcorrsymm=off
 locintrf=disk
 mact=
 maxact=off
 maxdim=100
 maxex=0
 maxmicroit=100
 mcscfiguess=hf
 mem=220gb
 mmprog=
 molden=on
 mpitasks=1
 mulmet=0
 mult=
 nacto=0
 nactv=0
 naf_amp=1.d-2
 naf_cor=1e-2
 naf_scf=off
 nafalg=albe
 naftyp=
 nchol=auto
 ndeps=1e-3
 nstate=1
 nsing=0
 nto=off
 ntrip=0
 occ=
 occri=off
 oniom=off
 oniom_eechg=off
 oniom_pcm=off
 oniom_qcorr=off
 optalg=
 optmaxit=50
 optetol=1e-6
 optex=0
 optgtol=1e-4
 optstol=1e-3
 orblocc=off
 orbloce=off
 orbloco=off
 orblocv=off
 orblocguess=cholesky
 osveps=1e-3
 ovirt=ppl
 ovltol=1e-7
 ovosnorb=80.0
 pcm=off
 popul=off
 pressure=100000
 pssp=off
 ptfreq=0.0
 ptthreads=4
 qro=off
 qscf=off
 qmmm=off
 redcost_exc=off
 redcost_tddft=off
 refdet=none
 rest=0
 rgrid=log3
 rism=off
 rohfcore=semicanonical
 rohftype=semicanonical
 scfalg=locfit1
 scf_conv=difficult
 scfdamp=0.0d0
 scfdamp_mode=off
 scfdamp_end=50
 scfdamp_dampstep=0.d0
 scfdamp_dtol=0.0d0
 scfdamp_maxfact=0.0d0
 scfdamp_minfact=0.0d0
 scfdiis=on
 scfdiis_dtol=0.0d0
 scfdiis_end=50
 scfdiis_start=2
 scfdiis_step=1
 scfdiis_watch=off
 scfdiis_wrange=10
 scfdiis_wlimit=5
 scfdiis_delmax=2
 scfdtol=7
 scfext=10
 scfguessdens=
 scfiguess=small
 scfloc=pm
 scflshift=0.20
 scflshift_end=8
 scflshift_dtol=0.0
 scflshift_gaptol=0.20
 scfmaxit=50
 scftype=
 scftol=6
 scspe=1.d0
 scsph=1.d0
 scsps=1.2d0
 scsps_t=1.2d0
 scspt=0.33333333333333
 scspt_t=0.33333333333333
 scspv=1.d0
 spairtol=1e-4
 sqmprog=
 subminp=top
 symm=
 talg=occ
 temp=298.15
 test=off
 theodore=off
 tlmo=0.999
 tpao=0.94
 tprint=off
 uncontract=off
 unit=angs
 usedisk=2
 verbosity=3
 wpairtol=0.100000000E-05
 
 Calculating integrals for small-basis SCF...

 ************************ 2023-02-04 10:26:53 *************************
 Executing integ...

 Allocation of 220.0 Gbytes of memory...
 
 
 Number of atoms:                  6
 Charge:                           0
 Number of electrons:            114
 Number of core electrons:        48
 Spin multiplicity:                1
 
                 Cartesian coordinates [bohr]      Atomic mass [AMU]  Z
   1  Cu   -1.36540307   -5.18048377    1.47549119    62.929599      29
   2  Cu    1.01360444    0.91996726   -1.71448485    62.929599      29
   3  Cu   -1.01446306   -0.91986907    1.71721354    62.929599      29
   4  Cu    0.71962262   -3.39954899   -2.07013363    62.929599      29
   5  Cu    1.36572590    5.18026395   -1.47740903    62.929599      29
   6  Cu   -0.71908682    3.39967059    2.06932279    62.929599      29
 
 This molecule is an asymmetric top.
 
 Point group: C1  
 Computational point group: C1  
 
 Cartesian coordinates in standard orientation [bohr]
   1  Cu    5.45122382   -1.07841097   -0.00067830
   2  Cu   -1.23327122    1.81445139   -0.00052449
   3  Cu    1.23357774   -1.81725112    0.00103457
   4  Cu    3.02198866    2.68846194    0.00041308
   5  Cu   -5.45124583    1.08027691    0.00008802
   6  Cu   -3.02227317   -2.68752816   -0.00033287
 
 Nuclear repulsion energy [au]:        987.050078873123
 
 
 Basis set information:
 
 Maximum angular momentum: i
 Maximum number of contracted Gaussians:   16
 Maximum number of primitive Gaussians:    19
 Spherical harmonic GTOs are used.
 
 
 Conventional basis set:
 
   1  Cu def2-svp [ 14s 9p 5d 1f | 5s 3p 2d 1f ]
   2  Cu def2-svp [ 14s 9p 5d 1f | 5s 3p 2d 1f ]
   3  Cu def2-svp [ 14s 9p 5d 1f | 5s 3p 2d 1f ]
   4  Cu def2-svp [ 14s 9p 5d 1f | 5s 3p 2d 1f ]
   5  Cu def2-svp [ 14s 9p 5d 1f | 5s 3p 2d 1f ]
   6  Cu def2-svp [ 14s 9p 5d 1f | 5s 3p 2d 1f ]
 
 Basis functions:
            1             2             3             4             5             6             7             8             9            10
    0    1Cu1s         1Cu2s         1Cu3s         1Cu4s         1Cu5s         1Cu1pz        1Cu1py        1Cu1px        1Cu2pz        1Cu2py    
    1    1Cu2px        1Cu3pz        1Cu3py        1Cu3px        1Cu1d-2       1Cu1d-1       1Cu1d0        1Cu1d+1       1Cu1d+2       1Cu2d-2   
    2    1Cu2d-1       1Cu2d0        1Cu2d+1       1Cu2d+2       1Cu1f-3       1Cu1f-2       1Cu1f-1       1Cu1f0        1Cu1f+1       1Cu1f+2   
    3    1Cu1f+3       2Cu1s         2Cu2s         2Cu3s         2Cu4s         2Cu5s         2Cu1pz        2Cu1py        2Cu1px        2Cu2pz    
    4    2Cu2py        2Cu2px        2Cu3pz        2Cu3py        2Cu3px        2Cu1d-2       2Cu1d-1       2Cu1d0        2Cu1d+1       2Cu1d+2   
    5    2Cu2d-2       2Cu2d-1       2Cu2d0        2Cu2d+1       2Cu2d+2       2Cu1f-3       2Cu1f-2       2Cu1f-1       2Cu1f0        2Cu1f+1   
    6    2Cu1f+2       2Cu1f+3       3Cu1s         3Cu2s         3Cu3s         3Cu4s         3Cu5s         3Cu1pz        3Cu1py        3Cu1px    
    7    3Cu2pz        3Cu2py        3Cu2px        3Cu3pz        3Cu3py        3Cu3px        3Cu1d-2       3Cu1d-1       3Cu1d0        3Cu1d+1   
    8    3Cu1d+2       3Cu2d-2       3Cu2d-1       3Cu2d0        3Cu2d+1       3Cu2d+2       3Cu1f-3       3Cu1f-2       3Cu1f-1       3Cu1f0    
    9    3Cu1f+1       3Cu1f+2       3Cu1f+3       4Cu1s         4Cu2s         4Cu3s         4Cu4s         4Cu5s         4Cu1pz        4Cu1py    
   10    4Cu1px        4Cu2pz        4Cu2py        4Cu2px        4Cu3pz        4Cu3py        4Cu3px        4Cu1d-2       4Cu1d-1       4Cu1d0    
   11    4Cu1d+1       4Cu1d+2       4Cu2d-2       4Cu2d-1       4Cu2d0        4Cu2d+1       4Cu2d+2       4Cu1f-3       4Cu1f-2       4Cu1f-1   
   12    4Cu1f0        4Cu1f+1       4Cu1f+2       4Cu1f+3       5Cu1s         5Cu2s         5Cu3s         5Cu4s         5Cu5s         5Cu1pz    
   13    5Cu1py        5Cu1px        5Cu2pz        5Cu2py        5Cu2px        5Cu3pz        5Cu3py        5Cu3px        5Cu1d-2       5Cu1d-1   
   14    5Cu1d0        5Cu1d+1       5Cu1d+2       5Cu2d-2       5Cu2d-1       5Cu2d0        5Cu2d+1       5Cu2d+2       5Cu1f-3       5Cu1f-2   
   15    5Cu1f-1       5Cu1f0        5Cu1f+1       5Cu1f+2       5Cu1f+3       6Cu1s         6Cu2s         6Cu3s         6Cu4s         6Cu5s     
   16    6Cu1pz        6Cu1py        6Cu1px        6Cu2pz        6Cu2py        6Cu2px        6Cu3pz        6Cu3py        6Cu3px        6Cu1d-2   
   17    6Cu1d-1       6Cu1d0        6Cu1d+1       6Cu1d+2       6Cu2d-2       6Cu2d-1       6Cu2d0        6Cu2d+1       6Cu2d+2       6Cu1f-3   
   18    6Cu1f-2       6Cu1f-1       6Cu1f0        6Cu1f+1       6Cu1f+2       6Cu1f+3   
 
 Maximum number of basis functions per shell:   10
 Total number of basis functions:    186
 
 
 Fitting basis set for the SCF calculation:
 
   1  Cu def2-qzvpp-ri-jk [ 19s 14p 12d 10f 7g 3h 1i | 16s 13p 11d 9f 5g 3h 1i ]
   2  Cu def2-qzvpp-ri-jk [ 19s 14p 12d 10f 7g 3h 1i | 16s 13p 11d 9f 5g 3h 1i ]
   3  Cu def2-qzvpp-ri-jk [ 19s 14p 12d 10f 7g 3h 1i | 16s 13p 11d 9f 5g 3h 1i ]
   4  Cu def2-qzvpp-ri-jk [ 19s 14p 12d 10f 7g 3h 1i | 16s 13p 11d 9f 5g 3h 1i ]
   5  Cu def2-qzvpp-ri-jk [ 19s 14p 12d 10f 7g 3h 1i | 16s 13p 11d 9f 5g 3h 1i ]
   6  Cu def2-qzvpp-ri-jk [ 19s 14p 12d 10f 7g 3h 1i | 16s 13p 11d 9f 5g 3h 1i ]
 
 Basis functions:
            1             2             3             4             5             6             7             8             9            10
    0    1Cu1s         1Cu2s         1Cu3s         1Cu4s         1Cu5s         1Cu6s         1Cu7s         1Cu8s         1Cu9s         1Cu10s    
    1    1Cu11s        1Cu12s        1Cu13s        1Cu14s        1Cu15s        1Cu16s        1Cu1pz        1Cu1py        1Cu1px        1Cu2pz    
    2    1Cu2py        1Cu2px        1Cu3pz        1Cu3py        1Cu3px        1Cu4pz        1Cu4py        1Cu4px        1Cu5pz        1Cu5py    
    3    1Cu5px        1Cu6pz        1Cu6py        1Cu6px        1Cu7pz        1Cu7py        1Cu7px        1Cu8pz        1Cu8py        1Cu8px    
    4    1Cu9pz        1Cu9py        1Cu9px        1Cu10pz       1Cu10py       1Cu10px       1Cu11pz       1Cu11py       1Cu11px       1Cu12pz   
    5    1Cu12py       1Cu12px       1Cu13pz       1Cu13py       1Cu13px       1Cu1d-2       1Cu1d-1       1Cu1d0        1Cu1d+1       1Cu1d+2   
    6    1Cu2d-2       1Cu2d-1       1Cu2d0        1Cu2d+1       1Cu2d+2       1Cu3d-2       1Cu3d-1       1Cu3d0        1Cu3d+1       1Cu3d+2   
    7    1Cu4d-2       1Cu4d-1       1Cu4d0        1Cu4d+1       1Cu4d+2       1Cu5d-2       1Cu5d-1       1Cu5d0        1Cu5d+1       1Cu5d+2   
    8    1Cu6d-2       1Cu6d-1       1Cu6d0        1Cu6d+1       1Cu6d+2       1Cu7d-2       1Cu7d-1       1Cu7d0        1Cu7d+1       1Cu7d+2   
    9    1Cu8d-2       1Cu8d-1       1Cu8d0        1Cu8d+1       1Cu8d+2       1Cu9d-2       1Cu9d-1       1Cu9d0        1Cu9d+1       1Cu9d+2   
   10    1Cu10d-2      1Cu10d-1      1Cu10d0       1Cu10d+1      1Cu10d+2      1Cu11d-2      1Cu11d-1      1Cu11d0       1Cu11d+1      1Cu11d+2  
   11    1Cu1f-3       1Cu1f-2       1Cu1f-1       1Cu1f0        1Cu1f+1       1Cu1f+2       1Cu1f+3       1Cu2f-3       1Cu2f-2       1Cu2f-1   
   12    1Cu2f0        1Cu2f+1       1Cu2f+2       1Cu2f+3       1Cu3f-3       1Cu3f-2       1Cu3f-1       1Cu3f0        1Cu3f+1       1Cu3f+2   
   13    1Cu3f+3       1Cu4f-3       1Cu4f-2       1Cu4f-1       1Cu4f0        1Cu4f+1       1Cu4f+2       1Cu4f+3       1Cu5f-3       1Cu5f-2   
   14    1Cu5f-1       1Cu5f0        1Cu5f+1       1Cu5f+2       1Cu5f+3       1Cu6f-3       1Cu6f-2       1Cu6f-1       1Cu6f0        1Cu6f+1   
   15    1Cu6f+2       1Cu6f+3       1Cu7f-3       1Cu7f-2       1Cu7f-1       1Cu7f0        1Cu7f+1       1Cu7f+2       1Cu7f+3       1Cu8f-3   
   16    1Cu8f-2       1Cu8f-1       1Cu8f0        1Cu8f+1       1Cu8f+2       1Cu8f+3       1Cu9f-3       1Cu9f-2       1Cu9f-1       1Cu9f0    
   17    1Cu9f+1       1Cu9f+2       1Cu9f+3       1Cu1g-4       1Cu1g-3       1Cu1g-2       1Cu1g-1       1Cu1g0        1Cu1g+1       1Cu1g+2   
   18    1Cu1g+3       1Cu1g+4       1Cu2g-4       1Cu2g-3       1Cu2g-2       1Cu2g-1       1Cu2g0        1Cu2g+1       1Cu2g+2       1Cu2g+3   
   19    1Cu2g+4       1Cu3g-4       1Cu3g-3       1Cu3g-2       1Cu3g-1       1Cu3g0        1Cu3g+1       1Cu3g+2       1Cu3g+3       1Cu3g+4   
   20    1Cu4g-4       1Cu4g-3       1Cu4g-2       1Cu4g-1       1Cu4g0        1Cu4g+1       1Cu4g+2       1Cu4g+3       1Cu4g+4       1Cu5g-4   
   21    1Cu5g-3       1Cu5g-2       1Cu5g-1       1Cu5g0        1Cu5g+1       1Cu5g+2       1Cu5g+3       1Cu5g+4       1Cu1h-5       1Cu1h-4   
   22    1Cu1h-3       1Cu1h-2       1Cu1h-1       1Cu1h0        1Cu1h+1       1Cu1h+2       1Cu1h+3       1Cu1h+4       1Cu1h+5       1Cu2h-5   
   23    1Cu2h-4       1Cu2h-3       1Cu2h-2       1Cu2h-1       1Cu2h0        1Cu2h+1       1Cu2h+2       1Cu2h+3       1Cu2h+4       1Cu2h+5   
   24    1Cu3h-5       1Cu3h-4       1Cu3h-3       1Cu3h-2       1Cu3h-1       1Cu3h0        1Cu3h+1       1Cu3h+2       1Cu3h+3       1Cu3h+4   
   25    1Cu3h+5       1Cu1i-6       1Cu1i-5       1Cu1i-4       1Cu1i-3       1Cu1i-2       1Cu1i-1       1Cu1i0        1Cu1i+1       1Cu1i+2   
   26    1Cu1i+3       1Cu1i+4       1Cu1i+5       1Cu1i+6       2Cu1s         2Cu2s         2Cu3s         2Cu4s         2Cu5s         2Cu6s     
   27    2Cu7s         2Cu8s         2Cu9s         2Cu10s        2Cu11s        2Cu12s        2Cu13s        2Cu14s        2Cu15s        2Cu16s    
   28    2Cu1pz        2Cu1py        2Cu1px        2Cu2pz        2Cu2py        2Cu2px        2Cu3pz        2Cu3py        2Cu3px        2Cu4pz    
   29    2Cu4py        2Cu4px        2Cu5pz        2Cu5py        2Cu5px        2Cu6pz        2Cu6py        2Cu6px        2Cu7pz        2Cu7py    
   30    2Cu7px        2Cu8pz        2Cu8py        2Cu8px        2Cu9pz        2Cu9py        2Cu9px        2Cu10pz       2Cu10py       2Cu10px   
   31    2Cu11pz       2Cu11py       2Cu11px       2Cu12pz       2Cu12py       2Cu12px       2Cu13pz       2Cu13py       2Cu13px       2Cu1d-2   
   32    2Cu1d-1       2Cu1d0        2Cu1d+1       2Cu1d+2       2Cu2d-2       2Cu2d-1       2Cu2d0        2Cu2d+1       2Cu2d+2       2Cu3d-2   
   33    2Cu3d-1       2Cu3d0        2Cu3d+1       2Cu3d+2       2Cu4d-2       2Cu4d-1       2Cu4d0        2Cu4d+1       2Cu4d+2       2Cu5d-2   
   34    2Cu5d-1       2Cu5d0        2Cu5d+1       2Cu5d+2       2Cu6d-2       2Cu6d-1       2Cu6d0        2Cu6d+1       2Cu6d+2       2Cu7d-2   
   35    2Cu7d-1       2Cu7d0        2Cu7d+1       2Cu7d+2       2Cu8d-2       2Cu8d-1       2Cu8d0        2Cu8d+1       2Cu8d+2       2Cu9d-2   
   36    2Cu9d-1       2Cu9d0        2Cu9d+1       2Cu9d+2       2Cu10d-2      2Cu10d-1      2Cu10d0       2Cu10d+1      2Cu10d+2      2Cu11d-2  
   37    2Cu11d-1      2Cu11d0       2Cu11d+1      2Cu11d+2      2Cu1f-3       2Cu1f-2       2Cu1f-1       2Cu1f0        2Cu1f+1       2Cu1f+2   
   38    2Cu1f+3       2Cu2f-3       2Cu2f-2       2Cu2f-1       2Cu2f0        2Cu2f+1       2Cu2f+2       2Cu2f+3       2Cu3f-3       2Cu3f-2   
   39    2Cu3f-1       2Cu3f0        2Cu3f+1       2Cu3f+2       2Cu3f+3       2Cu4f-3       2Cu4f-2       2Cu4f-1       2Cu4f0        2Cu4f+1   
   40    2Cu4f+2       2Cu4f+3       2Cu5f-3       2Cu5f-2       2Cu5f-1       2Cu5f0        2Cu5f+1       2Cu5f+2       2Cu5f+3       2Cu6f-3   
   41    2Cu6f-2       2Cu6f-1       2Cu6f0        2Cu6f+1       2Cu6f+2       2Cu6f+3       2Cu7f-3       2Cu7f-2       2Cu7f-1       2Cu7f0    
   42    2Cu7f+1       2Cu7f+2       2Cu7f+3       2Cu8f-3       2Cu8f-2       2Cu8f-1       2Cu8f0        2Cu8f+1       2Cu8f+2       2Cu8f+3   
   43    2Cu9f-3       2Cu9f-2       2Cu9f-1       2Cu9f0        2Cu9f+1       2Cu9f+2       2Cu9f+3       2Cu1g-4       2Cu1g-3       2Cu1g-2   
   44    2Cu1g-1       2Cu1g0        2Cu1g+1       2Cu1g+2       2Cu1g+3       2Cu1g+4       2Cu2g-4       2Cu2g-3       2Cu2g-2       2Cu2g-1   
   45    2Cu2g0        2Cu2g+1       2Cu2g+2       2Cu2g+3       2Cu2g+4       2Cu3g-4       2Cu3g-3       2Cu3g-2       2Cu3g-1       2Cu3g0    
   46    2Cu3g+1       2Cu3g+2       2Cu3g+3       2Cu3g+4       2Cu4g-4       2Cu4g-3       2Cu4g-2       2Cu4g-1       2Cu4g0        2Cu4g+1   
   47    2Cu4g+2       2Cu4g+3       2Cu4g+4       2Cu5g-4       2Cu5g-3       2Cu5g-2       2Cu5g-1       2Cu5g0        2Cu5g+1       2Cu5g+2   
   48    2Cu5g+3       2Cu5g+4       2Cu1h-5       2Cu1h-4       2Cu1h-3       2Cu1h-2       2Cu1h-1       2Cu1h0        2Cu1h+1       2Cu1h+2   
   49    2Cu1h+3       2Cu1h+4       2Cu1h+5       2Cu2h-5       2Cu2h-4       2Cu2h-3       2Cu2h-2       2Cu2h-1       2Cu2h0        2Cu2h+1   
   50    2Cu2h+2       2Cu2h+3       2Cu2h+4       2Cu2h+5       2Cu3h-5       2Cu3h-4       2Cu3h-3       2Cu3h-2       2Cu3h-1       2Cu3h0    
   51    2Cu3h+1       2Cu3h+2       2Cu3h+3       2Cu3h+4       2Cu3h+5       2Cu1i-6       2Cu1i-5       2Cu1i-4       2Cu1i-3       2Cu1i-2   
   52    2Cu1i-1       2Cu1i0        2Cu1i+1       2Cu1i+2       2Cu1i+3       2Cu1i+4       2Cu1i+5       2Cu1i+6       3Cu1s         3Cu2s     
   53    3Cu3s         3Cu4s         3Cu5s         3Cu6s         3Cu7s         3Cu8s         3Cu9s         3Cu10s        3Cu11s        3Cu12s    
   54    3Cu13s        3Cu14s        3Cu15s        3Cu16s        3Cu1pz        3Cu1py        3Cu1px        3Cu2pz        3Cu2py        3Cu2px    
   55    3Cu3pz        3Cu3py        3Cu3px        3Cu4pz        3Cu4py        3Cu4px        3Cu5pz        3Cu5py        3Cu5px        3Cu6pz    
   56    3Cu6py        3Cu6px        3Cu7pz        3Cu7py        3Cu7px        3Cu8pz        3Cu8py        3Cu8px        3Cu9pz        3Cu9py    
   57    3Cu9px        3Cu10pz       3Cu10py       3Cu10px       3Cu11pz       3Cu11py       3Cu11px       3Cu12pz       3Cu12py       3Cu12px   
   58    3Cu13pz       3Cu13py       3Cu13px       3Cu1d-2       3Cu1d-1       3Cu1d0        3Cu1d+1       3Cu1d+2       3Cu2d-2       3Cu2d-1   
   59    3Cu2d0        3Cu2d+1       3Cu2d+2       3Cu3d-2       3Cu3d-1       3Cu3d0        3Cu3d+1       3Cu3d+2       3Cu4d-2       3Cu4d-1   
   60    3Cu4d0        3Cu4d+1       3Cu4d+2       3Cu5d-2       3Cu5d-1       3Cu5d0        3Cu5d+1       3Cu5d+2       3Cu6d-2       3Cu6d-1   
   61    3Cu6d0        3Cu6d+1       3Cu6d+2       3Cu7d-2       3Cu7d-1       3Cu7d0        3Cu7d+1       3Cu7d+2       3Cu8d-2       3Cu8d-1   
   62    3Cu8d0        3Cu8d+1       3Cu8d+2       3Cu9d-2       3Cu9d-1       3Cu9d0        3Cu9d+1       3Cu9d+2       3Cu10d-2      3Cu10d-1  
   63    3Cu10d0       3Cu10d+1      3Cu10d+2      3Cu11d-2      3Cu11d-1      3Cu11d0       3Cu11d+1      3Cu11d+2      3Cu1f-3       3Cu1f-2   
   64    3Cu1f-1       3Cu1f0        3Cu1f+1       3Cu1f+2       3Cu1f+3       3Cu2f-3       3Cu2f-2       3Cu2f-1       3Cu2f0        3Cu2f+1   
   65    3Cu2f+2       3Cu2f+3       3Cu3f-3       3Cu3f-2       3Cu3f-1       3Cu3f0        3Cu3f+1       3Cu3f+2       3Cu3f+3       3Cu4f-3   
   66    3Cu4f-2       3Cu4f-1       3Cu4f0        3Cu4f+1       3Cu4f+2       3Cu4f+3       3Cu5f-3       3Cu5f-2       3Cu5f-1       3Cu5f0    
   67    3Cu5f+1       3Cu5f+2       3Cu5f+3       3Cu6f-3       3Cu6f-2       3Cu6f-1       3Cu6f0        3Cu6f+1       3Cu6f+2       3Cu6f+3   
   68    3Cu7f-3       3Cu7f-2       3Cu7f-1       3Cu7f0        3Cu7f+1       3Cu7f+2       3Cu7f+3       3Cu8f-3       3Cu8f-2       3Cu8f-1   
   69    3Cu8f0        3Cu8f+1       3Cu8f+2       3Cu8f+3       3Cu9f-3       3Cu9f-2       3Cu9f-1       3Cu9f0        3Cu9f+1       3Cu9f+2   
   70    3Cu9f+3       3Cu1g-4       3Cu1g-3       3Cu1g-2       3Cu1g-1       3Cu1g0        3Cu1g+1       3Cu1g+2       3Cu1g+3       3Cu1g+4   
   71    3Cu2g-4       3Cu2g-3       3Cu2g-2       3Cu2g-1       3Cu2g0        3Cu2g+1       3Cu2g+2       3Cu2g+3       3Cu2g+4       3Cu3g-4   
   72    3Cu3g-3       3Cu3g-2       3Cu3g-1       3Cu3g0        3Cu3g+1       3Cu3g+2       3Cu3g+3       3Cu3g+4       3Cu4g-4       3Cu4g-3   
   73    3Cu4g-2       3Cu4g-1       3Cu4g0        3Cu4g+1       3Cu4g+2       3Cu4g+3       3Cu4g+4       3Cu5g-4       3Cu5g-3       3Cu5g-2   
   74    3Cu5g-1       3Cu5g0        3Cu5g+1       3Cu5g+2       3Cu5g+3       3Cu5g+4       3Cu1h-5       3Cu1h-4       3Cu1h-3       3Cu1h-2   
   75    3Cu1h-1       3Cu1h0        3Cu1h+1       3Cu1h+2       3Cu1h+3       3Cu1h+4       3Cu1h+5       3Cu2h-5       3Cu2h-4       3Cu2h-3   
   76    3Cu2h-2       3Cu2h-1       3Cu2h0        3Cu2h+1       3Cu2h+2       3Cu2h+3       3Cu2h+4       3Cu2h+5       3Cu3h-5       3Cu3h-4   
   77    3Cu3h-3       3Cu3h-2       3Cu3h-1       3Cu3h0        3Cu3h+1       3Cu3h+2       3Cu3h+3       3Cu3h+4       3Cu3h+5       3Cu1i-6   
   78    3Cu1i-5       3Cu1i-4       3Cu1i-3       3Cu1i-2       3Cu1i-1       3Cu1i0        3Cu1i+1       3Cu1i+2       3Cu1i+3       3Cu1i+4   
   79    3Cu1i+5       3Cu1i+6       4Cu1s         4Cu2s         4Cu3s         4Cu4s         4Cu5s         4Cu6s         4Cu7s         4Cu8s     
   80    4Cu9s         4Cu10s        4Cu11s        4Cu12s        4Cu13s        4Cu14s        4Cu15s        4Cu16s        4Cu1pz        4Cu1py    
   81    4Cu1px        4Cu2pz        4Cu2py        4Cu2px        4Cu3pz        4Cu3py        4Cu3px        4Cu4pz        4Cu4py        4Cu4px    
   82    4Cu5pz        4Cu5py        4Cu5px        4Cu6pz        4Cu6py        4Cu6px        4Cu7pz        4Cu7py        4Cu7px        4Cu8pz    
   83    4Cu8py        4Cu8px        4Cu9pz        4Cu9py        4Cu9px        4Cu10pz       4Cu10py       4Cu10px       4Cu11pz       4Cu11py   
   84    4Cu11px       4Cu12pz       4Cu12py       4Cu12px       4Cu13pz       4Cu13py       4Cu13px       4Cu1d-2       4Cu1d-1       4Cu1d0    
   85    4Cu1d+1       4Cu1d+2       4Cu2d-2       4Cu2d-1       4Cu2d0        4Cu2d+1       4Cu2d+2       4Cu3d-2       4Cu3d-1       4Cu3d0    
   86    4Cu3d+1       4Cu3d+2       4Cu4d-2       4Cu4d-1       4Cu4d0        4Cu4d+1       4Cu4d+2       4Cu5d-2       4Cu5d-1       4Cu5d0    
   87    4Cu5d+1       4Cu5d+2       4Cu6d-2       4Cu6d-1       4Cu6d0        4Cu6d+1       4Cu6d+2       4Cu7d-2       4Cu7d-1       4Cu7d0    
   88    4Cu7d+1       4Cu7d+2       4Cu8d-2       4Cu8d-1       4Cu8d0        4Cu8d+1       4Cu8d+2       4Cu9d-2       4Cu9d-1       4Cu9d0    
   89    4Cu9d+1       4Cu9d+2       4Cu10d-2      4Cu10d-1      4Cu10d0       4Cu10d+1      4Cu10d+2      4Cu11d-2      4Cu11d-1      4Cu11d0   
   90    4Cu11d+1      4Cu11d+2      4Cu1f-3       4Cu1f-2       4Cu1f-1       4Cu1f0        4Cu1f+1       4Cu1f+2       4Cu1f+3       4Cu2f-3   
   91    4Cu2f-2       4Cu2f-1       4Cu2f0        4Cu2f+1       4Cu2f+2       4Cu2f+3       4Cu3f-3       4Cu3f-2       4Cu3f-1       4Cu3f0    
   92    4Cu3f+1       4Cu3f+2       4Cu3f+3       4Cu4f-3       4Cu4f-2       4Cu4f-1       4Cu4f0        4Cu4f+1       4Cu4f+2       4Cu4f+3   
   93    4Cu5f-3       4Cu5f-2       4Cu5f-1       4Cu5f0        4Cu5f+1       4Cu5f+2       4Cu5f+3       4Cu6f-3       4Cu6f-2       4Cu6f-1   
   94    4Cu6f0        4Cu6f+1       4Cu6f+2       4Cu6f+3       4Cu7f-3       4Cu7f-2       4Cu7f-1       4Cu7f0        4Cu7f+1       4Cu7f+2   
   95    4Cu7f+3       4Cu8f-3       4Cu8f-2       4Cu8f-1       4Cu8f0        4Cu8f+1       4Cu8f+2       4Cu8f+3       4Cu9f-3       4Cu9f-2   
   96    4Cu9f-1       4Cu9f0        4Cu9f+1       4Cu9f+2       4Cu9f+3       4Cu1g-4       4Cu1g-3       4Cu1g-2       4Cu1g-1       4Cu1g0    
   97    4Cu1g+1       4Cu1g+2       4Cu1g+3       4Cu1g+4       4Cu2g-4       4Cu2g-3       4Cu2g-2       4Cu2g-1       4Cu2g0        4Cu2g+1   
   98    4Cu2g+2       4Cu2g+3       4Cu2g+4       4Cu3g-4       4Cu3g-3       4Cu3g-2       4Cu3g-1       4Cu3g0        4Cu3g+1       4Cu3g+2   
   99    4Cu3g+3       4Cu3g+4       4Cu4g-4       4Cu4g-3       4Cu4g-2       4Cu4g-1       4Cu4g0        4Cu4g+1       4Cu4g+2       4Cu4g+3   
  100    4Cu4g+4       4Cu5g-4       4Cu5g-3       4Cu5g-2       4Cu5g-1       4Cu5g0        4Cu5g+1       4Cu5g+2       4Cu5g+3       4Cu5g+4   
  101    4Cu1h-5       4Cu1h-4       4Cu1h-3       4Cu1h-2       4Cu1h-1       4Cu1h0        4Cu1h+1       4Cu1h+2       4Cu1h+3       4Cu1h+4   
  102    4Cu1h+5       4Cu2h-5       4Cu2h-4       4Cu2h-3       4Cu2h-2       4Cu2h-1       4Cu2h0        4Cu2h+1       4Cu2h+2       4Cu2h+3   
  103    4Cu2h+4       4Cu2h+5       4Cu3h-5       4Cu3h-4       4Cu3h-3       4Cu3h-2       4Cu3h-1       4Cu3h0        4Cu3h+1       4Cu3h+2   
  104    4Cu3h+3       4Cu3h+4       4Cu3h+5       4Cu1i-6       4Cu1i-5       4Cu1i-4       4Cu1i-3       4Cu1i-2       4Cu1i-1       4Cu1i0    
  105    4Cu1i+1       4Cu1i+2       4Cu1i+3       4Cu1i+4       4Cu1i+5       4Cu1i+6       5Cu1s         5Cu2s         5Cu3s         5Cu4s     
  106    5Cu5s         5Cu6s         5Cu7s         5Cu8s         5Cu9s         5Cu10s        5Cu11s        5Cu12s        5Cu13s        5Cu14s    
  107    5Cu15s        5Cu16s        5Cu1pz        5Cu1py        5Cu1px        5Cu2pz        5Cu2py        5Cu2px        5Cu3pz        5Cu3py    
  108    5Cu3px        5Cu4pz        5Cu4py        5Cu4px        5Cu5pz        5Cu5py        5Cu5px        5Cu6pz        5Cu6py        5Cu6px    
  109    5Cu7pz        5Cu7py        5Cu7px        5Cu8pz        5Cu8py        5Cu8px        5Cu9pz        5Cu9py        5Cu9px        5Cu10pz   
  110    5Cu10py       5Cu10px       5Cu11pz       5Cu11py       5Cu11px       5Cu12pz       5Cu12py       5Cu12px       5Cu13pz       5Cu13py   
  111    5Cu13px       5Cu1d-2       5Cu1d-1       5Cu1d0        5Cu1d+1       5Cu1d+2       5Cu2d-2       5Cu2d-1       5Cu2d0        5Cu2d+1   
  112    5Cu2d+2       5Cu3d-2       5Cu3d-1       5Cu3d0        5Cu3d+1       5Cu3d+2       5Cu4d-2       5Cu4d-1       5Cu4d0        5Cu4d+1   
  113    5Cu4d+2       5Cu5d-2       5Cu5d-1       5Cu5d0        5Cu5d+1       5Cu5d+2       5Cu6d-2       5Cu6d-1       5Cu6d0        5Cu6d+1   
  114    5Cu6d+2       5Cu7d-2       5Cu7d-1       5Cu7d0        5Cu7d+1       5Cu7d+2       5Cu8d-2       5Cu8d-1       5Cu8d0        5Cu8d+1   
  115    5Cu8d+2       5Cu9d-2       5Cu9d-1       5Cu9d0        5Cu9d+1       5Cu9d+2       5Cu10d-2      5Cu10d-1      5Cu10d0       5Cu10d+1  
  116    5Cu10d+2      5Cu11d-2      5Cu11d-1      5Cu11d0       5Cu11d+1      5Cu11d+2      5Cu1f-3       5Cu1f-2       5Cu1f-1       5Cu1f0    
  117    5Cu1f+1       5Cu1f+2       5Cu1f+3       5Cu2f-3       5Cu2f-2       5Cu2f-1       5Cu2f0        5Cu2f+1       5Cu2f+2       5Cu2f+3   
  118    5Cu3f-3       5Cu3f-2       5Cu3f-1       5Cu3f0        5Cu3f+1       5Cu3f+2       5Cu3f+3       5Cu4f-3       5Cu4f-2       5Cu4f-1   
  119    5Cu4f0        5Cu4f+1       5Cu4f+2       5Cu4f+3       5Cu5f-3       5Cu5f-2       5Cu5f-1       5Cu5f0        5Cu5f+1       5Cu5f+2   
  120    5Cu5f+3       5Cu6f-3       5Cu6f-2       5Cu6f-1       5Cu6f0        5Cu6f+1       5Cu6f+2       5Cu6f+3       5Cu7f-3       5Cu7f-2   
  121    5Cu7f-1       5Cu7f0        5Cu7f+1       5Cu7f+2       5Cu7f+3       5Cu8f-3       5Cu8f-2       5Cu8f-1       5Cu8f0        5Cu8f+1   
  122    5Cu8f+2       5Cu8f+3       5Cu9f-3       5Cu9f-2       5Cu9f-1       5Cu9f0        5Cu9f+1       5Cu9f+2       5Cu9f+3       5Cu1g-4   
  123    5Cu1g-3       5Cu1g-2       5Cu1g-1       5Cu1g0        5Cu1g+1       5Cu1g+2       5Cu1g+3       5Cu1g+4       5Cu2g-4       5Cu2g-3   
  124    5Cu2g-2       5Cu2g-1       5Cu2g0        5Cu2g+1       5Cu2g+2       5Cu2g+3       5Cu2g+4       5Cu3g-4       5Cu3g-3       5Cu3g-2   
  125    5Cu3g-1       5Cu3g0        5Cu3g+1       5Cu3g+2       5Cu3g+3       5Cu3g+4       5Cu4g-4       5Cu4g-3       5Cu4g-2       5Cu4g-1   
  126    5Cu4g0        5Cu4g+1       5Cu4g+2       5Cu4g+3       5Cu4g+4       5Cu5g-4       5Cu5g-3       5Cu5g-2       5Cu5g-1       5Cu5g0    
  127    5Cu5g+1       5Cu5g+2       5Cu5g+3       5Cu5g+4       5Cu1h-5       5Cu1h-4       5Cu1h-3       5Cu1h-2       5Cu1h-1       5Cu1h0    
  128    5Cu1h+1       5Cu1h+2       5Cu1h+3       5Cu1h+4       5Cu1h+5       5Cu2h-5       5Cu2h-4       5Cu2h-3       5Cu2h-2       5Cu2h-1   
  129    5Cu2h0        5Cu2h+1       5Cu2h+2       5Cu2h+3       5Cu2h+4       5Cu2h+5       5Cu3h-5       5Cu3h-4       5Cu3h-3       5Cu3h-2   
  130    5Cu3h-1       5Cu3h0        5Cu3h+1       5Cu3h+2       5Cu3h+3       5Cu3h+4       5Cu3h+5       5Cu1i-6       5Cu1i-5       5Cu1i-4   
  131    5Cu1i-3       5Cu1i-2       5Cu1i-1       5Cu1i0        5Cu1i+1       5Cu1i+2       5Cu1i+3       5Cu1i+4       5Cu1i+5       5Cu1i+6   
  132    6Cu1s         6Cu2s         6Cu3s         6Cu4s         6Cu5s         6Cu6s         6Cu7s         6Cu8s         6Cu9s         6Cu10s    
  133    6Cu11s        6Cu12s        6Cu13s        6Cu14s        6Cu15s        6Cu16s        6Cu1pz        6Cu1py        6Cu1px        6Cu2pz    
  134    6Cu2py        6Cu2px        6Cu3pz        6Cu3py        6Cu3px        6Cu4pz        6Cu4py        6Cu4px        6Cu5pz        6Cu5py    
  135    6Cu5px        6Cu6pz        6Cu6py        6Cu6px        6Cu7pz        6Cu7py        6Cu7px        6Cu8pz        6Cu8py        6Cu8px    
  136    6Cu9pz        6Cu9py        6Cu9px        6Cu10pz       6Cu10py       6Cu10px       6Cu11pz       6Cu11py       6Cu11px       6Cu12pz   
  137    6Cu12py       6Cu12px       6Cu13pz       6Cu13py       6Cu13px       6Cu1d-2       6Cu1d-1       6Cu1d0        6Cu1d+1       6Cu1d+2   
  138    6Cu2d-2       6Cu2d-1       6Cu2d0        6Cu2d+1       6Cu2d+2       6Cu3d-2       6Cu3d-1       6Cu3d0        6Cu3d+1       6Cu3d+2   
  139    6Cu4d-2       6Cu4d-1       6Cu4d0        6Cu4d+1       6Cu4d+2       6Cu5d-2       6Cu5d-1       6Cu5d0        6Cu5d+1       6Cu5d+2   
  140    6Cu6d-2       6Cu6d-1       6Cu6d0        6Cu6d+1       6Cu6d+2       6Cu7d-2       6Cu7d-1       6Cu7d0        6Cu7d+1       6Cu7d+2   
  141    6Cu8d-2       6Cu8d-1       6Cu8d0        6Cu8d+1       6Cu8d+2       6Cu9d-2       6Cu9d-1       6Cu9d0        6Cu9d+1       6Cu9d+2   
  142    6Cu10d-2      6Cu10d-1      6Cu10d0       6Cu10d+1      6Cu10d+2      6Cu11d-2      6Cu11d-1      6Cu11d0       6Cu11d+1      6Cu11d+2  
  143    6Cu1f-3       6Cu1f-2       6Cu1f-1       6Cu1f0        6Cu1f+1       6Cu1f+2       6Cu1f+3       6Cu2f-3       6Cu2f-2       6Cu2f-1   
  144    6Cu2f0        6Cu2f+1       6Cu2f+2       6Cu2f+3       6Cu3f-3       6Cu3f-2       6Cu3f-1       6Cu3f0        6Cu3f+1       6Cu3f+2   
  145    6Cu3f+3       6Cu4f-3       6Cu4f-2       6Cu4f-1       6Cu4f0        6Cu4f+1       6Cu4f+2       6Cu4f+3       6Cu5f-3       6Cu5f-2   
  146    6Cu5f-1       6Cu5f0        6Cu5f+1       6Cu5f+2       6Cu5f+3       6Cu6f-3       6Cu6f-2       6Cu6f-1       6Cu6f0        6Cu6f+1   
  147    6Cu6f+2       6Cu6f+3       6Cu7f-3       6Cu7f-2       6Cu7f-1       6Cu7f0        6Cu7f+1       6Cu7f+2       6Cu7f+3       6Cu8f-3   
  148    6Cu8f-2       6Cu8f-1       6Cu8f0        6Cu8f+1       6Cu8f+2       6Cu8f+3       6Cu9f-3       6Cu9f-2       6Cu9f-1       6Cu9f0    
  149    6Cu9f+1       6Cu9f+2       6Cu9f+3       6Cu1g-4       6Cu1g-3       6Cu1g-2       6Cu1g-1       6Cu1g0        6Cu1g+1       6Cu1g+2   
  150    6Cu1g+3       6Cu1g+4       6Cu2g-4       6Cu2g-3       6Cu2g-2       6Cu2g-1       6Cu2g0        6Cu2g+1       6Cu2g+2       6Cu2g+3   
  151    6Cu2g+4       6Cu3g-4       6Cu3g-3       6Cu3g-2       6Cu3g-1       6Cu3g0        6Cu3g+1       6Cu3g+2       6Cu3g+3       6Cu3g+4   
  152    6Cu4g-4       6Cu4g-3       6Cu4g-2       6Cu4g-1       6Cu4g0        6Cu4g+1       6Cu4g+2       6Cu4g+3       6Cu4g+4       6Cu5g-4   
  153    6Cu5g-3       6Cu5g-2       6Cu5g-1       6Cu5g0        6Cu5g+1       6Cu5g+2       6Cu5g+3       6Cu5g+4       6Cu1h-5       6Cu1h-4   
  154    6Cu1h-3       6Cu1h-2       6Cu1h-1       6Cu1h0        6Cu1h+1       6Cu1h+2       6Cu1h+3       6Cu1h+4       6Cu1h+5       6Cu2h-5   
  155    6Cu2h-4       6Cu2h-3       6Cu2h-2       6Cu2h-1       6Cu2h0        6Cu2h+1       6Cu2h+2       6Cu2h+3       6Cu2h+4       6Cu2h+5   
  156    6Cu3h-5       6Cu3h-4       6Cu3h-3       6Cu3h-2       6Cu3h-1       6Cu3h0        6Cu3h+1       6Cu3h+2       6Cu3h+3       6Cu3h+4   
  157    6Cu3h+5       6Cu1i-6       6Cu1i-5       6Cu1i-4       6Cu1i-3       6Cu1i-2       6Cu1i-1       6Cu1i0        6Cu1i+1       6Cu1i+2   
  158    6Cu1i+3       6Cu1i+4       6Cu1i+5       6Cu1i+6   
 
 Maximum number of basis functions per shell:   63
 Total number of basis functions:   1584
 
 
 Effective core potentials:
 
   1  Cu mcdhf-ecp-10        
   2  Cu mcdhf-ecp-10        
   3  Cu mcdhf-ecp-10        
   4  Cu mcdhf-ecp-10        
   5  Cu mcdhf-ecp-10        
   6  Cu mcdhf-ecp-10        
 
 Initializing the SAD routines for the initial guess...
 Checking the files required for the initial guess...
 Density files have not been found for the initial guess.
 Generating SCFDENSITIES.Cu.def2-svp.0
 CPU time [min]:     0.120                   Wall time [min]:     0.172
 
 Character table for point group C1:
 
          E  
    A     1
 
 Number of basis functions per irrep:
    A     186
 
 
 Calculation of overlap integrals...
 CPU time [min]:     0.122                   Wall time [min]:     0.173
 
 Calculation of the square root of the overlap matrix...
 Minimum eigenvalue of the overlap matrix: 0.119531E-01
 CPU time [min]:     0.148                   Wall time [min]:     0.174
 
 Calculation of kinetic energy integrals...
 CPU time [min]:     0.150                   Wall time [min]:     0.174
 Calculation of dipole moment integrals...
 CPU time [min]:     0.151                   Wall time [min]:     0.174
 Calculation of nuclear attraction integrals...
 CPU time [min]:     0.155                   Wall time [min]:     0.174
 Calculation of core potential integrals...
 CPU time [min]:     0.317                   Wall time [min]:     0.224
 
 Calculation of prescreening integrals...
 CPU time [min]:     0.994                   Wall time [min]:     0.244
 
 Calculation of two-center Coulomb integrals...
   1% done.
  12% done.
  24% done.
  37% done.
  49% done.
  60% done.
  71% done.
  82% done.
  94% done.
 100% done.
 CPU time [min]:     1.022                   Wall time [min]:     0.245
 
 Cholesky decomposition of the two-center matrix...
 Reciprocal of the condition number:  0.274408E-05
 CPU time [min]:     1.105                   Wall time [min]:     0.247
 
 
 Running small-basis SCF...

 ************************ 2023-02-04 10:27:08 *************************
 Executing scf...

 @scfsetup: integrals calculated directly
            mrcc/integ direct run
 @scfsetup: calculating on full matrices
            not using symmetry adapted basis
 @scfsetup: diis switched on
 @scfsetup: number of steps to extrapolate from  10
 @scfsetup: tolerance in energy deviation    0.100000E-05
            tolerance in density deviation    0.100000E-06
 @scfsetup: maximum number of iterations:  50
 @scfsetup: restricted closed shell hf calc
 @scfsetup: starting scf from superposition of atomic densities
 @scfsetup: occupation set:
            from initial orbitals
 @scfsetup: Parameter-set for SCF acceleration: difficult
 @scfsetup: diis runs from iteration:   2
 @scfsetup: diis runs to iteration:  50
 @scfsetup: diis runs in every iteration
 @scfsetup: diiswatch is disabled                   
 @scfsetup: diis dtol criteria to switch on:      0.0000E+00
           (or the iteration number below is reached)
 @scfsetup: damping is turned off.
 @scfsetup: dynamic level shifting
            tolarance in HOMO-LUMO gap:  0.200
            tolarance in density deviation:     0.0000E+00
            iteration step criteria to turn level shifting off: 8
 Allocation of 220.0 Gbytes of memory...
 ======================================================================
 ITERATION STEP   1
 CPU time [min]:     0.030                   Wall time [min]:     0.005
 

 SCF control                  : initial
 Damping factor/level shift   : 0.000/0.200
 DIIS [start/end/frequency]   :   2 / 50 /  1

 Constructing Fock-matrix...
 
 Pipek-Mezey localization...
 Step  Convergence
   1  51.055721661658
   2  13.997755107603
   3   3.118959008054
   4   0.348557447914
   5   0.010779313567
   6   0.007220424717
   7   0.005694927429
   8   0.004535836068
   9   0.002976079745
  10   0.001501603054
  11   0.000586292732
  12   0.000191265478
  13   0.000056679539
  14   0.000016097429
  15   0.000004491776
  16   0.000001243945
  17   0.000000405566
 CPU time [min]:     0.073                   Wall time [min]:     0.007
 
 Constructing local fitting domains...
 Maximum number of atoms in fitting domains:    6
 Average number of atoms in fitting domains:    5.7
 
 First step of Coulomb + first step of exchange...
 Exchange contribution is evaluated for MOs 1 to 57.
   1% done.
  13% done.
  25% done.
  40% done.
  55% done.
  70% done.
  83% done.
 100% done.
 Fitting and assembly step of exchange...
 CPU time [min]:     1.587                   Wall time [min]:     0.049
 
 Second step of Coulomb...
   1% done.
  13% done.
  25% done.
  40% done.
  55% done.
  70% done.
  83% done.
 100% done.
 CPU time [min]:     1.673                   Wall time [min]:     0.051
 
 Gradient norm:      4.5462E+00
 RMS of [F,P]:                                         0.06061957719856
 RMS of difference density:                            0.63928438982389
 Gap [au]:  0.00026919
 ALPHA OCC:  57
 BETA  OCC:  57
 
 ***HARTREE-FOCK ENERGY IN STEP   1 IS      -1153.0258762418611695 [AU]
 ======================================================================
 ITERATION STEP   2
 CPU time [min]:     1.692                   Wall time [min]:     0.052
 

 SCF control                  : diis
 Damping factor/level shift   : 0.000/0.200
 DIIS [start/end/frequency]   :   2 / 50 /  1

 Constructing Fock-matrix...
 Inverse square root: The matrix is not positive definite!
 
 Pipek-Mezey localization...
 Step  Convergence
   1  36.341536561864
   2   9.242994432883
   3   2.775293586492
   4   0.291507853338
   5   0.087668664384
   6   0.021056725197
   7   0.005204975623
   8   0.001814132479
   9   0.000709145277
  10   0.000539581435
  11   0.000537239384
  12   0.000553482633
  13   0.000501904825
  14   0.000397453246
  15   0.000280388080
  16   0.000183509670
  17   0.000112797812
  18   0.000065968252
  19   0.000036597720
  20   0.000020150214
  21   0.000011337381
  22   0.000006138633
  23   0.000003451450
  24   0.000001855270
  25   0.000001052613
  26   0.000000567310
 CPU time [min]:     1.746                   Wall time [min]:     0.054
 
 Constructing local fitting domains...
 Maximum number of atoms in fitting domains:    6
 Average number of atoms in fitting domains:    5.8
 
 First step of Coulomb + first step of exchange...
 Exchange contribution is evaluated for MOs 1 to 57.
   1% done.
  13% done.
  25% done.
  40% done.
  55% done.
  70% done.
  83% done.
 100% done.
 Fitting and assembly step of exchange...
 CPU time [min]:     3.241                   Wall time [min]:     0.095
 
 Second step of Coulomb...
   1% done.
  13% done.
  25% done.
  40% done.
  55% done.
  70% done.
  83% done.
 100% done.
 CPU time [min]:     3.323                   Wall time [min]:     0.097
 
 Gradient norm:      5.9765E+00
 DIIS is running in this iteration step.
 RMS of [F,P]:                                         0.14188902972273
 RMS of difference density:                            0.63458290211046
 Gap [au]:  0.10871750
 ALPHA OCC:  57
 BETA  OCC:  57
 
 ***HARTREE-FOCK ENERGY IN STEP   2 IS      -1106.7503993333166363 [AU]
 
 Step comparison  Energy Drift [au]  DIIS error drift  Gradient drift
        1           -4.6275E+01        -8.1269E-02      -1.4303E+00
        2            1.1068E+03         1.0000E-07      -1.4303E+00
 Warning! The energy goes uphill (with respect to previous step).
 Warning! The gradient goes uphill (with respect to previous step).
 Warning! The gradient goes uphill (with respect to step   1 ).
 ======================================================================
 ITERATION STEP   3
 CPU time [min]:     3.338                   Wall time [min]:     0.098
 

 SCF control                  : diis
 Damping factor/level shift   : 0.000/0.200
 DIIS [start/end/frequency]   :   2 / 50 /  1

 Constructing Fock-matrix...
 Inverse square root: The matrix is not positive definite!
 
 Pipek-Mezey localization...
 Step  Convergence
   1  11.934192374410
   2   3.466172007217
   3   0.089428175157
   4   0.000072026825
   5   0.000000009696
 CPU time [min]:     3.367                   Wall time [min]:     0.099
 
 Constructing local fitting domains...
 Maximum number of atoms in fitting domains:    6
 Average number of atoms in fitting domains:    5.7
 
 First step of Coulomb + first step of exchange...
 Exchange contribution is evaluated for MOs 1 to 57.
   1% done.
  13% done.
  25% done.
  40% done.
  55% done.
  70% done.
  83% done.
 100% done.
 Fitting and assembly step of exchange...
 CPU time [min]:     4.833                   Wall time [min]:     0.140
 
 Second step of Coulomb...
   1% done.
  13% done.
  25% done.
  40% done.
  55% done.
  70% done.
  83% done.
 100% done.
 CPU time [min]:     4.914                   Wall time [min]:     0.142
 
 Gradient norm:      3.1387E+00
 DIIS is running in this iteration step.
 RMS of [F,P]:                                         0.08323513841035
 RMS of difference density:                            0.03065512618532
 Gap [au]:  0.08204136
 ALPHA OCC:  57
 BETA  OCC:  57
 
 ***HARTREE-FOCK ENERGY IN STEP   3 IS      -1147.6664893278502859 [AU]
 
 Step comparison  Energy Drift [au]  DIIS error drift  Gradient drift
        2            4.0916E+01         5.8654E-02       2.8378E+00
 ======================================================================
 ITERATION STEP   4
 CPU time [min]:     4.954                   Wall time [min]:     0.143
 

 SCF control                  : diis
 Damping factor/level shift   : 0.000/0.200
 DIIS [start/end/frequency]   :   2 / 50 /  1

 Constructing Fock-matrix...
 
 Pipek-Mezey localization...
 Step  Convergence
   1  13.913796770029
   2   6.733879137248
   3   1.447618878262
   4   0.014621322872
   5   0.000003865920
   6   0.000000001652
 CPU time [min]:     4.984                   Wall time [min]:     0.144
 
 Constructing local fitting domains...
 Local fitting domains are unchanged.
 
 First step of Coulomb + first step of exchange...
 Exchange contribution is evaluated for MOs 1 to 57.
   1% done.
  13% done.
  25% done.
  40% done.
  55% done.
  70% done.
  83% done.
 100% done.
 Fitting and assembly step of exchange...
 CPU time [min]:     6.448                   Wall time [min]:     0.185
 
 Second step of Coulomb...
   1% done.
  13% done.
  25% done.
  40% done.
  55% done.
  70% done.
  83% done.
 100% done.
 CPU time [min]:     6.530                   Wall time [min]:     0.187
 
 Gradient norm:      1.0731E+00
 DIIS is running in this iteration step.
 RMS of [F,P]:                                         0.02772536111863
 RMS of difference density:                            0.01732442571351
 Gap [au]:  0.07975701
 ALPHA OCC:  57
 BETA  OCC:  57
 
 ***HARTREE-FOCK ENERGY IN STEP   4 IS      -1163.3575649927688573 [AU]
 
 Step comparison  Energy Drift [au]  DIIS error drift  Gradient drift
        3            1.5691E+01         5.5510E-02       2.0655E+00
 ======================================================================
 ITERATION STEP   5
 CPU time [min]:     6.544                   Wall time [min]:     0.187
 

 SCF control                  : diis
 Damping factor/level shift   : 0.000/0.200
 DIIS [start/end/frequency]   :   2 / 50 /  1

 Constructing Fock-matrix...
 
 Pipek-Mezey localization...
 Step  Convergence
   1  17.774480433310
   2   4.561099124822
   3   0.119127517118
   4   0.009364493868
   5   0.000000253543
 CPU time [min]:     6.571                   Wall time [min]:     0.188
 
 Constructing local fitting domains...
 Local fitting domains are unchanged.
 
 First step of Coulomb + first step of exchange...
 Exchange contribution is evaluated for MOs 1 to 57.
   1% done.
  13% done.
  25% done.
  40% done.
  55% done.
  70% done.
  83% done.
 100% done.
 Fitting and assembly step of exchange...
 CPU time [min]:     8.037                   Wall time [min]:     0.229
 
 Second step of Coulomb...
   1% done.
  13% done.
  25% done.
  40% done.
  55% done.
  70% done.
  83% done.
 100% done.
 CPU time [min]:     8.118                   Wall time [min]:     0.231
 
 Gradient norm:      3.9283E-01
 DIIS is running in this iteration step.
 RMS of [F,P]:                                         0.00710770004166
 RMS of difference density:                            0.00789145944108
 Gap [au]:  0.09122253
 ALPHA OCC:  57
 BETA  OCC:  57
 
 ***HARTREE-FOCK ENERGY IN STEP   5 IS      -1165.3474800225585568 [AU]
 
 Step comparison  Energy Drift [au]  DIIS error drift  Gradient drift
        4            1.9899E+00         2.0618E-02       6.8031E-01
 ======================================================================
 ITERATION STEP   6
 CPU time [min]:     8.132                   Wall time [min]:     0.232
 

 SCF control                  : diis
 Damping factor/level shift   : 0.000/0.200
 DIIS [start/end/frequency]   :   2 / 50 /  1

 Constructing Fock-matrix...
 
 Pipek-Mezey localization...
 Step  Convergence
   1  18.855013524528
   2   6.582562099709
   3   0.348264903544
   4   0.000786537928
   5   0.000000444693
 CPU time [min]:     8.160                   Wall time [min]:     0.233
 
 Constructing local fitting domains...
 Local fitting domains are unchanged.
 
 First step of Coulomb + first step of exchange...
 Exchange contribution is evaluated for MOs 1 to 57.
   1% done.
  13% done.
  25% done.
  40% done.
  55% done.
  70% done.
  83% done.
 100% done.
 Fitting and assembly step of exchange...
 CPU time [min]:     9.626                   Wall time [min]:     0.273
 
 Second step of Coulomb...
   1% done.
  13% done.
  25% done.
  40% done.
  55% done.
  70% done.
  83% done.
 100% done.
 CPU time [min]:     9.707                   Wall time [min]:     0.276
 
 Gradient norm:      1.5396E-01
 DIIS is running in this iteration step.
 RMS of [F,P]:                                         0.00368361277685
 RMS of difference density:                            0.00495324121698
 Gap [au]:  0.09915104
 ALPHA OCC:  57
 BETA  OCC:  57
 
 ***HARTREE-FOCK ENERGY IN STEP   6 IS      -1165.4808335942270787 [AU]
 
 Step comparison  Energy Drift [au]  DIIS error drift  Gradient drift
        5            1.3335E-01         3.4241E-03       2.3886E-01
 ======================================================================
 ITERATION STEP   7
 CPU time [min]:     9.721                   Wall time [min]:     0.276
 

 SCF control                  : diis
 Damping factor/level shift   : 0.000/0.200
 DIIS [start/end/frequency]   :   2 / 50 /  1

 Constructing Fock-matrix...
 
 Pipek-Mezey localization...
 Step  Convergence
   1  19.722951234727
   2   7.621841590018
   3   2.127500650387
   4   0.355468426165
   5   0.037709833711
   6   0.005436761591
   7   0.000738687832
   8   0.000106091814
   9   0.000015005183
  10   0.000002136180
  11   0.000000304440
  12   0.000000043595
 CPU time [min]:     9.758                   Wall time [min]:     0.277
 
 Constructing local fitting domains...
 Local fitting domains are unchanged.
 
 First step of Coulomb + first step of exchange...
 Exchange contribution is evaluated for MOs 1 to 57.
   1% done.
  13% done.
  25% done.
  40% done.
  55% done.
  70% done.
  83% done.
 100% done.
 Fitting and assembly step of exchange...
 CPU time [min]:    11.223                   Wall time [min]:     0.318
 
 Second step of Coulomb...
   1% done.
  13% done.
  25% done.
  40% done.
  55% done.
  70% done.
  83% done.
 100% done.
 CPU time [min]:    11.304                   Wall time [min]:     0.320
 
 Gradient norm:      7.3661E-02
 DIIS is running in this iteration step.
 RMS of [F,P]:                                         0.00082285685903
 RMS of difference density:                            0.00321132479453
 Gap [au]:  0.10440375
 ALPHA OCC:  57
 BETA  OCC:  57
 
 ***HARTREE-FOCK ENERGY IN STEP   7 IS      -1165.5245231947860702 [AU]
 
 Step comparison  Energy Drift [au]  DIIS error drift  Gradient drift
        6            4.3690E-02         2.8608E-03       8.0302E-02
 ======================================================================
 ITERATION STEP   8
 CPU time [min]:    11.339                   Wall time [min]:     0.321
 

 SCF control                  : diis
 Damping factor/level shift   : 0.000/0.200
 DIIS [start/end/frequency]   :   2 / 50 /  1

 Constructing Fock-matrix...
 
 Pipek-Mezey localization...
 Step  Convergence
   1  23.203153974639
   2   6.913977307014
   3   5.748021039632
   4   3.242877184940
   5   0.279470710072
   6   0.115751994533
   7   0.000040784219
   8   0.000000597773
   9   0.000000010032
  10   0.000000000178
 CPU time [min]:    11.373                   Wall time [min]:     0.322
 
 Constructing local fitting domains...
 Local fitting domains are unchanged.
 
 First step of Coulomb + first step of exchange...
 Exchange contribution is evaluated for MOs 1 to 57.
   1% done.
  13% done.
  25% done.
  40% done.
  55% done.
  70% done.
  83% done.
 100% done.
 Fitting and assembly step of exchange...
 CPU time [min]:    12.835                   Wall time [min]:     0.363
 
 Second step of Coulomb...
   1% done.
  13% done.
  25% done.
  40% done.
  55% done.
  70% done.
  83% done.
 100% done.
 CPU time [min]:    12.916                   Wall time [min]:     0.365
 
 Gradient norm:      4.5919E-02
 DIIS is running in this iteration step.
 RMS of [F,P]:                                         0.00033999740236
 RMS of difference density:                            0.00160958005163
 Gap [au]:  0.10485779
 ALPHA OCC:  57
 BETA  OCC:  57
 
 ***HARTREE-FOCK ENERGY IN STEP   8 IS      -1165.5333343837737630 [AU]
 
 Step comparison  Energy Drift [au]  DIIS error drift  Gradient drift
        7            8.8112E-03         4.8286E-04       2.7742E-02
 ======================================================================
 ITERATION STEP   9
 CPU time [min]:    12.930                   Wall time [min]:     0.366
 

 SCF control                  : diis
 Damping factor/level shift   : 0.000/0.000
 DIIS [start/end/frequency]   :   2 / 50 /  1

 Constructing Fock-matrix...
 
 Pipek-Mezey localization...
 Step  Convergence
   1  23.141521238826
   2  10.660614528091
   3   8.056848098945
   4   2.572936795455
   5   0.317654991879
   6   0.108425226891
   7   0.002639265913
   8   0.048413720177
   9   0.003355287287
  10   0.000344740189
  11   0.000045957992
  12   0.000006450021
  13   0.000000904513
  14   0.000000127055
  15   0.000000017846
  16   0.000000002508
  17   0.000000000352
 CPU time [min]:    12.973                   Wall time [min]:     0.367
 
 Constructing local fitting domains...
 Local fitting domains are unchanged.
 
 First step of Coulomb + first step of exchange...
 Exchange contribution is evaluated for MOs 1 to 57.
   1% done.
  13% done.
  25% done.
  40% done.
  55% done.
  70% done.
  83% done.
 100% done.
 Fitting and assembly step of exchange...
 CPU time [min]:    14.436                   Wall time [min]:     0.408
 
 Second step of Coulomb...
   1% done.
  13% done.
  25% done.
  40% done.
  55% done.
  70% done.
  83% done.
 100% done.
 CPU time [min]:    14.517                   Wall time [min]:     0.410
 
 Gradient norm:      2.5815E-02
 DIIS is running in this iteration step.
 RMS of [F,P]:                                         0.00019812411662
 RMS of difference density:                            0.00201264074758
 Gap [au]:  0.10451427
 ALPHA OCC:  57
 BETA  OCC:  57
 
 ***HARTREE-FOCK ENERGY IN STEP   9 IS      -1165.5357068252096724 [AU]
 
 Step comparison  Energy Drift [au]  DIIS error drift  Gradient drift
        8            2.3724E-03         1.4187E-04       2.0104E-02
 ======================================================================
 ITERATION STEP  10
 CPU time [min]:    14.531                   Wall time [min]:     0.410
 

 SCF control                  : diis
 Damping factor/level shift   : 0.000/0.000
 DIIS [start/end/frequency]   :   2 / 50 /  1

 Constructing Fock-matrix...
 
 Pipek-Mezey localization...
 Step  Convergence
   1  19.609376549776
   2   7.300175596049
   3   9.264841171451
   4   2.953330901545
   5   0.769214346500
   6   0.049784573530
   7   0.002737770944
   8   0.000171427282
   9   0.000012692873
  10   0.000001066025
  11   0.000000096148
  12   0.000000010203
  13   0.000000001156
  14   0.000000000171
  15   0.000000000030
 CPU time [min]:    14.571                   Wall time [min]:     0.411
 
 Constructing local fitting domains...
 Local fitting domains are unchanged.
 
 First step of Coulomb + first step of exchange...
 Exchange contribution is evaluated for MOs 1 to 57.
   1% done.
  13% done.
  25% done.
  40% done.
  55% done.
  70% done.
  83% done.
 100% done.
 Fitting and assembly step of exchange...
 CPU time [min]:    16.032                   Wall time [min]:     0.452
 
 Second step of Coulomb...
   1% done.
  13% done.
  25% done.
  40% done.
  55% done.
  70% done.
  83% done.
 100% done.
 CPU time [min]:    16.113                   Wall time [min]:     0.454
 
 Gradient norm:      2.0408E-02
 DIIS is running in this iteration step.
 RMS of [F,P]:                                         0.00015676527501
 RMS of difference density:                            0.00077775911053
 Gap [au]:  0.10461548
 ALPHA OCC:  57
 BETA  OCC:  57
 
 ***HARTREE-FOCK ENERGY IN STEP  10 IS      -1165.5378327159451146 [AU]
 
 Step comparison  Energy Drift [au]  DIIS error drift  Gradient drift
        9            2.1259E-03         4.1359E-05       5.4072E-03
 ======================================================================
 ITERATION STEP  11
 CPU time [min]:    16.127                   Wall time [min]:     0.455
 

 SCF control                  : diis
 Damping factor/level shift   : 0.000/0.000
 DIIS [start/end/frequency]   :   2 / 50 /  1

 Constructing Fock-matrix...
 
 Pipek-Mezey localization...
 Step  Convergence
   1  20.830331038849
   2   8.497160859779
   3  13.136824164548
   4   6.428895328444
   5   1.267397205423
   6   0.417962590139
   7   0.013020330588
   8   0.000185890668
   9   0.000010126935
  10   0.000000639345
  11   0.000000036945
  12   0.000000002293
  13   0.000000000132
  14   0.000000000008
 CPU time [min]:    16.166                   Wall time [min]:     0.456
 
 Constructing local fitting domains...
 Local fitting domains are unchanged.
 
 First step of Coulomb + first step of exchange...
 Exchange contribution is evaluated for MOs 1 to 57.
   1% done.
  13% done.
  25% done.
  40% done.
  55% done.
  70% done.
  83% done.
 100% done.
 Fitting and assembly step of exchange...
 CPU time [min]:    17.630                   Wall time [min]:     0.497
 
 Second step of Coulomb...
   1% done.
  13% done.
  25% done.
  40% done.
  55% done.
  70% done.
  83% done.
 100% done.
 CPU time [min]:    17.711                   Wall time [min]:     0.499
 
 Gradient norm:      2.3592E-02
 DIIS is running in this iteration step.
 RMS of [F,P]:                                         0.00012785544359
 RMS of difference density:                            0.00005359385505
 Gap [au]:  0.10463890
 ALPHA OCC:  57
 BETA  OCC:  57
 
 ***HARTREE-FOCK ENERGY IN STEP  11 IS      -1165.5388498854954378 [AU]
 
 Step comparison  Energy Drift [au]  DIIS error drift  Gradient drift
       10            1.0172E-03         2.8910E-05      -3.1840E-03
 Warning! The gradient goes uphill (with respect to previous step).
 Warning! The gradient goes uphill (with respect to step  10 ).
 ======================================================================
 ITERATION STEP  12
 CPU time [min]:    17.731                   Wall time [min]:     0.500
 

 SCF control                  : diis
 Damping factor/level shift   : 0.000/0.000
 DIIS [start/end/frequency]   :   2 / 50 /  1

 Constructing Fock-matrix...
 
 Pipek-Mezey localization...
 Step  Convergence
   1  21.958292782994
   2  10.737185305927
   3  16.107351825961
   4   7.627288981314
   5   1.739626096693
   6   0.181759608073
   7   0.006439464481
   8   0.000032036625
   9   0.000001665957
  10   0.000000101194
  11   0.000000007972
  12   0.000000000662
  13   0.000000000057
  14   0.000000000005
  15   0.000000000000
 CPU time [min]:    17.771                   Wall time [min]:     0.501
 
 Constructing local fitting domains...
 Local fitting domains are unchanged.
 
 First step of Coulomb + first step of exchange...
 Exchange contribution is evaluated for MOs 1 to 57.
   1% done.
  13% done.
  25% done.
  40% done.
  55% done.
  70% done.
  83% done.
 100% done.
 Fitting and assembly step of exchange...
 CPU time [min]:    19.237                   Wall time [min]:     0.542
 
 Second step of Coulomb...
   1% done.
  13% done.
  25% done.
  40% done.
  55% done.
  70% done.
  83% done.
 100% done.
 CPU time [min]:    19.319                   Wall time [min]:     0.544
 
 Gradient norm:      2.3818E-02
 DIIS is running in this iteration step.
 RMS of [F,P]:                                         0.00012897251342
 RMS of difference density:                            0.00274164195054
 Gap [au]:  0.10911003
 ALPHA OCC:  57
 BETA  OCC:  57
 
 ***HARTREE-FOCK ENERGY IN STEP  12 IS      -1165.5389237047684219 [AU]
 
 Step comparison  Energy Drift [au]  DIIS error drift  Gradient drift
       11            7.3819E-05        -1.1171E-06      -2.2603E-04
 Warning! The DIIS error goes uphill (with respect to previous step).
 Warning! The DIIS error goes uphill (with respect to step  11 ).
 Warning! The gradient goes uphill (with respect to previous step).
 Warning! The gradient goes uphill (with respect to step  10 ).
 ======================================================================
 ITERATION STEP  13
 CPU time [min]:    19.333                   Wall time [min]:     0.544
 

 SCF control                  : diis
 Damping factor/level shift   : 0.000/0.000
 DIIS [start/end/frequency]   :   2 / 50 /  1

 Constructing Fock-matrix...
 
 Pipek-Mezey localization...
 Step  Convergence
   1  23.841237300009
   2  11.752852481085
   3  16.944309947127
   4   8.319146062766
   5   4.257832629516
   6   1.269818271996
   7   0.009236135549
   8   0.000140847183
   9   0.000011296492
  10   0.000000317617
  11   0.000000064226
  12   0.000000001827
  13   0.000000000411
  14   0.000000000012
  15   0.000000000003
  16   0.000000000000
 CPU time [min]:    19.375                   Wall time [min]:     0.545
 
 Constructing local fitting domains...
 Local fitting domains are unchanged.
 
 First step of Coulomb + first step of exchange...
 Exchange contribution is evaluated for MOs 1 to 57.
   1% done.
  13% done.
  25% done.
  40% done.
  55% done.
  70% done.
  83% done.
 100% done.
 Fitting and assembly step of exchange...
 CPU time [min]:    20.840                   Wall time [min]:     0.586
 
 Second step of Coulomb...
   1% done.
  13% done.
  25% done.
  40% done.
  55% done.
  70% done.
  83% done.
 100% done.
 CPU time [min]:    20.922                   Wall time [min]:     0.589
 
 Gradient norm:      1.0441E-02
 DIIS is running in this iteration step.
 RMS of [F,P]:                                         0.00008589561921
 RMS of difference density:                            0.00092376542823
 Gap [au]:  0.10878290
 ALPHA OCC:  57
 BETA  OCC:  57
 
 ***HARTREE-FOCK ENERGY IN STEP  13 IS      -1165.5361012889507037 [AU]
 
 Step comparison  Energy Drift [au]  DIIS error drift  Gradient drift
       12           -2.8224E-03         4.3077E-05       1.3377E-02
       13           -2.7486E-03         4.1960E-05       9.9667E-03
 Warning! The energy goes uphill (with respect to previous step).
 ======================================================================
 ITERATION STEP  14
 CPU time [min]:    20.936                   Wall time [min]:     0.589
 

 SCF control                  : diis
 Damping factor/level shift   : 0.000/0.000
 DIIS [start/end/frequency]   :   2 / 50 /  1

 Constructing Fock-matrix...
 
 Pipek-Mezey localization...
 Step  Convergence
   1  24.284242688186
   2   6.870205904865
   3  13.390090797980
   4   4.533537994504
   5   1.275693696505
   6   0.157840593026
   7   0.002384093118
   8   0.000060606901
   9   0.000001707723
  10   0.000000374573
  11   0.000000011407
  12   0.000000002916
  13   0.000000000089
  14   0.000000000023
  15   0.000000000001
 CPU time [min]:    20.976                   Wall time [min]:     0.590
 
 Constructing local fitting domains...
 Local fitting domains are unchanged.
 
 First step of Coulomb + first step of exchange...
 Exchange contribution is evaluated for MOs 1 to 57.
   1% done.
  13% done.
  25% done.
  40% done.
  55% done.
  70% done.
  83% done.
 100% done.
 Fitting and assembly step of exchange...
 CPU time [min]:    22.440                   Wall time [min]:     0.631
 
 Second step of Coulomb...
   1% done.
  13% done.
  25% done.
  40% done.
  55% done.
  70% done.
  83% done.
 100% done.
 CPU time [min]:    22.521                   Wall time [min]:     0.633
 
 Gradient norm:      7.1453E-03
 DIIS is running in this iteration step.
 RMS of [F,P]:                                         0.00006068157066
 RMS of difference density:                            0.00090079978660
 Gap [au]:  0.10534275
 ALPHA OCC:  57
 BETA  OCC:  57
 
 ***HARTREE-FOCK ENERGY IN STEP  14 IS      -1165.5357540398567835 [AU]
 
 Step comparison  Energy Drift [au]  DIIS error drift  Gradient drift
       13           -3.4725E-04         2.5214E-05       3.2960E-03
 Warning! The energy goes uphill (with respect to previous step).
 ======================================================================
 ITERATION STEP  15
 CPU time [min]:    22.535                   Wall time [min]:     0.634
 

 SCF control                  : diis
 Damping factor/level shift   : 0.000/0.000
 DIIS [start/end/frequency]   :   2 / 50 /  1

 Constructing Fock-matrix...
 
 Pipek-Mezey localization...
 Step  Convergence
   1  22.010419559285
   2  10.921547725113
   3  14.405491457004
   4   5.915858828189
   5   2.613958901528
   6   0.136961864180
   7   0.014828110877
   8   0.000885687882
   9   0.000094946059
  10   0.000008617472
  11   0.000000827173
  12   0.000000080180
  13   0.000000007647
  14   0.000000000736
  15   0.000000000071
  16   0.000000000007
  17   0.000000000001
 CPU time [min]:    22.578                   Wall time [min]:     0.635
 
 Constructing local fitting domains...
 Local fitting domains are unchanged.
 
 First step of Coulomb + first step of exchange...
 Exchange contribution is evaluated for MOs 1 to 57.
   1% done.
  13% done.
  25% done.
  40% done.
  55% done.
  70% done.
  83% done.
 100% done.
 Fitting and assembly step of exchange...
 CPU time [min]:    24.044                   Wall time [min]:     0.676
 
 Second step of Coulomb...
   1% done.
  13% done.
  25% done.
  40% done.
  55% done.
  70% done.
  83% done.
 100% done.
 CPU time [min]:    24.125                   Wall time [min]:     0.678
 
 Gradient norm:      5.5476E-03
 DIIS is running in this iteration step.
 RMS of [F,P]:                                         0.00003802611805
 RMS of difference density:                            0.00043911264277
 Gap [au]:  0.10174166
 ALPHA OCC:  57
 BETA  OCC:  57
 
 ***HARTREE-FOCK ENERGY IN STEP  15 IS      -1165.5357144839922512 [AU]
 
 Step comparison  Energy Drift [au]  DIIS error drift  Gradient drift
       14           -3.9556E-05         2.2655E-05       1.5977E-03
 Warning! The energy goes uphill (with respect to previous step).
 ======================================================================
 ITERATION STEP  16
 CPU time [min]:    24.144                   Wall time [min]:     0.679
 

 SCF control                  : diis
 Damping factor/level shift   : 0.000/0.000
 DIIS [start/end/frequency]   :   2 / 50 /  1

 Constructing Fock-matrix...
 
 Pipek-Mezey localization...
 Step  Convergence
   1  22.515398565433
   2   6.712814910678
   3  13.027771029858
   4   5.947043598330
   5   1.025916015855
   6   0.113284880837
   7   0.000595616547
   8   0.000358659414
   9   0.000004922085
  10   0.000003726424
  11   0.000000046243
  12   0.000000039431
  13   0.000000000457
  14   0.000000000420
  15   0.000000000005
  16   0.000000000004
  17   0.000000000000
 CPU time [min]:    24.188                   Wall time [min]:     0.680
 
 Constructing local fitting domains...
 Local fitting domains are unchanged.
 
 First step of Coulomb + first step of exchange...
 Exchange contribution is evaluated for MOs 1 to 57.
   1% done.
  13% done.
  25% done.
  40% done.
  55% done.
  70% done.
  83% done.
 100% done.
 Fitting and assembly step of exchange...
 CPU time [min]:    25.656                   Wall time [min]:     0.721
 
 Second step of Coulomb...
   1% done.
  13% done.
  25% done.
  40% done.
  55% done.
  70% done.
  83% done.
 100% done.
 CPU time [min]:    25.737                   Wall time [min]:     0.723
 
 Gradient norm:      3.6574E-03
 DIIS is running in this iteration step.
 RMS of [F,P]:                                         0.00002715823711
 RMS of difference density:                            0.00036374214854
 Gap [au]:  0.10056658
 ALPHA OCC:  57
 BETA  OCC:  57
 
 ***HARTREE-FOCK ENERGY IN STEP  16 IS      -1165.5357887144750748 [AU]
 
 Step comparison  Energy Drift [au]  DIIS error drift  Gradient drift
       15            7.4230E-05         1.0868E-05       1.8902E-03
 ======================================================================
 ITERATION STEP  17
 CPU time [min]:    25.751                   Wall time [min]:     0.723
 

 SCF control                  : diis
 Damping factor/level shift   : 0.000/0.000
 DIIS [start/end/frequency]   :   2 / 50 /  1

 Constructing Fock-matrix...
 
 Pipek-Mezey localization...
 Step  Convergence
   1  27.173052168277
   2   9.665501955928
   3  13.614231729985
   4   7.312429868326
   5   1.032348825064
   6   0.148994219370
   7   0.001476053252
   8   0.000053501251
   9   0.000004654404
  10   0.000000320834
  11   0.000000054077
  12   0.000000003615
  13   0.000000000731
  14   0.000000000063
  15   0.000000000011
  16   0.000000000001
  17   0.000000000000
 CPU time [min]:    25.794                   Wall time [min]:     0.725
 
 Constructing local fitting domains...
 Local fitting domains are unchanged.
 
 First step of Coulomb + first step of exchange...
 Exchange contribution is evaluated for MOs 1 to 57.
   1% done.
  13% done.
  25% done.
  40% done.
  55% done.
  70% done.
  83% done.
 100% done.
 Fitting and assembly step of exchange...
 CPU time [min]:    27.259                   Wall time [min]:     0.765
 
 Second step of Coulomb...
   1% done.
  13% done.
  25% done.
  40% done.
  55% done.
  70% done.
  83% done.
 100% done.
 CPU time [min]:    27.340                   Wall time [min]:     0.768
 
 Gradient norm:      2.1644E-03
 DIIS is running in this iteration step.
 RMS of [F,P]:                                         0.00001840641405
 RMS of difference density:                            0.00014359453402
 Gap [au]:  0.10274147
 ALPHA OCC:  57
 BETA  OCC:  57
 
 ***HARTREE-FOCK ENERGY IN STEP  17 IS      -1165.5358246105588478 [AU]
 
 Step comparison  Energy Drift [au]  DIIS error drift  Gradient drift
       16            3.5896E-05         8.7518E-06       1.4930E-03
 ======================================================================
 ITERATION STEP  18
 CPU time [min]:    27.354                   Wall time [min]:     0.768
 

 SCF control                  : diis
 Damping factor/level shift   : 0.000/0.000
 DIIS [start/end/frequency]   :   2 / 50 /  1

 Constructing Fock-matrix...
 
 Pipek-Mezey localization...
 Step  Convergence
   1  25.463496214642
   2   8.759137089891
   3  13.324135261296
   4   7.071294799176
   5   1.210560790289
   6   0.248114461176
   7   0.006665629321
   8   0.000476750166
   9   0.000034040437
  10   0.000005272039
  11   0.000000418040
  12   0.000000064532
  13   0.000000005434
  14   0.000000000805
  15   0.000000000071
  16   0.000000000010
  17   0.000000000001
 CPU time [min]:    27.397                   Wall time [min]:     0.769
 
 Constructing local fitting domains...
 Local fitting domains are unchanged.
 
 First step of Coulomb + first step of exchange...
 Exchange contribution is evaluated for MOs 1 to 57.
   1% done.
  13% done.
  25% done.
  40% done.
  55% done.
  70% done.
  83% done.
 100% done.
 Fitting and assembly step of exchange...
 CPU time [min]:    28.863                   Wall time [min]:     0.810
 
 Second step of Coulomb...
   1% done.
  13% done.
  25% done.
  40% done.
  55% done.
  70% done.
  83% done.
 100% done.
 CPU time [min]:    28.945                   Wall time [min]:     0.812
 
 Gradient norm:      1.5694E-03
 DIIS is running in this iteration step.
 RMS of [F,P]:                                         0.00001137881353
 RMS of difference density:                            0.00022824536882
 Gap [au]:  0.10212486
 ALPHA OCC:  57
 BETA  OCC:  57
 
 ***HARTREE-FOCK ENERGY IN STEP  18 IS      -1165.5358337087427572 [AU]
 
 Step comparison  Energy Drift [au]  DIIS error drift  Gradient drift
       17            9.0982E-06         7.0276E-06       5.9491E-04
 ======================================================================
 ITERATION STEP  19
 CPU time [min]:    28.959                   Wall time [min]:     0.813
 

 SCF control                  : diis
 Damping factor/level shift   : 0.000/0.000
 DIIS [start/end/frequency]   :   2 / 50 /  1

 Constructing Fock-matrix...
 
 Pipek-Mezey localization...
 Step  Convergence
   1  26.448256945100
   2   6.917109661602
   3  14.119294676112
   4   6.530344068416
   5   1.668250301849
   6   0.222907464997
   7   0.003972426398
   8   0.000456025641
   9   0.000019892531
  10   0.000003829512
  11   0.000000225979
  12   0.000000036182
  13   0.000000002700
  14   0.000000000370
  15   0.000000000033
  16   0.000000000004
  17   0.000000000000
 CPU time [min]:    29.001                   Wall time [min]:     0.814
 
 Constructing local fitting domains...
 Local fitting domains are unchanged.
 
 First step of Coulomb + first step of exchange...
 Exchange contribution is evaluated for MOs 1 to 57.
   1% done.
  13% done.
  25% done.
  40% done.
  55% done.
  70% done.
  83% done.
 100% done.
 Fitting and assembly step of exchange...
 CPU time [min]:    30.468                   Wall time [min]:     0.855
 
 Second step of Coulomb...
   1% done.
  13% done.
  25% done.
  40% done.
  55% done.
  70% done.
  83% done.
 100% done.
 CPU time [min]:    30.550                   Wall time [min]:     0.857
 
 Gradient norm:      5.9303E-04
 DIIS is running in this iteration step.
 RMS of [F,P]:                                         0.00000575884002
 RMS of difference density:                            0.00008255676531
 Gap [au]:  0.10202093
 ALPHA OCC:  57
 BETA  OCC:  57
 
 ***HARTREE-FOCK ENERGY IN STEP  19 IS      -1165.5358420168822704 [AU]
 
 Step comparison  Energy Drift [au]  DIIS error drift  Gradient drift
       18            8.3081E-06         5.6200E-06       9.7642E-04
 ======================================================================
 ITERATION STEP  20
 CPU time [min]:    30.564                   Wall time [min]:     0.858
 

 SCF control                  : diis
 Damping factor/level shift   : 0.000/0.000
 DIIS [start/end/frequency]   :   2 / 50 /  1

 Constructing Fock-matrix...
 
 Pipek-Mezey localization...
 Step  Convergence
   1  22.602606590286
   2   9.697104620930
   3  18.695691409691
   4   9.228919756938
   5   1.974219157765
   6   0.292046916779
   7   0.005621413788
   8   0.000490655878
   9   0.000019040178
  10   0.000004763767
  11   0.000000187057
  12   0.000000054070
  13   0.000000002128
  14   0.000000000619
  15   0.000000000025
  16   0.000000000007
  17   0.000000000000
 CPU time [min]:    30.607                   Wall time [min]:     0.859
 
 Constructing local fitting domains...
 Local fitting domains are unchanged.
 
 First step of Coulomb + first step of exchange...
 Exchange contribution is evaluated for MOs 1 to 57.
   1% done.
  13% done.
  25% done.
  40% done.
  55% done.
  70% done.
  83% done.
 100% done.
 Fitting and assembly step of exchange...
 CPU time [min]:    32.074                   Wall time [min]:     0.900
 
 Second step of Coulomb...
   1% done.
  13% done.
  25% done.
  40% done.
  55% done.
  70% done.
  83% done.
 100% done.
 CPU time [min]:    32.155                   Wall time [min]:     0.902
 
 Gradient norm:      2.6151E-04
 DIIS is running in this iteration step.
 RMS of [F,P]:                                         0.00000305767258
 RMS of difference density:                            0.00004547176000
 Gap [au]:  0.10204572
 ALPHA OCC:  57
 BETA  OCC:  57
 
 ***HARTREE-FOCK ENERGY IN STEP  20 IS      -1165.5358430770711493 [AU]
 
 Step comparison  Energy Drift [au]  DIIS error drift  Gradient drift
       19            1.0602E-06         2.7012E-06       3.3152E-04
 ======================================================================
 ITERATION STEP  21
 CPU time [min]:    32.169                   Wall time [min]:     0.902
 

 SCF control                  : diis
 Damping factor/level shift   : 0.000/0.000
 DIIS [start/end/frequency]   :   2 / 50 /  1

 Constructing Fock-matrix...
 
 Pipek-Mezey localization...
 Step  Convergence
   1  21.853103329355
   2   8.289513204005
   3  13.894577783594
   4   5.226965372808
   5   1.457948986317
   6   0.053878646082
   7   0.001144556065
   8   0.000019004106
   9   0.000000682607
  10   0.000000034094
  11   0.000000001487
  12   0.000000000128
  13   0.000000000005
  14   0.000000000001
 CPU time [min]:    32.208                   Wall time [min]:     0.904
 
 Constructing local fitting domains...
 Local fitting domains are unchanged.
 
 First step of Coulomb + first step of exchange...
 Exchange contribution is evaluated for MOs 1 to 57.
   1% done.
  13% done.
  25% done.
  40% done.
  55% done.
  70% done.
  83% done.
 100% done.
 Fitting and assembly step of exchange...
 CPU time [min]:    33.672                   Wall time [min]:     0.944
 
 Second step of Coulomb...
   1% done.
  13% done.
  25% done.
  40% done.
  55% done.
  70% done.
  83% done.
 100% done.
 CPU time [min]:    33.754                   Wall time [min]:     0.947
 
 Gradient norm:      9.1993E-05
 DIIS is running in this iteration step.
 RMS of [F,P]:                                         0.00000181159130
 RMS of difference density:                            0.00001176580858
 Gap [au]:  0.10212707
 ALPHA OCC:  57
 BETA  OCC:  57
 
 ***HARTREE-FOCK ENERGY IN STEP  21 IS      -1165.5358434239374219 [AU]
 
 Step comparison  Energy Drift [au]  DIIS error drift  Gradient drift
       20            3.4687E-07         1.2461E-06       1.6951E-04
 ======================================================================
 ITERATION STEP  22
 CPU time [min]:    33.768                   Wall time [min]:     0.947
 

 SCF control                  : diis
 Damping factor/level shift   : 0.000/0.000
 DIIS [start/end/frequency]   :   2 / 50 /  1

 Constructing Fock-matrix...
 
 Pipek-Mezey localization...
 Step  Convergence
   1  22.108668906529
   2   7.778481098684
   3  16.039639236338
   4   6.377018828536
   5   2.442879915010
   6   0.423231949746
   7   0.012373901223
   8   0.000058083555
   9   0.000002775111
  10   0.000000310104
  11   0.000000019570
  12   0.000000002519
  13   0.000000000174
  14   0.000000000022
  15   0.000000000002
  16   0.000000000000
 CPU time [min]:    33.809                   Wall time [min]:     0.948
 
 Constructing local fitting domains...
 Local fitting domains are unchanged.
 
 First step of Coulomb + first step of exchange...
 Exchange contribution is evaluated for MOs 1 to 57.
   1% done.
  13% done.
  25% done.
  40% done.
  55% done.
  70% done.
  83% done.
 100% done.
 Fitting and assembly step of exchange...
 CPU time [min]:    35.275                   Wall time [min]:     0.989
 
 Second step of Coulomb...
   1% done.
  13% done.
  25% done.
  40% done.
  55% done.
  70% done.
  83% done.
 100% done.
 CPU time [min]:    35.356                   Wall time [min]:     0.991
 
 Gradient norm:      4.6301E-05
 DIIS is running in this iteration step.
 RMS of [F,P]:                                         0.00000099851769
 RMS of difference density:                            0.00000614525864
 Gap [au]:  0.10210076
 ALPHA OCC:  57
 BETA  OCC:  57
 
 ***HARTREE-FOCK ENERGY IN STEP  22 IS      -1165.5358434791000946 [AU]
 
 Step comparison  Energy Drift [au]  DIIS error drift  Gradient drift
       21            5.5163E-08         8.1307E-07       4.5693E-05
 ======================================================================
 ITERATION STEP  23
 CPU time [min]:    35.370                   Wall time [min]:     0.992
 

 SCF control                  : diis
 Damping factor/level shift   : 0.000/0.000
 DIIS [start/end/frequency]   :   2 / 50 /  1

 Constructing Fock-matrix...
 
 Pipek-Mezey localization...
 Step  Convergence
   1  22.032435273156
   2  10.336149838473
   3  16.373911589357
   4   5.435862400584
   5   1.659595224025
   6   0.057069720284
   7   0.001456159771
   8   0.000160159522
   9   0.000012722142
  10   0.000001846345
  11   0.000000151684
  12   0.000000021300
  13   0.000000001805
  14   0.000000000246
  15   0.000000000021
  16   0.000000000003
  17   0.000000000000
 CPU time [min]:    35.414                   Wall time [min]:     0.993
 
 Constructing local fitting domains...
 Local fitting domains are unchanged.
 
 First step of Coulomb + first step of exchange...
 Exchange contribution is evaluated for MOs 1 to 57.
   1% done.
  13% done.
  25% done.
  40% done.
  55% done.
  70% done.
  83% done.
 100% done.
 Fitting and assembly step of exchange...
 CPU time [min]:    36.879                   Wall time [min]:     1.034
 
 Second step of Coulomb...
   1% done.
  13% done.
  25% done.
  40% done.
  55% done.
  70% done.
  83% done.
 100% done.
 CPU time [min]:    36.961                   Wall time [min]:     1.036
 
 Gradient norm:      1.8420E-05
 DIIS is running in this iteration step.
 RMS of [F,P]:                                         0.00000040072579
 RMS of difference density:                            0.00000491382570
 Gap [au]:  0.10210929
 ALPHA OCC:  57
 BETA  OCC:  57
 
 ***HARTREE-FOCK ENERGY IN STEP  23 IS      -1165.5358434951895106 [AU]
 
 Step comparison  Energy Drift [au]  DIIS error drift  Gradient drift
       22            1.6089E-08         5.9779E-07       2.7881E-05
[...]
  170    5Cu1h-3       5Cu1h-2       5Cu1h-1       5Cu1h0        5Cu1h+1       5Cu1h+2       5Cu1h+3       5Cu1h+4       5Cu1h+5       5Cu2h-5   
  171    5Cu2h-4       5Cu2h-3       5Cu2h-2       5Cu2h-1       5Cu2h0        5Cu2h+1       5Cu2h+2       5Cu2h+3       5Cu2h+4       5Cu2h+5   
  172    5Cu3h-5       5Cu3h-4       5Cu3h-3       5Cu3h-2       5Cu3h-1       5Cu3h0        5Cu3h+1       5Cu3h+2       5Cu3h+3       5Cu3h+4   
  173    5Cu3h+5       5Cu4h-5       5Cu4h-4       5Cu4h-3       5Cu4h-2       5Cu4h-1       5Cu4h0        5Cu4h+1       5Cu4h+2       5Cu4h+3   
  174    5Cu4h+4       5Cu4h+5       5Cu5h-5       5Cu5h-4       5Cu5h-3       5Cu5h-2       5Cu5h-1       5Cu5h0        5Cu5h+1       5Cu5h+2   
  175    5Cu5h+3       5Cu5h+4       5Cu5h+5       5Cu1i-6       5Cu1i-5       5Cu1i-4       5Cu1i-3       5Cu1i-2       5Cu1i-1       5Cu1i0    
  176    5Cu1i+1       5Cu1i+2       5Cu1i+3       5Cu1i+4       5Cu1i+5       5Cu1i+6       5Cu2i-6       5Cu2i-5       5Cu2i-4       5Cu2i-3   
  177    5Cu2i-2       5Cu2i-1       5Cu2i0        5Cu2i+1       5Cu2i+2       5Cu2i+3       5Cu2i+4       5Cu2i+5       5Cu2i+6       5Cu3i-6   
  178    5Cu3i-5       5Cu3i-4       5Cu3i-3       5Cu3i-2       5Cu3i-1       5Cu3i0        5Cu3i+1       5Cu3i+2       5Cu3i+3       5Cu3i+4   
  179    5Cu3i+5       5Cu3i+6       5Cu4i-6       5Cu4i-5       5Cu4i-4       5Cu4i-3       5Cu4i-2       5Cu4i-1       5Cu4i0        5Cu4i+1   
  180    5Cu4i+2       5Cu4i+3       5Cu4i+4       5Cu4i+5       5Cu4i+6       6Cu1s         6Cu2s         6Cu3s         6Cu4s         6Cu5s     
  181    6Cu6s         6Cu7s         6Cu8s         6Cu9s         6Cu10s        6Cu11s        6Cu12s        6Cu13s        6Cu1pz        6Cu1py    
  182    6Cu1px        6Cu2pz        6Cu2py        6Cu2px        6Cu3pz        6Cu3py        6Cu3px        6Cu4pz        6Cu4py        6Cu4px    
  183    6Cu5pz        6Cu5py        6Cu5px        6Cu6pz        6Cu6py        6Cu6px        6Cu7pz        6Cu7py        6Cu7px        6Cu8pz    
  184    6Cu8py        6Cu8px        6Cu9pz        6Cu9py        6Cu9px        6Cu10pz       6Cu10py       6Cu10px       6Cu11pz       6Cu11py   
  185    6Cu11px       6Cu12pz       6Cu12py       6Cu12px       6Cu13pz       6Cu13py       6Cu13px       6Cu1d-2       6Cu1d-1       6Cu1d0    
  186    6Cu1d+1       6Cu1d+2       6Cu2d-2       6Cu2d-1       6Cu2d0        6Cu2d+1       6Cu2d+2       6Cu3d-2       6Cu3d-1       6Cu3d0    
  187    6Cu3d+1       6Cu3d+2       6Cu4d-2       6Cu4d-1       6Cu4d0        6Cu4d+1       6Cu4d+2       6Cu5d-2       6Cu5d-1       6Cu5d0    
  188    6Cu5d+1       6Cu5d+2       6Cu6d-2       6Cu6d-1       6Cu6d0        6Cu6d+1       6Cu6d+2       6Cu7d-2       6Cu7d-1       6Cu7d0    
  189    6Cu7d+1       6Cu7d+2       6Cu8d-2       6Cu8d-1       6Cu8d0        6Cu8d+1       6Cu8d+2       6Cu9d-2       6Cu9d-1       6Cu9d0    
  190    6Cu9d+1       6Cu9d+2       6Cu10d-2      6Cu10d-1      6Cu10d0       6Cu10d+1      6Cu10d+2      6Cu11d-2      6Cu11d-1      6Cu11d0   
  191    6Cu11d+1      6Cu11d+2      6Cu12d-2      6Cu12d-1      6Cu12d0       6Cu12d+1      6Cu12d+2      6Cu1f-3       6Cu1f-2       6Cu1f-1   
  192    6Cu1f0        6Cu1f+1       6Cu1f+2       6Cu1f+3       6Cu2f-3       6Cu2f-2       6Cu2f-1       6Cu2f0        6Cu2f+1       6Cu2f+2   
  193    6Cu2f+3       6Cu3f-3       6Cu3f-2       6Cu3f-1       6Cu3f0        6Cu3f+1       6Cu3f+2       6Cu3f+3       6Cu4f-3       6Cu4f-2   
  194    6Cu4f-1       6Cu4f0        6Cu4f+1       6Cu4f+2       6Cu4f+3       6Cu5f-3       6Cu5f-2       6Cu5f-1       6Cu5f0        6Cu5f+1   
  195    6Cu5f+2       6Cu5f+3       6Cu6f-3       6Cu6f-2       6Cu6f-1       6Cu6f0        6Cu6f+1       6Cu6f+2       6Cu6f+3       6Cu7f-3   
  196    6Cu7f-2       6Cu7f-1       6Cu7f0        6Cu7f+1       6Cu7f+2       6Cu7f+3       6Cu8f-3       6Cu8f-2       6Cu8f-1       6Cu8f0    
  197    6Cu8f+1       6Cu8f+2       6Cu8f+3       6Cu9f-3       6Cu9f-2       6Cu9f-1       6Cu9f0        6Cu9f+1       6Cu9f+2       6Cu9f+3   
  198    6Cu10f-3      6Cu10f-2      6Cu10f-1      6Cu10f0       6Cu10f+1      6Cu10f+2      6Cu10f+3      6Cu1g-4       6Cu1g-3       6Cu1g-2   
  199    6Cu1g-1       6Cu1g0        6Cu1g+1       6Cu1g+2       6Cu1g+3       6Cu1g+4       6Cu2g-4       6Cu2g-3       6Cu2g-2       6Cu2g-1   
  200    6Cu2g0        6Cu2g+1       6Cu2g+2       6Cu2g+3       6Cu2g+4       6Cu3g-4       6Cu3g-3       6Cu3g-2       6Cu3g-1       6Cu3g0    
  201    6Cu3g+1       6Cu3g+2       6Cu3g+3       6Cu3g+4       6Cu4g-4       6Cu4g-3       6Cu4g-2       6Cu4g-1       6Cu4g0        6Cu4g+1   
  202    6Cu4g+2       6Cu4g+3       6Cu4g+4       6Cu5g-4       6Cu5g-3       6Cu5g-2       6Cu5g-1       6Cu5g0        6Cu5g+1       6Cu5g+2   
  203    6Cu5g+3       6Cu5g+4       6Cu6g-4       6Cu6g-3       6Cu6g-2       6Cu6g-1       6Cu6g0        6Cu6g+1       6Cu6g+2       6Cu6g+3   
  204    6Cu6g+4       6Cu7g-4       6Cu7g-3       6Cu7g-2       6Cu7g-1       6Cu7g0        6Cu7g+1       6Cu7g+2       6Cu7g+3       6Cu7g+4   
  205    6Cu8g-4       6Cu8g-3       6Cu8g-2       6Cu8g-1       6Cu8g0        6Cu8g+1       6Cu8g+2       6Cu8g+3       6Cu8g+4       6Cu1h-5   
  206    6Cu1h-4       6Cu1h-3       6Cu1h-2       6Cu1h-1       6Cu1h0        6Cu1h+1       6Cu1h+2       6Cu1h+3       6Cu1h+4       6Cu1h+5   
  207    6Cu2h-5       6Cu2h-4       6Cu2h-3       6Cu2h-2       6Cu2h-1       6Cu2h0        6Cu2h+1       6Cu2h+2       6Cu2h+3       6Cu2h+4   
  208    6Cu2h+5       6Cu3h-5       6Cu3h-4       6Cu3h-3       6Cu3h-2       6Cu3h-1       6Cu3h0        6Cu3h+1       6Cu3h+2       6Cu3h+3   
  209    6Cu3h+4       6Cu3h+5       6Cu4h-5       6Cu4h-4       6Cu4h-3       6Cu4h-2       6Cu4h-1       6Cu4h0        6Cu4h+1       6Cu4h+2   
  210    6Cu4h+3       6Cu4h+4       6Cu4h+5       6Cu5h-5       6Cu5h-4       6Cu5h-3       6Cu5h-2       6Cu5h-1       6Cu5h0        6Cu5h+1   
  211    6Cu5h+2       6Cu5h+3       6Cu5h+4       6Cu5h+5       6Cu1i-6       6Cu1i-5       6Cu1i-4       6Cu1i-3       6Cu1i-2       6Cu1i-1   
  212    6Cu1i0        6Cu1i+1       6Cu1i+2       6Cu1i+3       6Cu1i+4       6Cu1i+5       6Cu1i+6       6Cu2i-6       6Cu2i-5       6Cu2i-4   
  213    6Cu2i-3       6Cu2i-2       6Cu2i-1       6Cu2i0        6Cu2i+1       6Cu2i+2       6Cu2i+3       6Cu2i+4       6Cu2i+5       6Cu2i+6   
  214    6Cu3i-6       6Cu3i-5       6Cu3i-4       6Cu3i-3       6Cu3i-2       6Cu3i-1       6Cu3i0        6Cu3i+1       6Cu3i+2       6Cu3i+3   
  215    6Cu3i+4       6Cu3i+5       6Cu3i+6       6Cu4i-6       6Cu4i-5       6Cu4i-4       6Cu4i-3       6Cu4i-2       6Cu4i-1       6Cu4i0    
  216    6Cu4i+1       6Cu4i+2       6Cu4i+3       6Cu4i+4       6Cu4i+5       6Cu4i+6   
 
 Maximum number of basis functions per shell:   72
 Total number of basis functions:   2166
 
 
 Old basis set for SCF restart
 
   1  Cu def2-svp [ 14s 9p 5d 1f | 5s 3p 2d 1f ]
   2  Cu def2-svp [ 14s 9p 5d 1f | 5s 3p 2d 1f ]
   3  Cu def2-svp [ 14s 9p 5d 1f | 5s 3p 2d 1f ]
   4  Cu def2-svp [ 14s 9p 5d 1f | 5s 3p 2d 1f ]
   5  Cu def2-svp [ 14s 9p 5d 1f | 5s 3p 2d 1f ]
   6  Cu def2-svp [ 14s 9p 5d 1f | 5s 3p 2d 1f ]
 
 Basis functions:
            1             2             3             4             5             6             7             8             9            10
    0    1Cu1s         1Cu2s         1Cu3s         1Cu4s         1Cu5s         1Cu1pz        1Cu1py        1Cu1px        1Cu2pz        1Cu2py    
    1    1Cu2px        1Cu3pz        1Cu3py        1Cu3px        1Cu1d-2       1Cu1d-1       1Cu1d0        1Cu1d+1       1Cu1d+2       1Cu2d-2   
    2    1Cu2d-1       1Cu2d0        1Cu2d+1       1Cu2d+2       1Cu1f-3       1Cu1f-2       1Cu1f-1       1Cu1f0        1Cu1f+1       1Cu1f+2   
    3    1Cu1f+3       2Cu1s         2Cu2s         2Cu3s         2Cu4s         2Cu5s         2Cu1pz        2Cu1py        2Cu1px        2Cu2pz    
    4    2Cu2py        2Cu2px        2Cu3pz        2Cu3py        2Cu3px        2Cu1d-2       2Cu1d-1       2Cu1d0        2Cu1d+1       2Cu1d+2   
    5    2Cu2d-2       2Cu2d-1       2Cu2d0        2Cu2d+1       2Cu2d+2       2Cu1f-3       2Cu1f-2       2Cu1f-1       2Cu1f0        2Cu1f+1   
    6    2Cu1f+2       2Cu1f+3       3Cu1s         3Cu2s         3Cu3s         3Cu4s         3Cu5s         3Cu1pz        3Cu1py        3Cu1px    
    7    3Cu2pz        3Cu2py        3Cu2px        3Cu3pz        3Cu3py        3Cu3px        3Cu1d-2       3Cu1d-1       3Cu1d0        3Cu1d+1   
    8    3Cu1d+2       3Cu2d-2       3Cu2d-1       3Cu2d0        3Cu2d+1       3Cu2d+2       3Cu1f-3       3Cu1f-2       3Cu1f-1       3Cu1f0    
    9    3Cu1f+1       3Cu1f+2       3Cu1f+3       4Cu1s         4Cu2s         4Cu3s         4Cu4s         4Cu5s         4Cu1pz        4Cu1py    
   10    4Cu1px        4Cu2pz        4Cu2py        4Cu2px        4Cu3pz        4Cu3py        4Cu3px        4Cu1d-2       4Cu1d-1       4Cu1d0    
   11    4Cu1d+1       4Cu1d+2       4Cu2d-2       4Cu2d-1       4Cu2d0        4Cu2d+1       4Cu2d+2       4Cu1f-3       4Cu1f-2       4Cu1f-1   
   12    4Cu1f0        4Cu1f+1       4Cu1f+2       4Cu1f+3       5Cu1s         5Cu2s         5Cu3s         5Cu4s         5Cu5s         5Cu1pz    
   13    5Cu1py        5Cu1px        5Cu2pz        5Cu2py        5Cu2px        5Cu3pz        5Cu3py        5Cu3px        5Cu1d-2       5Cu1d-1   
   14    5Cu1d0        5Cu1d+1       5Cu1d+2       5Cu2d-2       5Cu2d-1       5Cu2d0        5Cu2d+1       5Cu2d+2       5Cu1f-3       5Cu1f-2   
   15    5Cu1f-1       5Cu1f0        5Cu1f+1       5Cu1f+2       5Cu1f+3       6Cu1s         6Cu2s         6Cu3s         6Cu4s         6Cu5s     
   16    6Cu1pz        6Cu1py        6Cu1px        6Cu2pz        6Cu2py        6Cu2px        6Cu3pz        6Cu3py        6Cu3px        6Cu1d-2   
   17    6Cu1d-1       6Cu1d0        6Cu1d+1       6Cu1d+2       6Cu2d-2       6Cu2d-1       6Cu2d0        6Cu2d+1       6Cu2d+2       6Cu1f-3   
   18    6Cu1f-2       6Cu1f-1       6Cu1f0        6Cu1f+1       6Cu1f+2       6Cu1f+3   
 
 Maximum number of basis functions per shell:   72
 Total number of basis functions:    186
 
 
 Effective core potentials:
 
   1  Cu mcdhf-ecp-10        
   2  Cu mcdhf-ecp-10        
   3  Cu mcdhf-ecp-10        
   4  Cu mcdhf-ecp-10        
   5  Cu mcdhf-ecp-10        
   6  Cu mcdhf-ecp-10        
 
 Calculation of prescreening integrals...
 CPU time [min]:    17.800                   Wall time [min]:     0.523
 
 Calculation of two-center Coulomb integrals...
   1% done.
  12% done.
  23% done.
  34% done.
  45% done.
  56% done.
  69% done.
  84% done.
  95% done.
 100% done.
 CPU time [min]:    17.838                   Wall time [min]:     0.524
 
 Cholesky decomposition of the inverse of the two-center matrix...
 CPU time [min]:    17.927                   Wall time [min]:     0.527
 
 Calculation of three-center Coulomb integrals...
   1% done.
  12% done.
  25% done.
  40% done.
  58% done.
  69% done.
  86% done.
 100% done.
 CPU time [min]:    27.786                   Wall time [min]:     0.802

 ************************ 2023-02-04 10:32:23 *************************
 Executing drpa...

 Three-index integral transformation
 
 Allocation of 220.0 Gbytes of memory...
 Minimal memory requirement for (ai|P) and (ij|P) integrals:      124.8 MB

 Calculating (ai|P) and (ij|P) integrals...
 Number of integral batches:    1
 Occupied indices per batch:   57
 
 Transforming integrals of batch 1...
 CPU time [min]:   193.391                   Wall time [min]:     6.664
 

 Constructing MP2 natural orbitals...

 Threshold for individual occupations:     1.0000E-05
 Corresponding cummulative occupation threshold:  0.99984746  0.99984219
 Total number of virtual orbitals:     675
 Number of virtual natural orbitals:   595  (88.15%)
 
 Transforming (ai|P) integrals to the NO basis...
 Number of integral batches:    1
 Occupied indices per batch:   57
 
 Transforming integrals of batch 1 to the NO basis...
 CPU time [min]:   302.296                   Wall time [min]:    10.660

 Calculating (ab|P) integrals...
 Minimal memory requirement for (ab|P) integrals:       75.6 MB
 Number of integral batches:    1
 Virtual indices per batch:   595

 Transforming integrals of batch 1...
 CPU time [min]:   339.395                   Wall time [min]:    12.783
 

 Constructing natural auxiliary functions...

 Threshold for eigenvalues:     1.0000E-02
 Total number of auxiliary functions:    2166
 Number of natural auxiliary functions:  1928  (89.01%)

 Transforming (ai|P) and (ij|P) integrals to the NAF basis...
 Number of integral batches:    1
 Occupied indices per batch:   57
 
 Transforming integrals of batch 1 to the NAF basis...
 CPU time [min]:   449.050                   Wall time [min]:    16.795

 Transforming (ab|P) integrals to the NAF basis...
 Number of integral batches:    1
 Virtual indices per batch:   595

 Transforming integrals of batch 1 to the NAF basis...
 CPU time [min]:   450.555                   Wall time [min]:    17.188
 

 Results in full basis:
 
 
 Reference energy [au]:                     -1177.048036651406
 DF-MP2 singlet pair energy [au]:              -4.420395611895
 DF-MP2 triplet pair energy [au]:              -2.091952622316
 DF-SCS-MP2 correlation energy [au]:           -6.001792275046
 DF-SCS-MP2 energy [au]:                    -1183.049828926452
 DF-SOS-MP2 correlation energy [au]:           -5.746514295463
 DF-SOS-MP2 energy [au]:                    -1182.794550946869
 DF-MP2 correlation energy [au]:               -6.512348234211
 DF-MP2 energy [au]:                        -1183.560384885617

 Results in FNO basis:
 
 
 Reference energy [au]:                     -1177.048036651406
 DF-MP2 singlet pair energy [au]:              -4.410785126751
 DF-MP2 triplet pair energy [au]:              -2.090092581120
 DF-SCS-MP2 correlation energy [au]:           -5.989639679141
 DF-SCS-MP2 energy [au]:                    -1183.037676330548
 DF-SOS-MP2 correlation energy [au]:           -5.734020664776
 DF-SOS-MP2 energy [au]:                    -1182.782057316183
 DF-MP2 correlation energy [au]:               -6.500877707871
 DF-MP2 energy [au]:                        -1183.548914359277

 Results in NAF basis:
 
 
 Reference energy [au]:                     -1177.048036651406
 DF-MP2 singlet pair energy [au]:              -4.410397624602
 DF-MP2 triplet pair energy [au]:              -2.089966534332
 DF-SCS-MP2 correlation energy [au]:           -5.989132660967
 DF-SCS-MP2 energy [au]:                    -1183.037169312373
 DF-SOS-MP2 correlation energy [au]:           -5.733516911983
 DF-SOS-MP2 energy [au]:                    -1182.781553563389
 DF-MP2 correlation energy [au]:               -6.500364158934
 DF-MP2 energy [au]:                        -1183.548400810341

 ************************ 2023-02-04 10:49:35 *************************
 Executing ccsd...

 Allocation of 220.0 Gbytes of memory...

 Direct DF-CCSD(T) calculation
 
 Convergence criterion:  1.0E-06
 
 Number of occupied/virtual/auxiliary orbitals:    57   595  1928
  43475.68 MB is the minimal memory requirement for (T)
  18225.58 MB is the minimal memory requirement for CCSD
 
 Reference energy [au]:           -1177.048036651406
 T1 contribution [au]:                0.000000000000
 Same spin MP2 energy [au]:          -2.090029461091
 Opposite spin MP2 energy [au]:      -4.410591225328
 MP2 correlation energy [au]:        -6.500620686419
 Total MP2 energy [au]:           -1183.548657337825
 MP2 correction [au]:                -0.011727547792
 
 
 CPU time [min]:    20.932                   Wall time [min]:     6.352
 
 Starting CCSD iterations...
 
                     Residual norm          Energy
 Iteration  1        1.490396950807    -1182.300094752296
 Iteration  2        0.892794926916    -1182.698955196767
 Iteration  3        0.150176220811    -1182.780319653892
 Iteration  4        0.070755703500    -1182.791237199553
 Iteration  5        0.046723295789    -1182.777610614373
 Iteration  6        0.021895521698    -1182.772652010162
 Iteration  7        0.016682026770    -1182.773997819809
 Iteration  8        0.010540187505    -1182.775864856276
 Iteration  9        0.007404690603    -1182.776019123562
 Iteration 10        0.004664574731    -1182.775907618384
 Iteration 11        0.003403673506    -1182.776249643382
 Iteration 12        0.002322134555    -1182.776204175932
 Iteration 13        0.001674946129    -1182.775862222165
 Iteration 14        0.001180951405    -1182.775865517358
 Iteration 15        0.000830874982    -1182.776063393724
 Iteration 16        0.000546738266    -1182.776099772248
 Iteration 17        0.000385341737    -1182.776039685981
 Iteration 18        0.000262198468    -1182.776023884296
 Iteration 19        0.000191443043    -1182.776029984041
 Iteration 20        0.000163375381    -1182.776030142237
 Iteration 21        0.000161770689    -1182.776030017906
 Iteration 22        0.000175110175    -1182.776029816693
 Iteration 23        0.000162059517    -1182.776032842844
 Iteration 24        0.000118744617    -1182.776032433655
 Iteration 25        0.000083114296    -1182.776033592611
 Iteration 26        0.000056210294    -1182.776036514061
 Iteration 27        0.000035683702    -1182.776035766778
 Iteration 28        0.000022515153    -1182.776033539098
 Iteration 29        0.000014631936    -1182.776033223153
 Iteration 30        0.000009837363    -1182.776034138491
 
 CCSD iteration has converged in 30 steps.
   225277.14 MB memory was utilized by CCSD
 
 T1 diagnostic:      3.290E-02            D1 diagnostic:      1.851E-01
 
 T1 contribution [au]:                                  0.000000000000
 PPL energy contribution [au]:                          0.770888485561
 Scaled PPL energy contribution [au]:                   0.772229350695

 OS-PPL energy contribution [au]:                       0.581520591179
 Scaled OS-PPL energy contribution [au]:                0.582764393036
 SS-PPL energy contribution [au]:                       0.189367894382
 Scaled SS-PPL energy contribution [au]:                0.189533522136

 Opposite spin CCSD energy [au]:                       -4.064685167955
 Same spin CCSD energy [au]:                           -1.663578154031
 CCSD correlation energy [au]:                         -5.728263321986
 CCSD correlation energy + MP2 correction [au]:        -5.739990869778
 CCSD correlation energy + MP2 + PPL corr. [au]:       -5.738650004643
 Total CCSD energy [au]:                            -1182.776299973392
 Total CCSD energy + MP2 correction [au]:           -1182.788027521184
 Total CCSD energy + MP2 + PPL corr. [au]:          -1182.786686656050
 
 CPU time [min]: 18347.495                   Wall time [min]:   714.744
 
 Calculation of (T) correction...
 
 
   137386.88 MB memory is utilized for (T)

 0%       25%       50%       75%       100%
 |---------|---------|---------|---------| 
 
 (T) correction [au]:                                    -0.258105270963
 (T*) correction [au]:                                   -0.258570909869
 (T+) correction [au]:                                   -0.258508696823
 CCSD(T) correlation energy [au]:                        -5.986368592949
 CCSD(T) correlation energy + MP2 correction [au]:       -5.998096140741
 CCSD(T+) correlation en. + MP2 + PPL corr. [au]:        -5.997158701466
 Total CCSD(T) energy [au]:                           -1183.034405244355
 Total CCSD(T) energy + MP2 correction [au]:          -1183.046132792147
 Total CCSD(T+) energy + MP2 + PPL corr. [au]:        -1183.045195352872
 
 CPU time [min]: 66650.987                   Wall time [min]:  2079.579
 
 ************************ 2023-02-05 21:29:13 *************************
                      Normal termination of mrcc.
 **********************************************************************
