 vasp.6.3.0 20Jan22 (build Apr  1 2022 16:44:48) complex                         
 executed on        HPECrayEX_GCC date 2023.01.09  21:17:32
 running  768 mpi-ranks, with    1 threads/rank
 distrk:  each k-point on  384 cores,    2 groups
 distr:  one band on NCORE=   4 cores,   96 groups


--------------------------------------------------------------------------------------------------------


 INCAR:
   SYSTEM = MgO-rocksalt
   ISMEAR = 0
   SIGMA = 0.05
   EDIFF = 1E-6
   ALGO = ALL
   ISTART = 0
   IBRION = -1
   NSW = 0
   ISYM = 2
   GGA = RE
   IVDW = 13
   VDW_S8 = 1.7468
   VDW_A1 = 0.5363
   VDW_A2 = 3.0726
   ENCUT = 520
   PREC = Accurate
   LASPH = .TRUE.
   LREAL = Auto
   ISPIN = 1
   NELM = 200
   NELMIN = 8
   NCORE = 4
   KPAR = 2
   LWAVE = .FALSE.
   LCHARG = .FALSE.

 POTCAR:    PAW_PBE Cu 22Jun2005                  
 POTCAR:    PAW_PBE Cu 22Jun2005                  
   SHA256 =  0e71e558f37a4e8407882b4609ceaae59938afaad9ced71dfe8490308a0ab630 Cu/POTCAR             
   COPYR  = (c) Copyright 22Jun2005 Georg Kresse                                                    
   COPYR  = This file is part of the software VASP. Any use, copying, and all other rights are regul
   COPYR  = If you do not have a valid VASP license, you may not use, copy or distribute this file. 
   VRHFIN =Cu: d10 p1                                                                               
   LEXCH  = PE                                                                                      
   EATOM  =  1390.9808 eV,  102.2342 Ry                                                             
                                                                                                    
   TITEL  = PAW_PBE Cu 22Jun2005                                                                    
   LULTRA =        F    use ultrasoft PP ?                                                          
   IUNSCR =        1    unscreen: 0-lin 1-nonlin 2-no                                               
   RPACOR =    2.000    partial core radius                                                         
   POMASS =   63.546; ZVAL   =   11.000    mass and valenz                                          
   RCORE  =    2.300    outmost cutoff radius                                                       
   RWIGS  =    2.200; RWIGS  =    1.164    wigner-seitz radius (au A)                               
   ENMAX  =  295.446; ENMIN  =  221.585 eV                                                          
   ICORE  =        3    local potential                                                             
   LCOR   =        T    correct aug charges                                                         
   LPAW   =        T    paw PP                                                                      
   EAUG   =  586.980                                                                                
   DEXC   =    0.000                                                                                
   RMAX   =    2.344    core radius for proj-oper                                                   
   RAUG   =    1.300    factor for augmentation sphere                                              
   RDEP   =    2.302    radius for radial grids                                                     
   RDEPT  =    1.771    core radius for aug-charge                                                  
                                                                                                    
   Atomic configuration                                                                             
    9 entries                                                                                       
     n  l   j            E        occ.                                                              
     1  0  0.50     -8850.2468   2.0000                                                             
     2  0  0.50     -1062.3498   2.0000                                                             
     2  1  1.50      -916.8226   6.0000                                                             
     3  0  0.50      -114.6929   2.0000                                                             
     3  1  1.50       -72.1325   6.0000                                                             
     3  2  2.50        -5.0394  10.0000                                                             
     4  0  0.50        -4.6097   1.0000                                                             
     4  1  0.50        -4.0817   0.0000                                                             
     4  3  2.50        -1.3606   0.0000                                                             
   Description                                                                                      
     l       E           TYP  RCUT    TYP  RCUT                                                     
     2     -5.0393973     23  2.200                                                                 
     2     10.8846608     23  2.200                                                                 
     0     -4.6097109     23  2.200                                                                 
     0      8.2520465     23  2.200                                                                 
     1     -2.7211652     23  2.200                                                                 
     1     21.7055443     23  2.200                                                                 
     3      2.7211652     23  2.300                                                                 
  local pseudopotential read in
  partial core-charges read in
  partial kinetic energy density read in
  atomic valenz-charges read in
  non local Contribution for L=           2  read in
    real space projection operators read in
  non local Contribution for L=           2  read in
    real space projection operators read in
  non local Contribution for L=           0  read in
    real space projection operators read in
  non local Contribution for L=           0  read in
    real space projection operators read in
  non local Contribution for L=           1  read in
    real space projection operators read in
  non local Contribution for L=           1  read in
    real space projection operators read in
    PAW grid and wavefunctions read in

   number of l-projection  operators is LMAX  =           6
   number of lm-projection operators is LMMAX =          18

 -----------------------------------------------------------------------------
|                                                                             |
|               ----> ADVICE to this user running VASP <----                  |
|                                                                             |
|     You have a (more or less) 'small supercell' and for smaller cells       |
|     it is recommended to use the reciprocal-space projection scheme!        |
|     The real-space optimization is not efficient for small cells and it     |
|     is also less accurate ...                                               |
|     Therefore, set LREAL=.FALSE. in the INCAR file.                         |
|                                                                             |
 -----------------------------------------------------------------------------

 Optimization of the real space projectors (new method)

 maximal supplied QI-value         = 16.25
 optimisation between [QCUT,QGAM] = [ 11.54, 23.24] = [ 37.28,151.24] Ry 
 Optimized for a Real-space Cutoff    1.53 Angstroem

   l    n(q)    QCUT    max X(q) W(low)/X(q) W(high)/X(q)  e(spline) 
   2     10    11.539     4.610    0.96E-04    0.13E-03    0.19E-06
   2     10    11.539     8.522    0.16E-03    0.21E-03    0.28E-06
   0     11    11.539    51.609    0.45E-04    0.31E-04    0.11E-06
   0     11    11.539    27.747    0.39E-04    0.29E-04    0.10E-06
   1     10    11.539    20.408    0.70E-05    0.38E-04    0.18E-06
   1     10    11.539    13.425    0.66E-05    0.34E-04    0.17E-06
 -----------------------------------------------------------------------------
|                                                                             |
|               ----> ADVICE to this user running VASP <----                  |
|                                                                             |
|     You enforced a specific xc type in the INCAR file but a different       |
|     type was found in the POTCAR file.                                      |
|     I HOPE YOU KNOW WHAT YOU ARE DOING!                                     |
|                                                                             |
 -----------------------------------------------------------------------------

  PAW_PBE Cu 22Jun2005                  :
 energy of atom  1       EATOM=-1390.9808
 kinetic energy error for atom=    0.0037 (will be added to EATOM!!)


 POSCAR: Cu Mg  O
  positions in direct lattice
  No initial velocities read in
 -----------------------------------------------------------------------------
|                                                                             |
|           W    W    AA    RRRRR   N    N  II  N    N   GGGG   !!!           |
|           W    W   A  A   R    R  NN   N  II  NN   N  G    G  !!!           |
|           W    W  A    A  R    R  N N  N  II  N N  N  G       !!!           |
|           W WW W  AAAAAA  RRRRR   N  N N  II  N  N N  G  GGG   !            |
|           WW  WW  A    A  R   R   N   NN  II  N   NN  G    G                |
|           W    W  A    A  R    R  N    N  II  N    N   GGGG   !!!           |
|                                                                             |
|     Specifying the vdW parameters                                           |
|     VDW_S8 = 1.747                                                          |
|     VDW_A1 = 0.536                                                          |
|     VDW_A2 = 3.073                                                          |
|     in the INCAR file will overwrite the defaults for revpbe. Please        |
|     make sure that is what you intended.                                    |
|                                                                             |
 -----------------------------------------------------------------------------

 exchange correlation table for  LEXCH =       40
   RHO(1)=    0.500       N(1)  =     2000
   RHO(2)=  100.500       N(2)  =     4000



--------------------------------------------------------------------------------------------------------


 ion  position               nearest neighbor table
   1  0.400  0.421  0.593-   2 2.27
   2  0.401  0.506  0.657-   1 2.27   4 2.38   3 2.40
   3  0.401  0.614  0.691-   4 2.27   2 2.40
   4  0.400  0.594  0.590-   3 2.27   2 2.38

  LATTYP: Found a simple tetragonal cell.
 ALAT       =    21.1388521970
 C/A-ratio  =     1.0461251639
  
  Lattice vectors:
  
 A1 = (  21.1388521970,   0.0000000000,   0.0000000000)
 A2 = (   0.0000000000,  21.1388521970,   0.0000000000)
 A3 = (   0.0000000000,   0.0000000000,  22.1138852197)


Analysis of symmetry for initial positions (statically):
=====================================================================
 Subroutine PRICEL returns:
 Original cell was already a primitive cell.
 

 Routine SETGRP: Setting up the symmetry group for a 
 simple tetragonal supercell.


 Subroutine GETGRP returns: Found  1 space group operations
 (whereof  1 operations were pure point group operations)
 out of a pool of 16 trial point group operations.


The static configuration has the point symmetry C_1 .


Analysis of symmetry for dynamics (positions and initial velocities):
=====================================================================
 Subroutine PRICEL returns:
 Original cell was already a primitive cell.
 

 Routine SETGRP: Setting up the symmetry group for a 
 simple tetragonal supercell.


 Subroutine GETGRP returns: Found  1 space group operations
 (whereof  1 operations were pure point group operations)
 out of a pool of 16 trial point group operations.


The dynamic configuration has the point symmetry C_1 .


Analysis of constrained symmetry for selective dynamics:
=====================================================================
 Subroutine PRICEL returns:
 Original cell was already a primitive cell.
 

 Routine SETGRP: Setting up the symmetry group for a 
 simple tetragonal supercell.


 Subroutine GETGRP returns: Found  1 space group operations
 (whereof  1 operations were pure point group operations)
 out of a pool of 16 trial point group operations.


The constrained configuration has the point symmetry C_1 .


 Subroutine INISYM returns: Found  1 space group operations
 (whereof  1 operations are pure point group operations),
 and found     1 'primitive' translations


----------------------------------------------------------------------------------------

                                     Primitive cell                                     

  volume of cell :    9881.6133

  direct lattice vectors                    reciprocal lattice vectors
    21.138852197  0.000000000  0.000000000     0.047306258  0.000000000  0.000000000
     0.000000000 21.138852197  0.000000000     0.000000000  0.047306258  0.000000000
     0.000000000  0.000000000 22.113885220     0.000000000  0.000000000  0.045220457

  length of vectors
    21.138852197 21.138852197 22.113885220     0.047306258  0.047306258  0.045220457

  position of ions in fractional coordinates (direct lattice)
     0.400229282  0.421328702  0.592894010
     0.400626265  0.505728649  0.656597495
     0.400850837  0.613577871  0.691210184
     0.400248991  0.594204282  0.590315895

  ion indices of the primitive-cell ions
   primitive index   ion index
                 1           1
                 2           2
                 3           3
                 4           4

----------------------------------------------------------------------------------------



 KPOINTS: KPOINTS created by Atomic Simulation Env

Automatic generation of k-mesh.
 Grid dimensions read from file:
 generate k-points for:    1    1    1

 Generating k-lattice:

  Cartesian coordinates                     Fractional coordinates (reciprocal lattice)
     0.047306258  0.000000000  0.000000000     1.000000000  0.000000000  0.000000000
     0.000000000  0.047306258  0.000000000     0.000000000  1.000000000  0.000000000
     0.000000000  0.000000000  0.045220457     0.000000000  0.000000000  1.000000000

  Length of vectors
     0.047306258  0.047306258  0.045220457

  Shift w.r.t. Gamma in fractional coordinates (k-lattice)
     0.000000000  0.000000000  0.000000000

 
 Subroutine IBZKPT returns following result:
 ===========================================
 
 Found      1 irreducible k-points:
 
 Following reciprocal coordinates:
            Coordinates               Weight
  0.000000  0.000000  0.000000      1.000000
 
 Following cartesian coordinates:
            Coordinates               Weight
  0.000000  0.000000  0.000000      1.000000
 


--------------------------------------------------------------------------------------------------------




 Dimension of arrays:
   k-points           NKPTS =      1   k-points in BZ     NKDIM =      1   number of bands    NBANDS=     96
   number of dos      NEDOS =    301   number of ions     NIONS =      4
   non local maximal  LDIM  =      6   non local SUM 2l+1 LMDIM =     18
   total plane-waves  NPLWV = ******
   max r-space proj   IRMAX =   6628   max aug-charges    IRDMAX=  12805
   dimension x,y,z NGX =   160 NGY =  160 NGZ =  168
   dimension x,y,z NGXF=   320 NGYF=  320 NGZF=  336
   support grid    NGXF=   320 NGYF=  320 NGZF=  336
   ions per type =               4
   NGX,Y,Z   is equivalent  to a cutoff of  12.58, 12.58, 12.63 a.u.
   NGXF,Y,Z  is equivalent  to a cutoff of  25.17, 25.17, 25.26 a.u.

 SYSTEM =  MgO-rocksalt                            
 POSCAR =  Cu Mg  O                                

 Startparameter for this run:
   NWRITE =      2    write-flag & timer
   PREC   = accura    normal or accurate (medium, high low for compatibility)
   ISTART =      0    job   : 0-new  1-cont  2-samecut
   ICHARG =      2    charge: 1-file 2-atom 10-const
   ISPIN  =      1    spin polarized calculation?
   LNONCOLLINEAR =      F non collinear calculations
   LSORBIT =      F    spin-orbit coupling
   INIWAV =      1    electr: 0-lowe 1-rand  2-diag
   LASPH  =      T    aspherical Exc in radial PAW
 Electronic Relaxation 1
   ENCUT  =  520.0 eV  38.22 Ry    6.18 a.u.  39.30 39.30 41.12*2*pi/ulx,y,z
   ENINI  =  520.0     initial cutoff
   ENAUG  =  587.0 eV  augmentation charge cutoff
   NELM   =    200;   NELMIN=  8; NELMDL= -5     # of ELM steps 
   EDIFF  = 0.1E-05   stopping-criterion for ELM
   LREAL  =      T    real-space projection
   NLSPLINE    = F    spline interpolate recip. space projectors
   LCOMPAT=      F    compatible to vasp.4.4
   GGA_COMPAT  = T    GGA compatible to vasp.4.4-vasp.4.6
   LMAXPAW     = -100 max onsite density
   LMAXMIX     =    2 max onsite mixed and CHGCAR
   VOSKOWN=      0    Vosko Wilk Nusair interpolation
   ROPT   =   -0.00025
 Ionic relaxation
   EDIFFG = 0.1E-04   stopping-criterion for IOM
   NSW    =      0    number of steps for IOM
   NBLOCK =      1;   KBLOCK =      1    inner block; outer block 
   IBRION =     -1    ionic relax: 0-MD 1-quasi-New 2-CG
   NFREE  =      0    steps in history (QN), initial steepest desc. (CG)
   ISIF   =      2    stress and relaxation
   IWAVPR =     10    prediction:  0-non 1-charg 2-wave 3-comb
   ISYM   =      2    0-nonsym 1-usesym 2-fastsym
   LCORR  =      T    Harris-Foulkes like correction to forces

   POTIM  = 0.5000    time-step for ionic-motion
   TEIN   =    0.0    initial temperature
   TEBEG  =    0.0;   TEEND  =   0.0 temperature during run
   SMASS  =  -3.00    Nose mass-parameter (am)
   estimated Nose-frequenzy (Omega)   =  0.10E-29 period in steps = 0.13E+47 mass=  -0.102E-25a.u.
   SCALEE = 1.0000    scale energy and forces
   NPACO  =    256;   APACO  = 10.0  distance and # of slots for P.C.
   PSTRESS=    0.0 pullay stress

  Mass of Ions in am
   POMASS =  63.55
  Ionic Valenz
   ZVAL   =  11.00
  Atomic Wigner-Seitz radii
   RWIGS  =  -1.00
  virtual crystal weights 
   VCA    =   1.00
   NELECT =      44.0000    total number of electrons
   NUPDOWN=      -1.0000    fix difference up-down

 DOS related values:
   EMIN   =  10.00;   EMAX   =-10.00  energy-range for DOS
   EFERMI =   0.00
   ISMEAR =     0;   SIGMA  =   0.05  broadening in eV -4-tet -1-fermi 0-gaus

 Electronic relaxation 2 (details)
   IALGO  =     58    algorithm
   LDIAG  =      T    sub-space diagonalisation (order eigenvalues)
   LSUBROT=      F    optimize rotation matrix (better conditioning)
   TURBO    =      0    0=normal 1=particle mesh
   IRESTART =      0    0=no restart 2=restart with 2 vectors
   NREBOOT  =      0    no. of reboots
   NMIN     =      0    reboot dimension
   EREF     =   0.00    reference energy to select bands
   IMIX   =      4    mixing-type and parameters
     AMIX     =   0.40;   BMIX     =  1.00
     AMIX_MAG =   1.60;   BMIX_MAG =  1.00
     AMIN     =   0.10
     WC   =   100.;   INIMIX=   1;  MIXPRE=   1;  MAXMIX= -45

 Intra band minimization:
   WEIMIN = 0.0000     energy-eigenvalue tresh-hold
   EBREAK =  0.26E-08  absolut break condition
   DEPER  =   0.30     relativ break condition  

   TIME   =   0.40     timestep for ELM

  volume/ion in A,a.u.               =    2470.40     16671.10
  Fermi-wavevector in a.u.,A,eV,Ry     =   0.269329  0.508958  0.986941  0.072538
  Thomas-Fermi vector in A             =   1.106612

 Write flags
   LWAVE        =      F    write WAVECAR
   LDOWNSAMPLE  =      F    k-point downsampling of WAVECAR
   LCHARG       =      F    write CHGCAR
   LVTOT        =      F    write LOCPOT, total local potential
   LVHAR        =      F    write LOCPOT, Hartree potential only
   LELF         =      F    write electronic localiz. function (ELF)
   LORBIT       =      0    0 simple, 1 ext, 2 COOP (PROOUT), +10 PAW based schemes


 Dipole corrections
   LMONO  =      F    monopole corrections only (constant potential shift)
   LDIPOL =      F    correct potential (dipole corrections)
   IDIPOL =      0    1-x, 2-y, 3-z, 4-all directions 
   EPSILON=  1.0000000 bulk dielectric constant

 Exchange correlation treatment:
   GGA     =    RE    GGA type
   LEXCH   =    40    internal setting for exchange type
   LIBXC   =     F    Libxc                    
   VOSKOWN =     0    Vosko Wilk Nusair interpolation
   LHFCALC =     F    Hartree Fock is set to
   LHFONE  =     F    Hartree Fock one center treatment
   AEXX    =    0.0000 exact exchange contribution

 Linear response parameters
   LEPSILON=     F    determine dielectric tensor
   LRPA    =     F    only Hartree local field effects (RPA)
   LNABLA  =     F    use nabla operator in PAW spheres
   LVEL    =     F    velocity operator in full k-point grid
   CSHIFT  =0.1000    complex shift for real part using Kramers Kronig
   OMEGAMAX=  -1.0    maximum frequency
   DEG_THRESHOLD= 0.2000000E-02 threshold for treating states as degnerate
   RTIME   =   -0.100 relaxation time in fs
  (WPLASMAI=    0.000 imaginary part of plasma frequency in eV, 0.658/RTIME)
   DFIELD  = 0.0000000 0.0000000 0.0000000 field for delta impulse in time

  Optional k-point grid parameters
   LKPOINTS_OPT  =     F    use optional k-point grid
   KPOINTS_OPT_MODE=     1    mode for optional k-point grid

 Orbital magnetization related:
   ORBITALMAG=     F  switch on orbital magnetization
   LCHIMAG   =     F  perturbation theory with respect to B field
   DQ        =  0.001000  dq finite difference perturbation B field
   LLRAUG    =     F  two centre corrections for induced B field



--------------------------------------------------------------------------------------------------------


 Static calculation
 charge density and potential will be updated during run
 non-spin polarized calculation
 Conjugate gradient for all bands (Freysoldt, et al. PRB 79, 241103 (2009))
 preconditioned conjugated gradient                                        
 perform sub-space diagonalisation
    before iterative eigenvector-optimisation
 modified Broyden-mixing scheme, WC =      100.0
 initial mixing is a Kerker type mixing with AMIX =  0.4000 and BMIX =      1.0000
 Hartree-type preconditioning will be used
 using additional bands           74
 real space projection scheme for non local part
 use partial core corrections
 no Harris-corrections to forces 
 use gradient corrections 
 use of overlap-Matrix (Vanderbilt PP)
 Gauss-broadening in eV      SIGMA  =   0.05


--------------------------------------------------------------------------------------------------------


  energy-cutoff  :      520.00
  volume of cell :     9881.61
      direct lattice vectors                 reciprocal lattice vectors
    21.138852197  0.000000000  0.000000000     0.047306258  0.000000000  0.000000000
     0.000000000 21.138852197  0.000000000     0.000000000  0.047306258  0.000000000
     0.000000000  0.000000000 22.113885220     0.000000000  0.000000000  0.045220457

  length of vectors
    21.138852197 21.138852197 22.113885220     0.047306258  0.047306258  0.045220457



 k-points in units of 2pi/SCALE and weight: KPOINTS created by Atomic Simulation Env
   0.00000000  0.00000000  0.00000000       1.000

 k-points in reciprocal lattice and weights: KPOINTS created by Atomic Simulation Env
   0.00000000  0.00000000  0.00000000       1.000

 position of ions in fractional coordinates (direct lattice) 
   0.40022928  0.42132870  0.59289401
   0.40062627  0.50572865  0.65659749
   0.40085084  0.61357787  0.69121018
   0.40024899  0.59420428  0.59031589

 position of ions in cartesian coordinates  (Angst):
   8.46038764  8.90640515 13.11119008
   8.46877940 10.69052316 14.51992163
   8.47352660 12.97033192 15.28534267
   8.46080425 12.56079650 13.05417794



--------------------------------------------------------------------------------------------------------


 k-point   1 :   0.0000 0.0000 0.0000  plane waves:  265979

 maximum and minimum number of plane-waves per node :     66495    66494

 maximum number of plane-waves:    265979
 maximum index in each direction: 
   IXMAX=   39   IYMAX=   39   IZMAX=   41
   IXMIN=  -39   IYMIN=  -39   IZMIN=  -41


 real space projection operators:
  total allocation   :       3593.11 KBytes
  max/ min on nodes  :        908.30        888.05


 parallel 3D FFT for wavefunctions:
    minimum data exchange during FFTs selected (reduces bandwidth)
 parallel 3D FFT for charge:
    minimum data exchange during FFTs selected (reduces bandwidth)


 total amount of memory used by VASP MPI-rank0   118516. kBytes
=======================================================================

   base      :      30000. kBytes
   nonlr-proj:       1541. kBytes
   fftplans  :      35474. kBytes
   grid      :      48291. kBytes
   one-center:         15. kBytes
   wavefun   :       3195. kBytes

     INWAV:  cpu time      0.0001: real time      0.0000
 Broyden mixing: mesh for mixing (old mesh)
   NGX = 79   NGY = 79   NGZ = 83
  (NGX  =320   NGY  =320   NGZ  =336)
  gives a total of 518003 points

 initial charge density was supplied:
 charge density of overlapping atoms calculated
 number of electron      44.0000000 magnetization 
 keeping initial charge density in first step


--------------------------------------------------------------------------------------------------------


 Maximum index for non-local projection operator         1580
 Maximum index for augmentation-charges            0 (set IRDMAX)


--------------------------------------------------------------------------------------------------------


 First call to EWALD:  gamma=   0.083
 Maximum number of real-space cells 3x 3x 3
 Maximum number of reciprocal cells 3x 3x 3

    FEWALD:  cpu time      0.0011: real time      0.0011


--------------------------------------- Iteration      1(   1)  ---------------------------------------


    POTLOK:  cpu time      0.1383: real time      0.1384
    SETDIJ:  cpu time      0.1811: real time      0.1811
    TRIAL :  cpu time      0.6323: real time      0.6329
    CORREC:  cpu time      0.0011: real time      0.0011
    --------------------------------------------
      LOOP:  cpu time      0.9541: real time      0.9549

 eigenvalue-minimisations  :   192
 total energy-change (2. order) : 0.2383692E+03  (-0.8521674E+03)
 number of electron      44.0000000 magnetization 
 augmentation part       44.0000000 magnetization 

 Free energy of the ion-electron system (eV)
  ---------------------------------------------------
  alpha Z        PSCENC =         1.18414354
  Ewald energy   TEWEN  =      2026.83575057
  -Hartree energ DENC   =     -7105.62583309
  -exchange      EXHF   =         0.00000000
  -V(xc)+E(xc)   XCENC  =       175.05872969
  PAW double counting   =      4915.22768225    -5334.76892552
  entropy T*S    EENTRO =        -0.06238650
  eigenvalues    EBANDS =         0.37456003
  atomic energy  EATOM  =      5560.14551830
  ---------------------------------------------------
  free energy    TOTEN  =       238.36923928 eV

  energy without entropy =      238.43162578  energy(sigma->0) =      238.40043253


--------------------------------------------------------------------------------------------------------




--------------------------------------- Iteration      1(   2)  ---------------------------------------


    TRIAL :  cpu time      0.6220: real time      0.6220
    CORREC:  cpu time      0.0003: real time      0.0003
    --------------------------------------------
      LOOP:  cpu time      0.6242: real time      0.6295

 eigenvalue-minimisations  :   192
 total energy-change (2. order) :-0.2376324E+03  (-0.2368385E+03)
 number of electron      44.0000000 magnetization 
 augmentation part       44.0000000 magnetization 

 Free energy of the ion-electron system (eV)
  ---------------------------------------------------
  alpha Z        PSCENC =         1.18414354
  Ewald energy   TEWEN  =      2026.83575057
  -Hartree energ DENC   =     -7105.62583309
  -exchange      EXHF   =         0.00000000
  -V(xc)+E(xc)   XCENC  =       175.05872969
  PAW double counting   =      4915.22768225    -5334.76892552
  entropy T*S    EENTRO =        -0.00000000
  eigenvalues    EBANDS =      -237.32024677
  atomic energy  EATOM  =      5560.14551830
  ---------------------------------------------------
  free energy    TOTEN  =         0.73681898 eV

  energy without entropy =        0.73681898  energy(sigma->0) =        0.73681898


--------------------------------------------------------------------------------------------------------




--------------------------------------- Iteration      1(   3)  ---------------------------------------


    TRIAL :  cpu time      0.6333: real time      0.6336
    CORREC:  cpu time      0.0003: real time      0.0003
    --------------------------------------------
      LOOP:  cpu time      0.6353: real time      0.6409

 eigenvalue-minimisations  :   192
 total energy-change (2. order) :-0.8045694E+01  (-0.8045694E+01)
 number of electron      44.0000000 magnetization 
 augmentation part       44.0000000 magnetization 

 Free energy of the ion-electron system (eV)
  ---------------------------------------------------
  alpha Z        PSCENC =         1.18414354
  Ewald energy   TEWEN  =      2026.83575057
  -Hartree energ DENC   =     -7105.62583309
  -exchange      EXHF   =         0.00000000
  -V(xc)+E(xc)   XCENC  =       175.05872969
  PAW double counting   =      4915.22768225    -5334.76892552
  entropy T*S    EENTRO =        -0.00000000
  eigenvalues    EBANDS =      -245.36594045
  atomic energy  EATOM  =      5560.14551830
  ---------------------------------------------------
  free energy    TOTEN  =        -7.30887470 eV

  energy without entropy =       -7.30887470  energy(sigma->0) =       -7.30887470


--------------------------------------------------------------------------------------------------------




--------------------------------------- Iteration      1(   4)  ---------------------------------------


    TRIAL :  cpu time      0.6260: real time      0.6263
    CORREC:  cpu time      0.0003: real time      0.0003
    --------------------------------------------
      LOOP:  cpu time      0.6327: real time      0.6332

 eigenvalue-minimisations  :   192
 total energy-change (2. order) :-0.1567667E+00  (-0.1567667E+00)
 number of electron      44.0000000 magnetization 
 augmentation part       44.0000000 magnetization 

 Free energy of the ion-electron system (eV)
  ---------------------------------------------------
  alpha Z        PSCENC =         1.18414354
  Ewald energy   TEWEN  =      2026.83575057
  -Hartree energ DENC   =     -7105.62583309
  -exchange      EXHF   =         0.00000000
  -V(xc)+E(xc)   XCENC  =       175.05872969
  PAW double counting   =      4915.22768225    -5334.76892552
  entropy T*S    EENTRO =        -0.00000000
  eigenvalues    EBANDS =      -245.52270711
  atomic energy  EATOM  =      5560.14551830
  ---------------------------------------------------
  free energy    TOTEN  =        -7.46564136 eV

  energy without entropy =       -7.46564136  energy(sigma->0) =       -7.46564136


--------------------------------------------------------------------------------------------------------




--------------------------------------- Iteration      1(   5)  ---------------------------------------


    TRIAL :  cpu time      2.0037: real time      2.0043
    CORREC:  cpu time      0.0003: real time      0.0003
    CHARGE:  cpu time      0.1198: real time      0.1200
    --------------------------------------------
      LOOP:  cpu time      2.1253: real time      2.1316

 eigenvalue-minimisations  :   384
 total energy-change (2. order) :-0.2479857E-02  (-0.2479857E-02)
 number of electron      44.0000022 magnetization 
 augmentation part       27.7792402 magnetization 

 Free energy of the ion-electron system (eV)
  ---------------------------------------------------
  alpha Z        PSCENC =         1.18414354
  Ewald energy   TEWEN  =      2026.83575057
  -Hartree energ DENC   =     -7105.62583309
  -exchange      EXHF   =         0.00000000
  -V(xc)+E(xc)   XCENC  =       175.05872969
  PAW double counting   =      4915.22768225    -5334.76892552
  entropy T*S    EENTRO =        -0.00000000
  eigenvalues    EBANDS =      -245.52518696
  atomic energy  EATOM  =      5560.14551830
  ---------------------------------------------------
  free energy    TOTEN  =        -7.46812121 eV

  energy without entropy =       -7.46812121  energy(sigma->0) =       -7.46812121


--------------------------------------------------------------------------------------------------------




--------------------------------------- Iteration      1(   6)  ---------------------------------------


    POTLOK:  cpu time      0.1231: real time      0.1231
    SETDIJ:  cpu time      0.1776: real time      0.1776
    TRIAL :  cpu time      0.8971: real time      0.8976
    CORREC:  cpu time      0.5093: real time      0.5097
    CHARGE:  cpu time      0.1170: real time      0.1170
    --------------------------------------------
      LOOP:  cpu time      1.8311: real time      1.8322

 eigenvalue-minimisations  :     0
 total energy-change (2. order) : 0.3301709E+01  (-0.1571430E+01)
 number of electron      44.0000023 magnetization 
 augmentation part       28.4425492 magnetization 

 Free energy of the ion-electron system (eV)
  ---------------------------------------------------
  alpha Z        PSCENC =         1.18414354
  Ewald energy   TEWEN  =      2026.83575057
  -Hartree energ DENC   =     -7057.10802944
  -exchange      EXHF   =         0.00000000
  -V(xc)+E(xc)   XCENC  =       170.84100749
  PAW double counting   =      5039.05267557    -5443.75507614
  entropy T*S    EENTRO =        -0.00000000
  eigenvalues    EBANDS =      -301.36240212
  atomic energy  EATOM  =      5560.14551830
  ---------------------------------------------------
  free energy    TOTEN  =        -4.16641222 eV

  energy without entropy =       -4.16641222  energy(sigma->0) =       -4.16641222


--------------------------------------------------------------------------------------------------------




--------------------------------------- Iteration      1(   7)  ---------------------------------------


    POTLOK:  cpu time      0.1232: real time      0.1233
    SETDIJ:  cpu time      0.1791: real time      0.1791
    TRIAL :  cpu time      0.2495: real time      0.2496
    CORREC:  cpu time      0.5076: real time      0.5079
    CHARGE:  cpu time      0.1173: real time      0.1173
    --------------------------------------------
      LOOP:  cpu time      1.1836: real time      1.1844

 eigenvalue-minimisations  :     0
 total energy-change (2. order) :-0.1456789E+01  (-0.5413259E+00)
 number of electron      44.0000023 magnetization 
 augmentation part       28.3192945 magnetization 

 Free energy of the ion-electron system (eV)
  ---------------------------------------------------
  alpha Z        PSCENC =         1.18414354
  Ewald energy   TEWEN  =      2026.83575057
  -Hartree energ DENC   =     -7135.98057798
  -exchange      EXHF   =         0.00000000
  -V(xc)+E(xc)   XCENC  =       174.24021756
  PAW double counting   =      5088.71854156    -5518.23186855
  entropy T*S    EENTRO =        -0.00000000
  eigenvalues    EBANDS =      -202.53492656
  atomic energy  EATOM  =      5560.14551830
  ---------------------------------------------------
  free energy    TOTEN  =        -5.62320156 eV

  energy without entropy =       -5.62320156  energy(sigma->0) =       -5.62320156


--------------------------------------------------------------------------------------------------------




--------------------------------------- Iteration      1(   8)  ---------------------------------------


    POTLOK:  cpu time      0.1225: real time      0.1225
    SETDIJ:  cpu time      0.1820: real time      0.1820
    TRIAL :  cpu time      0.2497: real time      0.2498
    CORREC:  cpu time      0.5063: real time      0.5067
    CHARGE:  cpu time      0.1169: real time      0.1169
    --------------------------------------------
      LOOP:  cpu time      1.1823: real time      1.1853

 eigenvalue-minimisations  :     0
 total energy-change (2. order) :-0.5373720E+00  (-0.8741703E-01)
 number of electron      44.0000023 magnetization 
 augmentation part       28.4413286 magnetization 

 Free energy of the ion-electron system (eV)
  ---------------------------------------------------
  alpha Z        PSCENC =         1.18414354
  Ewald energy   TEWEN  =      2026.83575057
  -Hartree energ DENC   =     -7092.13766731
  -exchange      EXHF   =         0.00000000
  -V(xc)+E(xc)   XCENC  =       173.25708735
  PAW double counting   =      5061.77501487    -5484.16761210
  entropy T*S    EENTRO =        -0.00000000
  eigenvalues    EBANDS =      -253.05280875
  atomic energy  EATOM  =      5560.14551830
  ---------------------------------------------------
  free energy    TOTEN  =        -6.16057352 eV

  energy without entropy =       -6.16057352  energy(sigma->0) =       -6.16057352


--------------------------------------------------------------------------------------------------------




--------------------------------------- Iteration      1(   9)  ---------------------------------------


    POTLOK:  cpu time      0.1224: real time      0.1225
    SETDIJ:  cpu time      0.1796: real time      0.1796
    TRIAL :  cpu time      0.2498: real time      0.2501
    CORREC:  cpu time      0.5064: real time      0.5064
    CHARGE:  cpu time      0.1178: real time      0.1178
    --------------------------------------------
      LOOP:  cpu time      1.1780: real time      1.1844

 eigenvalue-minimisations  :     0
 total energy-change (2. order) :-0.8647182E-01  (-0.7188611E-01)
 number of electron      44.0000023 magnetization 
 augmentation part       28.4072692 magnetization 

 Free energy of the ion-electron system (eV)
  ---------------------------------------------------
  alpha Z        PSCENC =         1.18414354
  Ewald energy   TEWEN  =      2026.83575057
  -Hartree energ DENC   =     -7106.91493180
  -exchange      EXHF   =         0.00000000
  -V(xc)+E(xc)   XCENC  =       173.91311858
  PAW double counting   =      5073.81050802    -5500.38201288
  entropy T*S    EENTRO =        -0.00000000
  eigenvalues    EBANDS =      -234.83913968
  atomic energy  EATOM  =      5560.14551830
  ---------------------------------------------------
  free energy    TOTEN  =        -6.24704534 eV

  energy without entropy =       -6.24704534  energy(sigma->0) =       -6.24704534


--------------------------------------------------------------------------------------------------------




--------------------------------------- Iteration      1(  10)  ---------------------------------------


    POTLOK:  cpu time      0.1238: real time      0.1239
    SETDIJ:  cpu time      0.1790: real time      0.1793
    TRIAL :  cpu time      0.2485: real time      0.2485
    CORREC:  cpu time      0.5046: real time      0.5047
    CHARGE:  cpu time      0.1172: real time      0.1172
    --------------------------------------------
      LOOP:  cpu time      1.1819: real time      1.1826

 eigenvalue-minimisations  :     0
 total energy-change (2. order) :-0.7190213E-01  (-0.1715479E-01)
 number of electron      44.0000022 magnetization 
 augmentation part       28.4090985 magnetization 

 Free energy of the ion-electron system (eV)
  ---------------------------------------------------
  alpha Z        PSCENC =         1.18414354
  Ewald energy   TEWEN  =      2026.83575057
  -Hartree energ DENC   =     -7104.70210757
  -exchange      EXHF   =         0.00000000
  -V(xc)+E(xc)   XCENC  =       173.79282411
  PAW double counting   =      5077.08455153    -5501.48438781
  entropy T*S    EENTRO =        -0.00000000
  eigenvalues    EBANDS =      -239.17524013
  atomic energy  EATOM  =      5560.14551830
  ---------------------------------------------------
  free energy    TOTEN  =        -6.31894747 eV

  energy without entropy =       -6.31894747  energy(sigma->0) =       -6.31894747


--------------------------------------------------------------------------------------------------------




--------------------------------------- Iteration      1(  11)  ---------------------------------------


    POTLOK:  cpu time      0.1215: real time      0.1218
    SETDIJ:  cpu time      0.1789: real time      0.1789
    TRIAL :  cpu time      0.2497: real time      0.2497
    CORREC:  cpu time      0.5071: real time      0.5073
    CHARGE:  cpu time      0.1169: real time      0.1169
    --------------------------------------------
      LOOP:  cpu time      1.1790: real time      1.1831

 eigenvalue-minimisations  :     0
 total energy-change (2. order) :-0.1714319E-01  (-0.1620906E-01)
 number of electron      44.0000023 magnetization 
 augmentation part       28.4325931 magnetization 

 Free energy of the ion-electron system (eV)
  ---------------------------------------------------
  alpha Z        PSCENC =         1.18414354
  Ewald energy   TEWEN  =      2026.83575057
  -Hartree energ DENC   =     -7104.76079860
  -exchange      EXHF   =         0.00000000
  -V(xc)+E(xc)   XCENC  =       173.80745726
  PAW double counting   =      5077.40576668    -5501.49183684
  entropy T*S    EENTRO =        -0.00000000
  eigenvalues    EBANDS =      -239.46209158
  atomic energy  EATOM  =      5560.14551830
  ---------------------------------------------------
  free energy    TOTEN  =        -6.33609066 eV

  energy without entropy =       -6.33609066  energy(sigma->0) =       -6.33609066


--------------------------------------------------------------------------------------------------------




--------------------------------------- Iteration      1(  12)  ---------------------------------------


    POTLOK:  cpu time      0.1217: real time      0.1217
    SETDIJ:  cpu time      0.1792: real time      0.1792
    TRIAL :  cpu time      0.2505: real time      0.2505
    CORREC:  cpu time      0.5053: real time      0.5055
    CHARGE:  cpu time      0.1154: real time      0.1154
    --------------------------------------------
      LOOP:  cpu time      1.1740: real time      1.1797

 eigenvalue-minimisations  :     0
 total energy-change (2. order) :-0.1616726E-01  (-0.3060662E-02)
 number of electron      44.0000022 magnetization 
 augmentation part       28.4163105 magnetization 

 Free energy of the ion-electron system (eV)
  ---------------------------------------------------
  alpha Z        PSCENC =         1.18414354
  Ewald energy   TEWEN  =      2026.83575057
  -Hartree energ DENC   =     -7107.13998402
  -exchange      EXHF   =         0.00000000
  -V(xc)+E(xc)   XCENC  =       173.91952932
  PAW double counting   =      5078.09719058    -5502.60467215
  entropy T*S    EENTRO =        -0.00000000
  eigenvalues    EBANDS =      -236.78973407
  atomic energy  EATOM  =      5560.14551830
  ---------------------------------------------------
  free energy    TOTEN  =        -6.35225792 eV

  energy without entropy =       -6.35225792  energy(sigma->0) =       -6.35225792


--------------------------------------------------------------------------------------------------------




--------------------------------------- Iteration      1(  13)  ---------------------------------------


    POTLOK:  cpu time      0.1216: real time      0.1217
    SETDIJ:  cpu time      0.1801: real time      0.1801
    TRIAL :  cpu time      0.2493: real time      0.2494
    CORREC:  cpu time      0.5025: real time      0.5028
    CHARGE:  cpu time      0.1168: real time      0.1168
    --------------------------------------------
      LOOP:  cpu time      1.1774: real time      1.1779

 eigenvalue-minimisations  :     0
 total energy-change (2. order) :-0.3060383E-02  (-0.2210706E-02)
 number of electron      44.0000023 magnetization 
 augmentation part       28.4312471 magnetization 

 Free energy of the ion-electron system (eV)
  ---------------------------------------------------
  alpha Z        PSCENC =         1.18414354
  Ewald energy   TEWEN  =      2026.83575057
  -Hartree energ DENC   =     -7104.17559136
  -exchange      EXHF   =         0.00000000
  -V(xc)+E(xc)   XCENC  =       173.81622384
  PAW double counting   =      5075.69895379    -5499.48262403
  entropy T*S    EENTRO =        -0.00000000
  eigenvalues    EBANDS =      -240.37769295
  atomic energy  EATOM  =      5560.14551830
  ---------------------------------------------------
  free energy    TOTEN  =        -6.35531831 eV

  energy without entropy =       -6.35531831  energy(sigma->0) =       -6.35531831


--------------------------------------------------------------------------------------------------------




--------------------------------------- Iteration      1(  14)  ---------------------------------------


    POTLOK:  cpu time      0.1212: real time      0.1212
    SETDIJ:  cpu time      0.1782: real time      0.1782
    TRIAL :  cpu time      0.2494: real time      0.2498
    CORREC:  cpu time      0.5047: real time      0.5047
    CHARGE:  cpu time      0.1188: real time      0.1188
    --------------------------------------------
      LOOP:  cpu time      1.1756: real time      1.1810

 eigenvalue-minimisations  :     0
 total energy-change (2. order) :-0.2207789E-02  (-0.3257968E-03)
 number of electron      44.0000023 magnetization 
 augmentation part       28.4302224 magnetization 

 Free energy of the ion-electron system (eV)
  ---------------------------------------------------
  alpha Z        PSCENC =         1.18414354
  Ewald energy   TEWEN  =      2026.83575057
  -Hartree energ DENC   =     -7105.62600058
  -exchange      EXHF   =         0.00000000
  -V(xc)+E(xc)   XCENC  =       173.87983104
  PAW double counting   =      5076.12323059    -5500.42925828
  entropy T*S    EENTRO =        -0.00000000
  eigenvalues    EBANDS =      -238.47074128
  atomic energy  EATOM  =      5560.14551830
  ---------------------------------------------------
  free energy    TOTEN  =        -6.35752609 eV

  energy without entropy =       -6.35752609  energy(sigma->0) =       -6.35752609


--------------------------------------------------------------------------------------------------------




--------------------------------------- Iteration      1(  15)  ---------------------------------------


    POTLOK:  cpu time      0.1205: real time      0.1205
    SETDIJ:  cpu time      0.1784: real time      0.1784
    TRIAL :  cpu time      0.2494: real time      0.2498
    CORREC:  cpu time      0.5034: real time      0.5034
    CHARGE:  cpu time      0.1166: real time      0.1166
    --------------------------------------------
      LOOP:  cpu time      1.1703: real time      1.1770

 eigenvalue-minimisations  :     0
 total energy-change (2. order) :-0.3259281E-03  (-0.1942071E-03)
 number of electron      44.0000022 magnetization 
 augmentation part       28.4303456 magnetization 

 Free energy of the ion-electron system (eV)
  ---------------------------------------------------
  alpha Z        PSCENC =         1.18414354
  Ewald energy   TEWEN  =      2026.83575057
  -Hartree energ DENC   =     -7105.39308480
  -exchange      EXHF   =         0.00000000
  -V(xc)+E(xc)   XCENC  =       173.87279486
  PAW double counting   =      5076.11512347    -5500.36303949
  entropy T*S    EENTRO =        -0.00000000
  eigenvalues    EBANDS =      -238.75505847
  atomic energy  EATOM  =      5560.14551830
  ---------------------------------------------------
  free energy    TOTEN  =        -6.35785202 eV

  energy without entropy =       -6.35785202  energy(sigma->0) =       -6.35785202


--------------------------------------------------------------------------------------------------------




--------------------------------------- Iteration      1(  16)  ---------------------------------------


    POTLOK:  cpu time      0.1214: real time      0.1214
    SETDIJ:  cpu time      0.1787: real time      0.1789
    TRIAL :  cpu time      0.2494: real time      0.2494
    CORREC:  cpu time      0.5036: real time      0.5036
    CHARGE:  cpu time      0.1184: real time      0.1187
    --------------------------------------------
      LOOP:  cpu time      1.1745: real time      1.1803

 eigenvalue-minimisations  :     0
 total energy-change (2. order) :-0.1939248E-03  (-0.4446093E-04)
 number of electron      44.0000023 magnetization 
 augmentation part       28.4324317 magnetization 

 Free energy of the ion-electron system (eV)
  ---------------------------------------------------
  alpha Z        PSCENC =         1.18414354
  Ewald energy   TEWEN  =      2026.83575057
  -Hartree energ DENC   =     -7105.39966525
  -exchange      EXHF   =         0.00000000
  -V(xc)+E(xc)   XCENC  =       173.87235946
  PAW double counting   =      5076.24258556    -5500.47748486
  entropy T*S    EENTRO =        -0.00000000
  eigenvalues    EBANDS =      -238.76125327
  atomic energy  EATOM  =      5560.14551830
  ---------------------------------------------------
  free energy    TOTEN  =        -6.35804595 eV

  energy without entropy =       -6.35804595  energy(sigma->0) =       -6.35804595


--------------------------------------------------------------------------------------------------------




--------------------------------------- Iteration      1(  17)  ---------------------------------------


    POTLOK:  cpu time      0.1181: real time      0.1182
    SETDIJ:  cpu time      0.1805: real time      0.1805
    TRIAL :  cpu time      0.2489: real time      0.2489
    CORREC:  cpu time      0.5020: real time      0.5030
    CHARGE:  cpu time      0.1171: real time      0.1171
    --------------------------------------------
      LOOP:  cpu time      1.1692: real time      1.1761

 eigenvalue-minimisations  :     0
 total energy-change (2. order) :-0.4458883E-04  (-0.2014779E-04)
 number of electron      44.0000023 magnetization 
 augmentation part       28.4307635 magnetization 

 Free energy of the ion-electron system (eV)
  ---------------------------------------------------
  alpha Z        PSCENC =         1.18414354
  Ewald energy   TEWEN  =      2026.83575057
  -Hartree energ DENC   =     -7105.69085488
  -exchange      EXHF   =         0.00000000
  -V(xc)+E(xc)   XCENC  =       173.88406578
  PAW double counting   =      5076.54456979    -5500.85348752
  entropy T*S    EENTRO =        -0.00000000
  eigenvalues    EBANDS =      -238.40779612
  atomic energy  EATOM  =      5560.14551830
  ---------------------------------------------------
  free energy    TOTEN  =        -6.35809054 eV

  energy without entropy =       -6.35809054  energy(sigma->0) =       -6.35809054


--------------------------------------------------------------------------------------------------------




--------------------------------------- Iteration      1(  18)  ---------------------------------------


    POTLOK:  cpu time      0.1180: real time      0.1180
    SETDIJ:  cpu time      0.1808: real time      0.1809
    TRIAL :  cpu time      0.2529: real time      0.2529
    CORREC:  cpu time      0.5050: real time      0.5051
    CHARGE:  cpu time      0.1161: real time      0.1161
    --------------------------------------------
      LOOP:  cpu time      1.1803: real time      1.1806

 eigenvalue-minimisations  :     0
 total energy-change (2. order) :-0.2024108E-04  (-0.6719504E-05)
 number of electron      44.0000023 magnetization 
 augmentation part       28.4312008 magnetization 

 Free energy of the ion-electron system (eV)
  ---------------------------------------------------
  alpha Z        PSCENC =         1.18414354
  Ewald energy   TEWEN  =      2026.83575057
  -Hartree energ DENC   =     -7105.47513849
  -exchange      EXHF   =         0.00000000
  -V(xc)+E(xc)   XCENC  =       173.87522875
  PAW double counting   =      5076.46750534    -5500.70818000
  entropy T*S    EENTRO =        -0.00000000
  eigenvalues    EBANDS =      -238.68293879
  atomic energy  EATOM  =      5560.14551830
  ---------------------------------------------------
  free energy    TOTEN  =        -6.35811078 eV

  energy without entropy =       -6.35811078  energy(sigma->0) =       -6.35811078


--------------------------------------------------------------------------------------------------------




--------------------------------------- Iteration      1(  19)  ---------------------------------------


    POTLOK:  cpu time      0.1197: real time      0.1198
    SETDIJ:  cpu time      0.1799: real time      0.1799
    TRIAL :  cpu time      0.2487: real time      0.2487
    CORREC:  cpu time      0.5016: real time      0.5017
    CHARGE:  cpu time      0.1175: real time      0.1175
    --------------------------------------------
      LOOP:  cpu time      1.1700: real time      1.1750

 eigenvalue-minimisations  :     0
 total energy-change (2. order) :-0.6725114E-05  (-0.3097978E-05)
 number of electron      44.0000023 magnetization 
 augmentation part       28.4310063 magnetization 

 Free energy of the ion-electron system (eV)
  ---------------------------------------------------
  alpha Z        PSCENC =         1.18414354
  Ewald energy   TEWEN  =      2026.83575057
  -Hartree energ DENC   =     -7105.55301669
  -exchange      EXHF   =         0.00000000
  -V(xc)+E(xc)   XCENC  =       173.87793566
  PAW double counting   =      5076.57521830    -5500.83449915
  entropy T*S    EENTRO =        -0.00000000
  eigenvalues    EBANDS =      -238.58916804
  atomic energy  EATOM  =      5560.14551830
  ---------------------------------------------------
  free energy    TOTEN  =        -6.35811750 eV

  energy without entropy =       -6.35811750  energy(sigma->0) =       -6.35811750


--------------------------------------------------------------------------------------------------------




--------------------------------------- Iteration      1(  20)  ---------------------------------------


    POTLOK:  cpu time      0.1201: real time      0.1201
    SETDIJ:  cpu time      0.1773: real time      0.1773
    TRIAL :  cpu time      0.2496: real time      0.2496
    CORREC:  cpu time      0.5020: real time      0.5020
    CHARGE:  cpu time      0.1165: real time      0.1165
    --------------------------------------------
      LOOP:  cpu time      1.1669: real time      1.1740

 eigenvalue-minimisations  :     0
 total energy-change (2. order) :-0.3127173E-05  (-0.9230126E-06)
 number of electron      44.0000023 magnetization 
 augmentation part       28.4308248 magnetization 

 Free energy of the ion-electron system (eV)
  ---------------------------------------------------
  alpha Z        PSCENC =         1.18414354
  Ewald energy   TEWEN  =      2026.83575057
  -Hartree energ DENC   =     -7105.52987710
  -exchange      EXHF   =         0.00000000
  -V(xc)+E(xc)   XCENC  =       173.87688529
  PAW double counting   =      5076.58334132    -5500.83690680
  entropy T*S    EENTRO =        -0.00000000
  eigenvalues    EBANDS =      -238.61697576
  atomic energy  EATOM  =      5560.14551830
  ---------------------------------------------------
  free energy    TOTEN  =        -6.35812063 eV

  energy without entropy =       -6.35812063  energy(sigma->0) =       -6.35812063


--------------------------------------------------------------------------------------------------------




--------------------------------------- Iteration      1(  21)  ---------------------------------------


    POTLOK:  cpu time      0.1224: real time      0.1224
    SETDIJ:  cpu time      0.1746: real time      0.1747
    TRIAL :  cpu time      0.2498: real time      0.2498
    CORREC:  cpu time      0.5045: real time      0.5046
    EDDIAG:  cpu time      0.1123: real time      0.1123
    CHARGE:  cpu time      0.1166: real time      0.1167
    --------------------------------------------
      LOOP:  cpu time      1.2883: real time      1.2888

 eigenvalue-minimisations  :     0
 total energy-change (2. order) :-0.9022297E-06  (-0.4063788E-06)
 number of electron      44.0000023 magnetization 
 augmentation part       28.4309804 magnetization 

 Free energy of the ion-electron system (eV)
  ---------------------------------------------------
  alpha Z        PSCENC =         1.18414354
  Ewald energy   TEWEN  =      2026.83575057
  -Hartree energ DENC   =     -7105.49400087
  -exchange      EXHF   =         0.00000000
  -V(xc)+E(xc)   XCENC  =       173.87567423
  PAW double counting   =      5076.56685361    -5500.81425575
  entropy T*S    EENTRO =        -0.00000000
  eigenvalues    EBANDS =      -238.65780517
  atomic energy  EATOM  =      5560.14551830
  ---------------------------------------------------
  free energy    TOTEN  =        -6.35812153 eV

  energy without entropy =       -6.35812153  energy(sigma->0) =       -6.35812153


--------------------------------------------------------------------------------------------------------


  average scaling for gradient   1.1304


 average (electrostatic) potential at core
  the test charge radii are     0.9430
  (the norm of the test charge is              1.0000)
       1 -73.3020       2 -74.1719       3 -74.2278       4 -74.3189



 E-fermi :  -4.1109     XC(G=0):  -0.2349     alpha+bet : -0.0642

 Fermi energy:        -4.1108977415

 k-point     1 :       0.0000    0.0000    0.0000
  band No.  band energies     occupation 
      1      -7.6727      2.00000
      2      -6.5297      2.00000
      3      -6.3719      2.00000
      4      -6.2331      2.00000
      5      -6.2297      2.00000
      6      -5.7848      2.00000
      7      -5.7199      2.00000
      8      -5.6444      2.00000
      9      -5.5034      2.00000
     10      -5.3822      2.00000
     11      -5.2808      2.00000
     12      -5.2619      2.00000
     13      -5.2506      2.00000
     14      -5.1934      2.00000
     15      -5.1426      2.00000
     16      -5.1129      2.00000
     17      -4.6423      2.00000
     18      -4.5093      2.00000
     19      -4.5051      2.00000
     20      -4.5013      2.00000
     21      -4.4814      2.00000
     22      -4.3610      2.00000
     23      -3.4613      0.00000
     24      -2.4117      0.00000
     25      -1.7326      0.00000
     26      -0.9769      0.00000
     27      -0.7767      0.00000
     28      -0.4734      0.00000
     29      -0.2375      0.00000
     30       0.0233      0.00000
     31       0.1826      0.00000
     32       0.2942      0.00000
     33       0.3094      0.00000
     34       0.3178      0.00000
     35       0.3197      0.00000
     36       0.3712      0.00000
     37       0.3897      0.00000
     38       0.5089      0.00000
     39       0.5980      0.00000
     40       0.6129      0.00000
     41       0.6211      0.00000
     42       0.6261      0.00000
     43       0.6563      0.00000
     44       0.6656      0.00000
     45       0.6749      0.00000
     46       0.7020      0.00000
     47       0.7249      0.00000
     48       0.7538      0.00000
     49       0.7769      0.00000
     50       0.8733      0.00000
     51       0.8907      0.00000
     52       0.9406      0.00000
     53       0.9539      0.00000
     54       0.9947      0.00000
     55       1.0047      0.00000
     56       1.0270      0.00000
     57       1.0883      0.00000
     58       1.1037      0.00000
     59       1.1791      0.00000
     60       1.2024      0.00000
     61       1.2181      0.00000
     62       1.2531      0.00000
     63       1.3195      0.00000
     64       1.3925      0.00000
     65       1.4056      0.00000
     66       1.4545      0.00000
     67       1.4834      0.00000
     68       1.5019      0.00000
     69       1.5088      0.00000
     70       1.5145      0.00000
     71       1.5431      0.00000
     72       1.5635      0.00000
     73       1.5796      0.00000
     74       1.5943      0.00000
     75       1.5962      0.00000
     76       1.6148      0.00000
     77       1.6184      0.00000
     78       1.6242      0.00000
     79       1.6457      0.00000
     80       1.6522      0.00000
     81       1.6759      0.00000
     82       1.6802      0.00000
     83       1.6961      0.00000
     84       1.6995      0.00000
     85       1.7112      0.00000
     86       1.7236      0.00000
     87       1.7243      0.00000
     88       1.7630      0.00000
     89       1.8157      0.00000
     90       1.8506      0.00000
     91       1.8717      0.00000
     92       1.8805      0.00000
     93       1.8929      0.00000
     94       1.9151      0.00000
     95       1.9160      0.00000
     96       1.9232      0.00000


--------------------------------------------------------------------------------------------------------


 soft charge-density along one line, spin component           1
         0         1         2         3         4         5         6         7         8         9
 total charge-density along one line

 pseudopotential strength for first ion, spin component:           1
 -9.721  -0.000   0.000  -0.034   0.000   0.401   0.000  -0.000
 -0.000  -9.777  -0.022  -0.000   0.036   0.000   0.443   0.016
  0.000  -0.022  -9.740  -0.000  -0.045  -0.000   0.016   0.415
 -0.034  -0.000  -0.000  -9.695  -0.000   0.025   0.000   0.000
  0.000   0.036  -0.045  -0.000  -9.726  -0.000  -0.026   0.034
  0.401   0.000  -0.000   0.025  -0.000   6.752  -0.000   0.000
  0.000   0.443   0.016   0.000  -0.026  -0.000   6.724  -0.011
 -0.000   0.016   0.415   0.000   0.034   0.000  -0.011   6.742
  0.025   0.000   0.000   0.381   0.000  -0.017  -0.000  -0.000
 -0.000  -0.026   0.034   0.000   0.404   0.000   0.017  -0.024
  0.000   0.010   0.002   0.000  -0.011   0.000   0.001  -0.000
  0.000   0.017   0.003   0.000  -0.019   0.000   0.004   0.000
 -0.000  -0.013   0.010   0.000   0.016   0.000   0.004  -0.003
  0.000  -0.016  -0.016  -0.000  -0.000  -0.000   0.004   0.004
 -0.017   0.000   0.000  -0.014  -0.000   0.004  -0.000  -0.000
 -0.000  -0.013   0.009   0.000   0.016   0.000   0.001   0.000
  0.000  -0.016  -0.016  -0.000  -0.000  -0.000  -0.000  -0.001
 -0.016   0.000   0.000  -0.014  -0.000  -0.000  -0.000  -0.000
 total augmentation occupancy for first ion, spin component:           1
  1.969  -0.000  -0.000  -0.007  -0.000  -0.017   0.000  -0.000   0.007  -0.000  -0.000  -0.000   0.000   0.000   0.043  -0.000
 -0.000   1.959  -0.015  -0.000  -0.002   0.000  -0.002   0.006   0.000  -0.011  -0.061  -0.006   0.070   0.080   0.000  -0.026
 -0.000  -0.015   1.954  -0.000  -0.019  -0.000   0.006  -0.014   0.000   0.004  -0.007  -0.001  -0.019   0.051  -0.000   0.018
 -0.007  -0.000  -0.000   1.975  -0.000   0.007   0.000   0.000  -0.019   0.000  -0.000  -0.000   0.000   0.000   0.034  -0.000
 -0.000  -0.002  -0.019  -0.000   1.959  -0.000  -0.011   0.004   0.000  -0.013   0.057  -0.000  -0.067  -0.014   0.000   0.031
 -0.017   0.000  -0.000   0.007  -0.000   0.002   0.000  -0.000   0.001  -0.000   0.000  -0.000   0.000   0.000   0.004  -0.000
  0.000  -0.002   0.006   0.000  -0.011   0.000   0.006   0.001   0.000  -0.003   0.066  -0.003   0.012   0.011   0.000  -0.001
 -0.000   0.006  -0.014   0.000   0.004  -0.000   0.001   0.002   0.000   0.001   0.010   0.000  -0.002   0.004  -0.000  -0.000
  0.007   0.000   0.000  -0.019   0.000   0.001   0.000   0.000   0.001  -0.000   0.000  -0.000   0.000   0.000   0.003  -0.000
 -0.000  -0.011   0.004   0.000  -0.013  -0.000  -0.003   0.001  -0.000   0.003  -0.042   0.002  -0.010  -0.005  -0.000   0.001
 -0.000  -0.061  -0.007  -0.000   0.057   0.000   0.066   0.010   0.000  -0.042   1.574  -0.042   0.179   0.145   0.001  -0.019
 -0.000  -0.006  -0.001  -0.000  -0.000  -0.000  -0.003   0.000  -0.000   0.002  -0.042   0.002  -0.009  -0.006  -0.000   0.001
  0.000   0.070  -0.019   0.000  -0.067   0.000   0.012  -0.002   0.000  -0.010   0.179  -0.009   0.042   0.022   0.000  -0.006
  0.000   0.080   0.051   0.000  -0.014   0.000   0.011   0.004   0.000  -0.005   0.145  -0.006   0.022   0.028   0.000  -0.003
  0.043   0.000  -0.000   0.034   0.000   0.004   0.000  -0.000   0.003  -0.000   0.001  -0.000   0.000   0.000   0.010  -0.000
 -0.000  -0.026   0.018  -0.000   0.031  -0.000  -0.001  -0.000  -0.000   0.001  -0.019   0.001  -0.006  -0.003  -0.000   0.001
 -0.000  -0.031  -0.030  -0.000   0.000  -0.000  -0.001  -0.000  -0.000   0.001  -0.015   0.001  -0.003  -0.004  -0.000   0.000
 -0.031  -0.000   0.000  -0.026  -0.000  -0.000  -0.000  -0.000  -0.000   0.000  -0.000   0.000  -0.000  -0.000  -0.002   0.000


------------------------ aborting loop because EDIFF is reached ----------------------------------------


    FORLOC:  cpu time      0.0028: real time      0.0028
    FORNL :  cpu time      0.1331: real time      0.1331
    STRESS:  cpu time      0.3951: real time      0.3953
    FORCOR:  cpu time      0.0816: real time      0.0816
    OFIELD:  cpu time      0.0003: real time      0.0003
    FORVDW:  cpu time      0.0019: real time      0.0019

  FORCE on cell =-STRESS in cart. coord.  units (eV):
  Direction    XX          YY          ZZ          XY          YZ          ZX
  --------------------------------------------------------------------------------------
  Alpha Z     1.18414     1.18414     1.18414
  Ewald    -596.14737  1814.27973   808.70300     3.34107   509.51886     8.38478
  Hartree  1351.00595  3348.37751  2406.12463     2.73981   417.63635     6.38596
  E(xc)    -258.07806  -256.44994  -256.83815     0.00261     0.40363     0.00712
  Local   -1142.12557 -5534.79148 -3581.84672    -6.06221  -924.38244   -14.65520
  n-local  -101.05642  -101.41891  -103.84527     0.00259     0.47329    -0.01580
  augment   377.68970   369.58474   368.58713    -0.01045    -1.54627    -0.05168
  Kinetic   367.49105   359.29096   358.16459    -0.00968    -1.43041    -0.05322
  Fock        0.00000     0.00000     0.00000     0.00000     0.00000     0.00000
  vdW        -0.00014    -0.17893    -0.03199    -0.00027    -0.04127    -0.00019
  -------------------------------------------------------------------------------------
  Total      -0.03672    -0.12218     0.20136     0.00346     0.63174     0.00176
  in kB      -0.00595    -0.01981     0.03265     0.00056     0.10243     0.00029
  external pressure =        0.00 kB  Pullay stress =        0.00 kB


 VOLUME and BASIS-vectors are now :
 -----------------------------------------------------------------------------
  energy-cutoff  :      520.00
  volume of cell :     9881.61
      direct lattice vectors                 reciprocal lattice vectors
    21.138852197  0.000000000  0.000000000     0.047306258  0.000000000  0.000000000
     0.000000000 21.138852197  0.000000000     0.000000000  0.047306258  0.000000000
     0.000000000  0.000000000 22.113885220     0.000000000  0.000000000  0.045220457

  length of vectors
    21.138852197 21.138852197 22.113885220     0.047306258  0.047306258  0.045220457


 FORCES acting on ions:
    Electron-Ion                     Ewald-Force                    Non-Local-Force
 -----------------------------------------------------------------------------------------------
   0.152E+01 0.469E+03 0.251E+03   -.148E+01 -.459E+03 -.244E+03   -.462E-01 -.935E+01 -.775E+01
   -.172E+01 0.262E+03 -.310E+03   0.168E+01 -.262E+03 0.302E+03   0.473E-01 -.562E-02 0.816E+01
   -.277E+01 -.420E+03 -.475E+03   0.271E+01 0.414E+03 0.464E+03   0.645E-01 0.645E+01 0.109E+02
   0.299E+01 -.311E+03 0.538E+03   -.290E+01 0.308E+03 -.523E+03   -.833E-01 0.260E+01 -.148E+02
 -----------------------------------------------------------------------------------------------
   0.200E-01 0.315E+00 0.347E+01   0.000E+00 -.568E-13 -.284E-13   -.176E-01 -.313E+00 -.347E+01


 POSITION                                       TOTAL-FORCE (eV/Angst)
 -----------------------------------------------------------------------------------
      8.46039      8.90641     13.11119        -0.000662      0.003808     -0.018435
      8.46878     10.69052     14.51992        -0.001294      0.094047     -0.245356
      8.47353     12.97033     15.28534         0.002473      0.220699      0.264856
      8.46080     12.56080     13.05418        -0.000517     -0.318554     -0.001065
 -----------------------------------------------------------------------------------
    total drift:                                0.002391      0.001418      0.000638


--------------------------------------------------------------------------------------------------------



  FREE ENERGIE OF THE ION-ELECTRON SYSTEM (eV)
  ---------------------------------------------------
  free  energy   TOTEN  =        -6.66606988 eV

  energy  without entropy=       -6.66606988  energy(sigma->0) =       -6.66606988



--------------------------------------------------------------------------------------------------------


    POTLOK:  cpu time      0.2936: real time      0.2936


--------------------------------------------------------------------------------------------------------


     LOOP+:  cpu time     25.6456: real time     25.7320
    4ORBIT:  cpu time      0.0000: real time      0.0000

 total amount of memory used by VASP MPI-rank0   118516. kBytes
=======================================================================

   base      :      30000. kBytes
   nonlr-proj:       1541. kBytes
   fftplans  :      35474. kBytes
   grid      :      48291. kBytes
   one-center:         15. kBytes
   wavefun   :       3195. kBytes

  
  
 General timing and accounting informations for this job:
 ========================================================
  
                  Total CPU time used (sec):       48.809
                            User time (sec):       47.371
                          System time (sec):        1.438
                         Elapsed time (sec):       50.664
  
                   Maximum memory used (kb):      229300.
                   Average memory used (kb):          N/A
  
                          Minor page faults:        28460
                          Major page faults:            0
                 Voluntary context switches:        10037
