 **********************************************************************
                          MRCC program system
 **********************************************************************
 
                              Written by
     Mihaly Kallay, Peter R. Nagy, David Mester, Laszlo Gyevi-Nagy,
        Jozsef Csoka, P. Bernat Szabo, Zoltan Rolik, Gyula Samu,
     Jozsef Csontos, Bence Hegely, Adam Ganyecz, Istvan Ladjanszki,
       Lorant Szegedy, Bence Ladoczki, Klara Petrov, Mate Farkas,
                    Pal D. Mezei, and Reka A. Horvath
 
        Department of Physical Chemistry and Materials Science
            Budapest University of Technology and Economics
                  Budapest P.O.Box 91, H-1521 Hungary
 
                              www.mrcc.hu
 
                      Release date: March 18, 2022

 ************************ 2023-02-18 18:49:51 *************************
 Executing minp...

 Reading input from MINP...
 
 Input file:
 
calc=LNO-CCSD(T)
verbosity=3
mem=220GB
symm=off
unit=angs
scfiguess=small
scfalg=locfit1
lcorthr=normal
bpedo=0.99999
ccmaxit=400
usedisk=0
ccsdalg=dfdirect
ccsdthreads=4
ccsdmkl=thr
ptthreads=4
ECP=MCDHF-ECP-10
basis=bse_ACVTZ
basis_sm=def2-SVP
dfbasis_scf=def2-QZVPP-RI-JK
dfbasis_cor=bse_ACVTZ_mp2fit
core=0
unit=angs
geom=xyz
4
Cu4_3
Cu     0.00184210     1.23649907    -1.55615653
Cu    -0.00102879    -0.00108142     2.69159990
Cu    -0.00250617    -0.00542825     0.43689359
Cu     0.00169286    -1.22998941    -1.57233696

ghost=serialno


 
 
 Checking keyword combinations...
 
 Keywords:
 
 active=none
 agrid=ld0006-ld0590
 agrid_pssp=ld0006-ld0194
 agrid_pssp_sm=ld0006-ld0074
 basis=bse_acvtz
 basis_sm=def2-svp
 basopt=off
 bfbasis=none
 bfgsmem=10
 bfgstol=1.0d-3
 bpcompo=0.985
 bpcompv=0.98
 bpdfo=0.985
 bpocc=0.99999
 bppdo=0.999d0
 bppdv=0.98
 bpedo=0.99999
 bpedv=0.995d0
 calc=ccsd(t)
 ccmaxit=400
 ccprog=ccsd
 ccsdalg=dfdirect
 ccsdmkl=thr
 ccsdrest=off
 ccsdthreads=4
 cctol=5
 charge=0
 cialg=direct
 ciguess=off
 cmpgrp=auto
 comprest=off
 core=corr
 corembed=off
 csapprox=off
 cvs=off
 dboc=off
 delocsomofact=
 dendec=cholesky
 dens=0
 dfalg=lineq
 dfbasis_cab=none
 dfbasis_cor=bse_acvtz_mp2fit
 dfbasis_scf=def2-qzvpp-ri-jk
 dfbasis_scf_sm=def2-qzvpp-ri-jk
 dfintran=drpa
 dft=off
 dhexc=adc(2)
 diag=david
 docc=
 domrad=10.d0
 drpaalg=auto
 dual=off
 dual_df=off
 ecp=mcdhf-ecp-10
 edisp=off
 edisp_embed=off
 embed=off
 etemp=300
 epert=none
 eps=
 espcharge=off
 excrad=1.0
 excrad_fin=0.100000000D-02
 fitting=coulomb
 fmm=off
 fmmord=8
 freq=off
 gamma=1.d0
 gauss=spher
 geom=xyz
 gopt=off
 ghost=serialno
 gtol=7
 grdens=off
 gridbatch_cos=2000
 grtol=10
 guido_ct=off
 hamilton=dc
 iface=none
 intalg=auto
 itol=10
 laptol=1.d-2
 lccoporder=lccfirst
 lcorthr=normal
 lccrest=off
 lmp2dens=on
 lnoepso=1e-5
 lnoepsv=1e-6
 boysalg=jacobi
 localcc=2021
 localcorrsymm=off
 locintrf=direct
 mact=
 maxact=off
 maxdim=100
 maxex=0
 maxmicroit=100
 mcscfiguess=hf
 mem=220gb
 mmprog=
 molden=on
 mpitasks=1
 mulmet=3
 mult=
 nacto=0
 nactv=0
 naf_amp=1.d-2
 naf_cor=1e-2
 naf_scf=off
 nafalg=albe
 naftyp=jpq
 nchol=auto
 ndeps=1e-3
 nstate=1
 nsing=0
 nto=off
 ntrip=0
 occ=
 occri=off
 oniom=off
 oniom_eechg=off
 oniom_pcm=off
 oniom_qcorr=off
 optalg=
 optmaxit=50
 optetol=1e-6
 optex=0
 optgtol=1e-4
 optstol=1e-3
 orblocc=boys
 orbloce=off
 orbloco=boys
 orblocv=pao
 orblocguess=cholesky
 osveps=-1.d0
 ovirt=off
 ovltol=1e-7
 ovosnorb=80.0
 pcm=off
 popul=off
 pressure=100000
 pssp=off
 ptfreq=0.0
 ptthreads=4
 qro=off
 qscf=off
 qmmm=off
 redcost_exc=off
 redcost_tddft=0.985d0
 refdet=none
 rest=0
 rgrid=log3
 rism=off
 rohfcore=standard
 rohftype=semicanonical
 scfalg=locfit1
 scf_conv=difficult
 scfdamp=0.0d0
 scfdamp_mode=off
 scfdamp_end=50
 scfdamp_dampstep=0.d0
 scfdamp_dtol=0.0d0
 scfdamp_maxfact=0.0d0
 scfdamp_minfact=0.0d0
 scfdiis=on
 scfdiis_dtol=0.0d0
 scfdiis_end=50
 scfdiis_start=2
 scfdiis_step=1
 scfdiis_watch=off
 scfdiis_wrange=10
 scfdiis_wlimit=5
 scfdiis_delmax=2
 scfdtol=7
 scfext=10
 scfguessdens=
 scfiguess=small
 scfloc=pm
 scflshift=0.20
 scflshift_end=8
 scflshift_dtol=0.0
 scflshift_gaptol=0.20
 scfmaxit=50
 scftype=
 scftol=6
 scspe=1.d0
 scsph=1.d0
 scsps=1.2d0
 scsps_t=1.2d0
 scspt=0.33333333333333
 scspt_t=0.33333333333333
 scspv=1.d0
 spairtol=-1.d0
 sqmprog=
 subminp=top
 symm=0
 talg=lapl
 temp=298.15
 test=off
 theodore=off
 tlmo=0.999
 tpao=0.94
 tprint=off
 uncontract=off
 unit=angs
 usedisk=0
 verbosity=3
 wpairtol=1.d-5
 
 Calculating integrals for small-basis SCF...

 ************************ 2023-02-18 18:49:51 *************************
 Executing integ...

 Allocation of 220.0 Gbytes of memory...
 
 
 Number of atoms:                  4
 Charge:                           0
 Number of electrons:             76
 Number of core electrons:        32
 Spin multiplicity:                1
 
                 Cartesian coordinates [bohr]      Atomic mass [AMU]  Z
   1  Cu    0.00348106    2.33664460   -2.94070965    62.929599      29
   2  Cu   -0.00194413   -0.00204359    5.08638665    62.929599      29
   3  Cu   -0.00473597   -0.01025791    0.82560923    62.929599      29
   4  Cu    0.00319904   -2.32434312   -2.97128623    62.929599      29
 
 This molecule is an asymmetric top.
 
 Point group: C1  
 Computational point group: C1  
 
 Cartesian coordinates in standard orientation [bohr]
   1  Cu   -2.93958167   -2.33806582    0.00107665
   2  Cu    5.08638507    0.00450198    0.00193086
   3  Cu    0.82560754    0.01065725   -0.00410630
   4  Cu   -2.97241094    2.32290659    0.00109878
 
 Nuclear repulsion energy [au]:        410.938718091449
 
 
 Basis set information:
 
 Maximum angular momentum: i
 Maximum number of contracted Gaussians:   16
 Maximum number of primitive Gaussians:    19
 Spherical harmonic GTOs are used.
 
 
 Conventional basis set:
 
   1  Cu def2-svp [ 14s 9p 5d 1f | 5s 3p 2d 1f ]
   2  Cu def2-svp [ 14s 9p 5d 1f | 5s 3p 2d 1f ]
   3  Cu def2-svp [ 14s 9p 5d 1f | 5s 3p 2d 1f ]
   4  Cu def2-svp [ 14s 9p 5d 1f | 5s 3p 2d 1f ]
 
 Basis functions:
            1             2             3             4             5             6             7             8             9            10
    0    1Cu1s         1Cu2s         1Cu3s         1Cu4s         1Cu5s         1Cu1pz        1Cu1py        1Cu1px        1Cu2pz        1Cu2py    
    1    1Cu2px        1Cu3pz        1Cu3py        1Cu3px        1Cu1d-2       1Cu1d-1       1Cu1d0        1Cu1d+1       1Cu1d+2       1Cu2d-2   
    2    1Cu2d-1       1Cu2d0        1Cu2d+1       1Cu2d+2       1Cu1f-3       1Cu1f-2       1Cu1f-1       1Cu1f0        1Cu1f+1       1Cu1f+2   
    3    1Cu1f+3       2Cu1s         2Cu2s         2Cu3s         2Cu4s         2Cu5s         2Cu1pz        2Cu1py        2Cu1px        2Cu2pz    
    4    2Cu2py        2Cu2px        2Cu3pz        2Cu3py        2Cu3px        2Cu1d-2       2Cu1d-1       2Cu1d0        2Cu1d+1       2Cu1d+2   
    5    2Cu2d-2       2Cu2d-1       2Cu2d0        2Cu2d+1       2Cu2d+2       2Cu1f-3       2Cu1f-2       2Cu1f-1       2Cu1f0        2Cu1f+1   
    6    2Cu1f+2       2Cu1f+3       3Cu1s         3Cu2s         3Cu3s         3Cu4s         3Cu5s         3Cu1pz        3Cu1py        3Cu1px    
    7    3Cu2pz        3Cu2py        3Cu2px        3Cu3pz        3Cu3py        3Cu3px        3Cu1d-2       3Cu1d-1       3Cu1d0        3Cu1d+1   
    8    3Cu1d+2       3Cu2d-2       3Cu2d-1       3Cu2d0        3Cu2d+1       3Cu2d+2       3Cu1f-3       3Cu1f-2       3Cu1f-1       3Cu1f0    
    9    3Cu1f+1       3Cu1f+2       3Cu1f+3       4Cu1s         4Cu2s         4Cu3s         4Cu4s         4Cu5s         4Cu1pz        4Cu1py    
   10    4Cu1px        4Cu2pz        4Cu2py        4Cu2px        4Cu3pz        4Cu3py        4Cu3px        4Cu1d-2       4Cu1d-1       4Cu1d0    
   11    4Cu1d+1       4Cu1d+2       4Cu2d-2       4Cu2d-1       4Cu2d0        4Cu2d+1       4Cu2d+2       4Cu1f-3       4Cu1f-2       4Cu1f-1   
   12    4Cu1f0        4Cu1f+1       4Cu1f+2       4Cu1f+3   
 
 Maximum number of basis functions per shell:   10
 Total number of basis functions:    124
 
 
 Fitting basis set for the SCF calculation:
 
   1  Cu def2-qzvpp-ri-jk [ 19s 14p 12d 10f 7g 3h 1i | 16s 13p 11d 9f 5g 3h 1i ]
   2  Cu def2-qzvpp-ri-jk [ 19s 14p 12d 10f 7g 3h 1i | 16s 13p 11d 9f 5g 3h 1i ]
   3  Cu def2-qzvpp-ri-jk [ 19s 14p 12d 10f 7g 3h 1i | 16s 13p 11d 9f 5g 3h 1i ]
   4  Cu def2-qzvpp-ri-jk [ 19s 14p 12d 10f 7g 3h 1i | 16s 13p 11d 9f 5g 3h 1i ]
 
 Basis functions:
            1             2             3             4             5             6             7             8             9            10
    0    1Cu1s         1Cu2s         1Cu3s         1Cu4s         1Cu5s         1Cu6s         1Cu7s         1Cu8s         1Cu9s         1Cu10s    
    1    1Cu11s        1Cu12s        1Cu13s        1Cu14s        1Cu15s        1Cu16s        1Cu1pz        1Cu1py        1Cu1px        1Cu2pz    
    2    1Cu2py        1Cu2px        1Cu3pz        1Cu3py        1Cu3px        1Cu4pz        1Cu4py        1Cu4px        1Cu5pz        1Cu5py    
    3    1Cu5px        1Cu6pz        1Cu6py        1Cu6px        1Cu7pz        1Cu7py        1Cu7px        1Cu8pz        1Cu8py        1Cu8px    
    4    1Cu9pz        1Cu9py        1Cu9px        1Cu10pz       1Cu10py       1Cu10px       1Cu11pz       1Cu11py       1Cu11px       1Cu12pz   
    5    1Cu12py       1Cu12px       1Cu13pz       1Cu13py       1Cu13px       1Cu1d-2       1Cu1d-1       1Cu1d0        1Cu1d+1       1Cu1d+2   
    6    1Cu2d-2       1Cu2d-1       1Cu2d0        1Cu2d+1       1Cu2d+2       1Cu3d-2       1Cu3d-1       1Cu3d0        1Cu3d+1       1Cu3d+2   
    7    1Cu4d-2       1Cu4d-1       1Cu4d0        1Cu4d+1       1Cu4d+2       1Cu5d-2       1Cu5d-1       1Cu5d0        1Cu5d+1       1Cu5d+2   
    8    1Cu6d-2       1Cu6d-1       1Cu6d0        1Cu6d+1       1Cu6d+2       1Cu7d-2       1Cu7d-1       1Cu7d0        1Cu7d+1       1Cu7d+2   
    9    1Cu8d-2       1Cu8d-1       1Cu8d0        1Cu8d+1       1Cu8d+2       1Cu9d-2       1Cu9d-1       1Cu9d0        1Cu9d+1       1Cu9d+2   
   10    1Cu10d-2      1Cu10d-1      1Cu10d0       1Cu10d+1      1Cu10d+2      1Cu11d-2      1Cu11d-1      1Cu11d0       1Cu11d+1      1Cu11d+2  
   11    1Cu1f-3       1Cu1f-2       1Cu1f-1       1Cu1f0        1Cu1f+1       1Cu1f+2       1Cu1f+3       1Cu2f-3       1Cu2f-2       1Cu2f-1   
   12    1Cu2f0        1Cu2f+1       1Cu2f+2       1Cu2f+3       1Cu3f-3       1Cu3f-2       1Cu3f-1       1Cu3f0        1Cu3f+1       1Cu3f+2   
   13    1Cu3f+3       1Cu4f-3       1Cu4f-2       1Cu4f-1       1Cu4f0        1Cu4f+1       1Cu4f+2       1Cu4f+3       1Cu5f-3       1Cu5f-2   
   14    1Cu5f-1       1Cu5f0        1Cu5f+1       1Cu5f+2       1Cu5f+3       1Cu6f-3       1Cu6f-2       1Cu6f-1       1Cu6f0        1Cu6f+1   
   15    1Cu6f+2       1Cu6f+3       1Cu7f-3       1Cu7f-2       1Cu7f-1       1Cu7f0        1Cu7f+1       1Cu7f+2       1Cu7f+3       1Cu8f-3   
   16    1Cu8f-2       1Cu8f-1       1Cu8f0        1Cu8f+1       1Cu8f+2       1Cu8f+3       1Cu9f-3       1Cu9f-2       1Cu9f-1       1Cu9f0    
   17    1Cu9f+1       1Cu9f+2       1Cu9f+3       1Cu1g-4       1Cu1g-3       1Cu1g-2       1Cu1g-1       1Cu1g0        1Cu1g+1       1Cu1g+2   
   18    1Cu1g+3       1Cu1g+4       1Cu2g-4       1Cu2g-3       1Cu2g-2       1Cu2g-1       1Cu2g0        1Cu2g+1       1Cu2g+2       1Cu2g+3   
   19    1Cu2g+4       1Cu3g-4       1Cu3g-3       1Cu3g-2       1Cu3g-1       1Cu3g0        1Cu3g+1       1Cu3g+2       1Cu3g+3       1Cu3g+4   
   20    1Cu4g-4       1Cu4g-3       1Cu4g-2       1Cu4g-1       1Cu4g0        1Cu4g+1       1Cu4g+2       1Cu4g+3       1Cu4g+4       1Cu5g-4   
   21    1Cu5g-3       1Cu5g-2       1Cu5g-1       1Cu5g0        1Cu5g+1       1Cu5g+2       1Cu5g+3       1Cu5g+4       1Cu1h-5       1Cu1h-4   
   22    1Cu1h-3       1Cu1h-2       1Cu1h-1       1Cu1h0        1Cu1h+1       1Cu1h+2       1Cu1h+3       1Cu1h+4       1Cu1h+5       1Cu2h-5   
   23    1Cu2h-4       1Cu2h-3       1Cu2h-2       1Cu2h-1       1Cu2h0        1Cu2h+1       1Cu2h+2       1Cu2h+3       1Cu2h+4       1Cu2h+5   
   24    1Cu3h-5       1Cu3h-4       1Cu3h-3       1Cu3h-2       1Cu3h-1       1Cu3h0        1Cu3h+1       1Cu3h+2       1Cu3h+3       1Cu3h+4   
   25    1Cu3h+5       1Cu1i-6       1Cu1i-5       1Cu1i-4       1Cu1i-3       1Cu1i-2       1Cu1i-1       1Cu1i0        1Cu1i+1       1Cu1i+2   
   26    1Cu1i+3       1Cu1i+4       1Cu1i+5       1Cu1i+6       2Cu1s         2Cu2s         2Cu3s         2Cu4s         2Cu5s         2Cu6s     
   27    2Cu7s         2Cu8s         2Cu9s         2Cu10s        2Cu11s        2Cu12s        2Cu13s        2Cu14s        2Cu15s        2Cu16s    
   28    2Cu1pz        2Cu1py        2Cu1px        2Cu2pz        2Cu2py        2Cu2px        2Cu3pz        2Cu3py        2Cu3px        2Cu4pz    
   29    2Cu4py        2Cu4px        2Cu5pz        2Cu5py        2Cu5px        2Cu6pz        2Cu6py        2Cu6px        2Cu7pz        2Cu7py    
   30    2Cu7px        2Cu8pz        2Cu8py        2Cu8px        2Cu9pz        2Cu9py        2Cu9px        2Cu10pz       2Cu10py       2Cu10px   
   31    2Cu11pz       2Cu11py       2Cu11px       2Cu12pz       2Cu12py       2Cu12px       2Cu13pz       2Cu13py       2Cu13px       2Cu1d-2   
   32    2Cu1d-1       2Cu1d0        2Cu1d+1       2Cu1d+2       2Cu2d-2       2Cu2d-1       2Cu2d0        2Cu2d+1       2Cu2d+2       2Cu3d-2   
   33    2Cu3d-1       2Cu3d0        2Cu3d+1       2Cu3d+2       2Cu4d-2       2Cu4d-1       2Cu4d0        2Cu4d+1       2Cu4d+2       2Cu5d-2   
   34    2Cu5d-1       2Cu5d0        2Cu5d+1       2Cu5d+2       2Cu6d-2       2Cu6d-1       2Cu6d0        2Cu6d+1       2Cu6d+2       2Cu7d-2   
   35    2Cu7d-1       2Cu7d0        2Cu7d+1       2Cu7d+2       2Cu8d-2       2Cu8d-1       2Cu8d0        2Cu8d+1       2Cu8d+2       2Cu9d-2   
   36    2Cu9d-1       2Cu9d0        2Cu9d+1       2Cu9d+2       2Cu10d-2      2Cu10d-1      2Cu10d0       2Cu10d+1      2Cu10d+2      2Cu11d-2  
   37    2Cu11d-1      2Cu11d0       2Cu11d+1      2Cu11d+2      2Cu1f-3       2Cu1f-2       2Cu1f-1       2Cu1f0        2Cu1f+1       2Cu1f+2   
   38    2Cu1f+3       2Cu2f-3       2Cu2f-2       2Cu2f-1       2Cu2f0        2Cu2f+1       2Cu2f+2       2Cu2f+3       2Cu3f-3       2Cu3f-2   
   39    2Cu3f-1       2Cu3f0        2Cu3f+1       2Cu3f+2       2Cu3f+3       2Cu4f-3       2Cu4f-2       2Cu4f-1       2Cu4f0        2Cu4f+1   
   40    2Cu4f+2       2Cu4f+3       2Cu5f-3       2Cu5f-2       2Cu5f-1       2Cu5f0        2Cu5f+1       2Cu5f+2       2Cu5f+3       2Cu6f-3   
   41    2Cu6f-2       2Cu6f-1       2Cu6f0        2Cu6f+1       2Cu6f+2       2Cu6f+3       2Cu7f-3       2Cu7f-2       2Cu7f-1       2Cu7f0    
   42    2Cu7f+1       2Cu7f+2       2Cu7f+3       2Cu8f-3       2Cu8f-2       2Cu8f-1       2Cu8f0        2Cu8f+1       2Cu8f+2       2Cu8f+3   
   43    2Cu9f-3       2Cu9f-2       2Cu9f-1       2Cu9f0        2Cu9f+1       2Cu9f+2       2Cu9f+3       2Cu1g-4       2Cu1g-3       2Cu1g-2   
   44    2Cu1g-1       2Cu1g0        2Cu1g+1       2Cu1g+2       2Cu1g+3       2Cu1g+4       2Cu2g-4       2Cu2g-3       2Cu2g-2       2Cu2g-1   
   45    2Cu2g0        2Cu2g+1       2Cu2g+2       2Cu2g+3       2Cu2g+4       2Cu3g-4       2Cu3g-3       2Cu3g-2       2Cu3g-1       2Cu3g0    
   46    2Cu3g+1       2Cu3g+2       2Cu3g+3       2Cu3g+4       2Cu4g-4       2Cu4g-3       2Cu4g-2       2Cu4g-1       2Cu4g0        2Cu4g+1   
   47    2Cu4g+2       2Cu4g+3       2Cu4g+4       2Cu5g-4       2Cu5g-3       2Cu5g-2       2Cu5g-1       2Cu5g0        2Cu5g+1       2Cu5g+2   
   48    2Cu5g+3       2Cu5g+4       2Cu1h-5       2Cu1h-4       2Cu1h-3       2Cu1h-2       2Cu1h-1       2Cu1h0        2Cu1h+1       2Cu1h+2   
   49    2Cu1h+3       2Cu1h+4       2Cu1h+5       2Cu2h-5       2Cu2h-4       2Cu2h-3       2Cu2h-2       2Cu2h-1       2Cu2h0        2Cu2h+1   
   50    2Cu2h+2       2Cu2h+3       2Cu2h+4       2Cu2h+5       2Cu3h-5       2Cu3h-4       2Cu3h-3       2Cu3h-2       2Cu3h-1       2Cu3h0    
   51    2Cu3h+1       2Cu3h+2       2Cu3h+3       2Cu3h+4       2Cu3h+5       2Cu1i-6       2Cu1i-5       2Cu1i-4       2Cu1i-3       2Cu1i-2   
   52    2Cu1i-1       2Cu1i0        2Cu1i+1       2Cu1i+2       2Cu1i+3       2Cu1i+4       2Cu1i+5       2Cu1i+6       3Cu1s         3Cu2s     
   53    3Cu3s         3Cu4s         3Cu5s         3Cu6s         3Cu7s         3Cu8s         3Cu9s         3Cu10s        3Cu11s        3Cu12s    
   54    3Cu13s        3Cu14s        3Cu15s        3Cu16s        3Cu1pz        3Cu1py        3Cu1px        3Cu2pz        3Cu2py        3Cu2px    
   55    3Cu3pz        3Cu3py        3Cu3px        3Cu4pz        3Cu4py        3Cu4px        3Cu5pz        3Cu5py        3Cu5px        3Cu6pz    
   56    3Cu6py        3Cu6px        3Cu7pz        3Cu7py        3Cu7px        3Cu8pz        3Cu8py        3Cu8px        3Cu9pz        3Cu9py    
   57    3Cu9px        3Cu10pz       3Cu10py       3Cu10px       3Cu11pz       3Cu11py       3Cu11px       3Cu12pz       3Cu12py       3Cu12px   
   58    3Cu13pz       3Cu13py       3Cu13px       3Cu1d-2       3Cu1d-1       3Cu1d0        3Cu1d+1       3Cu1d+2       3Cu2d-2       3Cu2d-1   
   59    3Cu2d0        3Cu2d+1       3Cu2d+2       3Cu3d-2       3Cu3d-1       3Cu3d0        3Cu3d+1       3Cu3d+2       3Cu4d-2       3Cu4d-1   
   60    3Cu4d0        3Cu4d+1       3Cu4d+2       3Cu5d-2       3Cu5d-1       3Cu5d0        3Cu5d+1       3Cu5d+2       3Cu6d-2       3Cu6d-1   
   61    3Cu6d0        3Cu6d+1       3Cu6d+2       3Cu7d-2       3Cu7d-1       3Cu7d0        3Cu7d+1       3Cu7d+2       3Cu8d-2       3Cu8d-1   
   62    3Cu8d0        3Cu8d+1       3Cu8d+2       3Cu9d-2       3Cu9d-1       3Cu9d0        3Cu9d+1       3Cu9d+2       3Cu10d-2      3Cu10d-1  
   63    3Cu10d0       3Cu10d+1      3Cu10d+2      3Cu11d-2      3Cu11d-1      3Cu11d0       3Cu11d+1      3Cu11d+2      3Cu1f-3       3Cu1f-2   
   64    3Cu1f-1       3Cu1f0        3Cu1f+1       3Cu1f+2       3Cu1f+3       3Cu2f-3       3Cu2f-2       3Cu2f-1       3Cu2f0        3Cu2f+1   
   65    3Cu2f+2       3Cu2f+3       3Cu3f-3       3Cu3f-2       3Cu3f-1       3Cu3f0        3Cu3f+1       3Cu3f+2       3Cu3f+3       3Cu4f-3   
   66    3Cu4f-2       3Cu4f-1       3Cu4f0        3Cu4f+1       3Cu4f+2       3Cu4f+3       3Cu5f-3       3Cu5f-2       3Cu5f-1       3Cu5f0    
   67    3Cu5f+1       3Cu5f+2       3Cu5f+3       3Cu6f-3       3Cu6f-2       3Cu6f-1       3Cu6f0        3Cu6f+1       3Cu6f+2       3Cu6f+3   
   68    3Cu7f-3       3Cu7f-2       3Cu7f-1       3Cu7f0        3Cu7f+1       3Cu7f+2       3Cu7f+3       3Cu8f-3       3Cu8f-2       3Cu8f-1   
   69    3Cu8f0        3Cu8f+1       3Cu8f+2       3Cu8f+3       3Cu9f-3       3Cu9f-2       3Cu9f-1       3Cu9f0        3Cu9f+1       3Cu9f+2   
   70    3Cu9f+3       3Cu1g-4       3Cu1g-3       3Cu1g-2       3Cu1g-1       3Cu1g0        3Cu1g+1       3Cu1g+2       3Cu1g+3       3Cu1g+4   
   71    3Cu2g-4       3Cu2g-3       3Cu2g-2       3Cu2g-1       3Cu2g0        3Cu2g+1       3Cu2g+2       3Cu2g+3       3Cu2g+4       3Cu3g-4   
   72    3Cu3g-3       3Cu3g-2       3Cu3g-1       3Cu3g0        3Cu3g+1       3Cu3g+2       3Cu3g+3       3Cu3g+4       3Cu4g-4       3Cu4g-3   
   73    3Cu4g-2       3Cu4g-1       3Cu4g0        3Cu4g+1       3Cu4g+2       3Cu4g+3       3Cu4g+4       3Cu5g-4       3Cu5g-3       3Cu5g-2   
   74    3Cu5g-1       3Cu5g0        3Cu5g+1       3Cu5g+2       3Cu5g+3       3Cu5g+4       3Cu1h-5       3Cu1h-4       3Cu1h-3       3Cu1h-2   
   75    3Cu1h-1       3Cu1h0        3Cu1h+1       3Cu1h+2       3Cu1h+3       3Cu1h+4       3Cu1h+5       3Cu2h-5       3Cu2h-4       3Cu2h-3   
   76    3Cu2h-2       3Cu2h-1       3Cu2h0        3Cu2h+1       3Cu2h+2       3Cu2h+3       3Cu2h+4       3Cu2h+5       3Cu3h-5       3Cu3h-4   
   77    3Cu3h-3       3Cu3h-2       3Cu3h-1       3Cu3h0        3Cu3h+1       3Cu3h+2       3Cu3h+3       3Cu3h+4       3Cu3h+5       3Cu1i-6   
   78    3Cu1i-5       3Cu1i-4       3Cu1i-3       3Cu1i-2       3Cu1i-1       3Cu1i0        3Cu1i+1       3Cu1i+2       3Cu1i+3       3Cu1i+4   
   79    3Cu1i+5       3Cu1i+6       4Cu1s         4Cu2s         4Cu3s         4Cu4s         4Cu5s         4Cu6s         4Cu7s         4Cu8s     
   80    4Cu9s         4Cu10s        4Cu11s        4Cu12s        4Cu13s        4Cu14s        4Cu15s        4Cu16s        4Cu1pz        4Cu1py    
   81    4Cu1px        4Cu2pz        4Cu2py        4Cu2px        4Cu3pz        4Cu3py        4Cu3px        4Cu4pz        4Cu4py        4Cu4px    
   82    4Cu5pz        4Cu5py        4Cu5px        4Cu6pz        4Cu6py        4Cu6px        4Cu7pz        4Cu7py        4Cu7px        4Cu8pz    
   83    4Cu8py        4Cu8px        4Cu9pz        4Cu9py        4Cu9px        4Cu10pz       4Cu10py       4Cu10px       4Cu11pz       4Cu11py   
   84    4Cu11px       4Cu12pz       4Cu12py       4Cu12px       4Cu13pz       4Cu13py       4Cu13px       4Cu1d-2       4Cu1d-1       4Cu1d0    
   85    4Cu1d+1       4Cu1d+2       4Cu2d-2       4Cu2d-1       4Cu2d0        4Cu2d+1       4Cu2d+2       4Cu3d-2       4Cu3d-1       4Cu3d0    
   86    4Cu3d+1       4Cu3d+2       4Cu4d-2       4Cu4d-1       4Cu4d0        4Cu4d+1       4Cu4d+2       4Cu5d-2       4Cu5d-1       4Cu5d0    
   87    4Cu5d+1       4Cu5d+2       4Cu6d-2       4Cu6d-1       4Cu6d0        4Cu6d+1       4Cu6d+2       4Cu7d-2       4Cu7d-1       4Cu7d0    
   88    4Cu7d+1       4Cu7d+2       4Cu8d-2       4Cu8d-1       4Cu8d0        4Cu8d+1       4Cu8d+2       4Cu9d-2       4Cu9d-1       4Cu9d0    
   89    4Cu9d+1       4Cu9d+2       4Cu10d-2      4Cu10d-1      4Cu10d0       4Cu10d+1      4Cu10d+2      4Cu11d-2      4Cu11d-1      4Cu11d0   
   90    4Cu11d+1      4Cu11d+2      4Cu1f-3       4Cu1f-2       4Cu1f-1       4Cu1f0        4Cu1f+1       4Cu1f+2       4Cu1f+3       4Cu2f-3   
   91    4Cu2f-2       4Cu2f-1       4Cu2f0        4Cu2f+1       4Cu2f+2       4Cu2f+3       4Cu3f-3       4Cu3f-2       4Cu3f-1       4Cu3f0    
   92    4Cu3f+1       4Cu3f+2       4Cu3f+3       4Cu4f-3       4Cu4f-2       4Cu4f-1       4Cu4f0        4Cu4f+1       4Cu4f+2       4Cu4f+3   
   93    4Cu5f-3       4Cu5f-2       4Cu5f-1       4Cu5f0        4Cu5f+1       4Cu5f+2       4Cu5f+3       4Cu6f-3       4Cu6f-2       4Cu6f-1   
   94    4Cu6f0        4Cu6f+1       4Cu6f+2       4Cu6f+3       4Cu7f-3       4Cu7f-2       4Cu7f-1       4Cu7f0        4Cu7f+1       4Cu7f+2   
   95    4Cu7f+3       4Cu8f-3       4Cu8f-2       4Cu8f-1       4Cu8f0        4Cu8f+1       4Cu8f+2       4Cu8f+3       4Cu9f-3       4Cu9f-2   
   96    4Cu9f-1       4Cu9f0        4Cu9f+1       4Cu9f+2       4Cu9f+3       4Cu1g-4       4Cu1g-3       4Cu1g-2       4Cu1g-1       4Cu1g0    
   97    4Cu1g+1       4Cu1g+2       4Cu1g+3       4Cu1g+4       4Cu2g-4       4Cu2g-3       4Cu2g-2       4Cu2g-1       4Cu2g0        4Cu2g+1   
   98    4Cu2g+2       4Cu2g+3       4Cu2g+4       4Cu3g-4       4Cu3g-3       4Cu3g-2       4Cu3g-1       4Cu3g0        4Cu3g+1       4Cu3g+2   
   99    4Cu3g+3       4Cu3g+4       4Cu4g-4       4Cu4g-3       4Cu4g-2       4Cu4g-1       4Cu4g0        4Cu4g+1       4Cu4g+2       4Cu4g+3   
  100    4Cu4g+4       4Cu5g-4       4Cu5g-3       4Cu5g-2       4Cu5g-1       4Cu5g0        4Cu5g+1       4Cu5g+2       4Cu5g+3       4Cu5g+4   
  101    4Cu1h-5       4Cu1h-4       4Cu1h-3       4Cu1h-2       4Cu1h-1       4Cu1h0        4Cu1h+1       4Cu1h+2       4Cu1h+3       4Cu1h+4   
  102    4Cu1h+5       4Cu2h-5       4Cu2h-4       4Cu2h-3       4Cu2h-2       4Cu2h-1       4Cu2h0        4Cu2h+1       4Cu2h+2       4Cu2h+3   
  103    4Cu2h+4       4Cu2h+5       4Cu3h-5       4Cu3h-4       4Cu3h-3       4Cu3h-2       4Cu3h-1       4Cu3h0        4Cu3h+1       4Cu3h+2   
  104    4Cu3h+3       4Cu3h+4       4Cu3h+5       4Cu1i-6       4Cu1i-5       4Cu1i-4       4Cu1i-3       4Cu1i-2       4Cu1i-1       4Cu1i0    
  105    4Cu1i+1       4Cu1i+2       4Cu1i+3       4Cu1i+4       4Cu1i+5       4Cu1i+6   
 
 Maximum number of basis functions per shell:   63
 Total number of basis functions:   1056
 
 
 Effective core potentials:
 
   1  Cu mcdhf-ecp-10        
   2  Cu mcdhf-ecp-10        
   3  Cu mcdhf-ecp-10        
   4  Cu mcdhf-ecp-10        
 
 Initializing the SAD routines for the initial guess...
 Checking the files required for the initial guess...
 Density files have not been found for the initial guess.
 Generating SCFDENSITIES.Cu.def2-svp.0
 CPU time [min]:     0.117                   Wall time [min]:     0.155
 
 Character table for point group C1:
 
          E  
    A     1
 
 Number of basis functions per irrep:
    A     124
 
 
 Calculation of overlap integrals...
 CPU time [min]:     0.118                   Wall time [min]:     0.155
 
 Calculation of the square root of the overlap matrix...
 Minimum eigenvalue of the overlap matrix: 0.253628E-01
 CPU time [min]:     0.145                   Wall time [min]:     0.156
 
 Calculation of kinetic energy integrals...
 CPU time [min]:     0.146                   Wall time [min]:     0.156
 Calculation of dipole moment integrals...
 CPU time [min]:     0.147                   Wall time [min]:     0.157
 Calculation of nuclear attraction integrals...
 CPU time [min]:     0.150                   Wall time [min]:     0.157
 Calculation of core potential integrals...
 CPU time [min]:     0.283                   Wall time [min]:     0.180
 
 Calculation of prescreening integrals...
 CPU time [min]:     0.587                   Wall time [min]:     0.189
 
 Calculation of two-center Coulomb integrals...
   1% done.
  13% done.
  24% done.
  37% done.
  50% done.
  64% done.
  84% done.
  98% done.
 100% done.
 CPU time [min]:     0.607                   Wall time [min]:     0.189
 
 Cholesky decomposition of the two-center matrix...
 Reciprocal of the condition number:  0.711991E-05
 CPU time [min]:     0.649                   Wall time [min]:     0.190
 
 
 Running small-basis SCF...

 ************************ 2023-02-18 18:50:03 *************************
 Executing scf...

 @scfsetup: integrals calculated directly
            mrcc/integ direct run
 @scfsetup: calculating on full matrices
            not using symmetry adapted basis
 @scfsetup: diis switched on
 @scfsetup: number of steps to extrapolate from  10
 @scfsetup: tolerance in energy deviation    0.100000E-05
            tolerance in density deviation    0.100000E-06
 @scfsetup: maximum number of iterations:  50
 @scfsetup: restricted closed shell hf calc
 @scfsetup: starting scf from superposition of atomic densities
 @scfsetup: occupation set:
            from initial orbitals
 @scfsetup: Parameter-set for SCF acceleration: difficult
 @scfsetup: diis runs from iteration:   2
 @scfsetup: diis runs to iteration:  50
 @scfsetup: diis runs in every iteration
 @scfsetup: diiswatch is disabled                   
 @scfsetup: diis dtol criteria to switch on:      0.0000E+00
           (or the iteration number below is reached)
 @scfsetup: damping is turned off.
 @scfsetup: dynamic level shifting
            tolarance in HOMO-LUMO gap:  0.200
            tolarance in density deviation:     0.0000E+00
            iteration step criteria to turn level shifting off: 8
 Allocation of 220.0 Gbytes of memory...
 ======================================================================
 ITERATION STEP   1
 CPU time [min]:     0.018                   Wall time [min]:     0.004
 

 SCF control                  : initial
 Damping factor/level shift   : 0.000/0.200
 DIIS [start/end/frequency]   :   2 / 50 /  1

 Constructing Fock-matrix...
 
 Pipek-Mezey localization...
 Step  Convergence
   1  23.034768711441
   2   6.638761109363
   3   1.210003025567
   4   0.026853851386
   5   0.000042686554
   6   0.000000004586
 CPU time [min]:     0.040                   Wall time [min]:     0.005
 
 Constructing local fitting domains...
 Maximum number of atoms in fitting domains:    4
 Average number of atoms in fitting domains:    4.0
 
 First step of Coulomb + first step of exchange...
 Exchange contribution is evaluated for MOs 1 to 38.
   1% done.
  13% done.
  25% done.
  38% done.
  56% done.
  75% done.
  89% done.
 100% done.
 CPU time [min]:     0.210                   Wall time [min]:     0.009
 
 Fitting and assembly step of exchange...
 CPU time [min]:     0.219                   Wall time [min]:     0.010
 
 Second step of Coulomb...
   1% done.
  13% done.
  25% done.
  38% done.
  56% done.
  75% done.
  89% done.
 100% done.
 CPU time [min]:     0.270                   Wall time [min]:     0.012
 
 Gradient norm:      3.3826E+00
 RMS of [F,P]:                                         0.07171240629164
 RMS of difference density:                            0.44307431918837
 Gap [au]:  0.01425771
 ALPHA OCC:  38
 BETA  OCC:  38
 
 ***HARTREE-FOCK ENERGY IN STEP   1 IS       -768.7387682707480963 [AU]
 ======================================================================
 ITERATION STEP   2
 CPU time [min]:     0.281                   Wall time [min]:     0.012
 

 SCF control                  : diis
 Damping factor/level shift   : 0.000/0.200
 DIIS [start/end/frequency]   :   2 / 50 /  1

 Constructing Fock-matrix...
 Inverse square root: The matrix is not positive definite!
 
 Pipek-Mezey localization...
 Step  Convergence
   1  14.453416237908
   2   5.135327782736
   3   2.372539275303
   4   0.715862790506
   5   0.012383127314
   6   0.001000153275
   7   0.000190038913
   8   0.000077292416
   9   0.000037096039
  10   0.000022142538
  11   0.000014977655
  12   0.000020030832
  13   0.000021435774
  14   0.000022277239
  15   0.000024199842
  16   0.000026911137
  17   0.000029229337
  18   0.000032105445
  19   0.000034547302
  20   0.000038880138
  21   0.000034816224
  22   0.000039797316
  23   0.000051980996
  24   0.000055764725
  25   0.000048512279
  26   0.000055225321
  27   0.000074235921
  28   0.000066569351
  29   0.000085073293
  30   0.000099925400
  31   0.000111515522
  32   0.000106921811
  33   0.000106732713
  34   0.000165047443
  35   0.000137460389
  36   0.000214615479
  37   0.000195827660
  38   0.000351738339
  39   0.000482891794
  40   0.000594456796
  41   0.000912959623
  42   0.001360928290
  43   0.001631960219
  44   0.003444798296
  45   0.005542848995
  46   0.011860611446
  47   0.018129675544
  48   0.015257598194
  49   0.009873439770
  50   0.004170630536
  51   0.001953292818
  52   0.000712835046
  53   0.000411657988
  54   0.000191356300
  55   0.000084178956
  56   0.000040990475
  57   0.000022073865
  58   0.000009969037
  59   0.000004659402
  60   0.000002321053
  61   0.000001353276
  62   0.000000543897
 CPU time [min]:     0.328                   Wall time [min]:     0.013
 
 Constructing local fitting domains...
 Maximum number of atoms in fitting domains:    4
 Average number of atoms in fitting domains:    4.0
 
 First step of Coulomb + first step of exchange...
 Exchange contribution is evaluated for MOs 1 to 38.
   1% done.
  13% done.
  25% done.
  38% done.
  56% done.
  75% done.
  89% done.
 100% done.
 CPU time [min]:     0.448                   Wall time [min]:     0.017
 
 Fitting and assembly step of exchange...
 CPU time [min]:     0.454                   Wall time [min]:     0.017
 
 Second step of Coulomb...
   1% done.
  13% done.
  25% done.
  38% done.
  56% done.
  75% done.
  89% done.
 100% done.
 CPU time [min]:     0.499                   Wall time [min]:     0.018
 
 Gradient norm:      5.0953E+00
 DIIS is running in this iteration step.
 RMS of [F,P]:                                         0.15823372237785
 RMS of difference density:                            0.43946550699649
 Gap [au]:  0.00715272
 ALPHA OCC:  38
 BETA  OCC:  38
 
 ***HARTREE-FOCK ENERGY IN STEP   2 IS       -727.8627803454469358 [AU]
 
 Step comparison  Energy Drift [au]  DIIS error drift  Gradient drift
        1           -4.0876E+01        -8.6521E-02      -1.7127E+00
        2            7.2786E+02         1.0000E-07      -1.7127E+00
 Warning! The energy goes uphill (with respect to previous step).
 Warning! The gradient goes uphill (with respect to previous step).
 Warning! The gradient goes uphill (with respect to step   1 ).
 ======================================================================
 ITERATION STEP   3
 CPU time [min]:     0.509                   Wall time [min]:     0.018
 

 SCF control                  : diis
 Damping factor/level shift   : 0.000/0.200
 DIIS [start/end/frequency]   :   2 / 50 /  1

 Constructing Fock-matrix...
 Inverse square root: The matrix is not positive definite!
 
 Pipek-Mezey localization...
 Step  Convergence
   1  14.630426662484
   2  10.007881100713
   3   4.784246072639
   4   0.507404326367
   5   0.003585344032
   6   0.000062540162
   7   0.000003927793
   8   0.000000303527
 CPU time [min]:     0.532                   Wall time [min]:     0.019
 
 Constructing local fitting domains...
 Local fitting domains are unchanged.
 
 First step of Coulomb + first step of exchange...
 Exchange contribution is evaluated for MOs 1 to 38.
   1% done.
  13% done.
  25% done.
  38% done.
  56% done.
  75% done.
  89% done.
 100% done.
 CPU time [min]:     0.649                   Wall time [min]:     0.022
 
 Fitting and assembly step of exchange...
 CPU time [min]:     0.656                   Wall time [min]:     0.022
 
 Second step of Coulomb...
   1% done.
  13% done.
  25% done.
  38% done.
  56% done.
  75% done.
  89% done.
 100% done.
 CPU time [min]:     0.700                   Wall time [min]:     0.024
 
 Gradient norm:      4.1701E+00
 DIIS is running in this iteration step.
 RMS of [F,P]:                                         0.09469307871119
 RMS of difference density:                            0.05333696739236
 Gap [au]:  0.01127730
 ALPHA OCC:  38
 BETA  OCC:  38
 
 ***HARTREE-FOCK ENERGY IN STEP   3 IS       -763.0554010926484807 [AU]
 
 Step comparison  Energy Drift [au]  DIIS error drift  Gradient drift
        2            3.5193E+01         6.3541E-02       9.2519E-01
 Warning! The gradient goes uphill (with respect to step   1 ).
 ======================================================================
 ITERATION STEP   4
 CPU time [min]:     0.710                   Wall time [min]:     0.024
 

 SCF control                  : diis
 Damping factor/level shift   : 0.000/0.200
 DIIS [start/end/frequency]   :   2 / 50 /  1

 Constructing Fock-matrix...
 Inverse square root: The matrix is not positive definite!
 
 Pipek-Mezey localization...
 Step  Convergence
   1  10.097568295410
   2   4.506842129139
   3   0.870105331104
   4   0.049583585299
   5   0.000027371779
   6   0.000000083590
 CPU time [min]:     0.731                   Wall time [min]:     0.025
 
 Constructing local fitting domains...
 Local fitting domains are unchanged.
 
 First step of Coulomb + first step of exchange...
 Exchange contribution is evaluated for MOs 1 to 38.
   1% done.
  13% done.
  25% done.
  38% done.
  56% done.
  75% done.
  89% done.
 100% done.
 CPU time [min]:     0.849                   Wall time [min]:     0.028
 
 Fitting and assembly step of exchange...
 CPU time [min]:     0.855                   Wall time [min]:     0.028
 
 Second step of Coulomb...
   1% done.
  13% done.
  25% done.
  38% done.
  56% done.
  75% done.
  89% done.
 100% done.
 CPU time [min]:     0.899                   Wall time [min]:     0.029
 
 Gradient norm:      2.1019E+00
 DIIS is running in this iteration step.
 RMS of [F,P]:                                         0.04337451743242
 RMS of difference density:                            0.01756217129583
 Gap [au]:  0.18866132
 ALPHA OCC:  38
 BETA  OCC:  38
 
 ***HARTREE-FOCK ENERGY IN STEP   4 IS       -774.5999970640216361 [AU]
 
 Step comparison  Energy Drift [au]  DIIS error drift  Gradient drift
        3            1.1545E+01         5.1319E-02       2.0683E+00
 ======================================================================
 ITERATION STEP   5
 CPU time [min]:     0.908                   Wall time [min]:     0.029
 

 SCF control                  : diis
 Damping factor/level shift   : 0.000/0.200
 DIIS [start/end/frequency]   :   2 / 50 /  1

 Constructing Fock-matrix...
 
 Pipek-Mezey localization...
 Step  Convergence
   1  11.054026974125
   2   2.983465131804
   3   0.217703796043
   4   0.027759557074
   5   0.000011910822
   6   0.000000066658
 CPU time [min]:     0.930                   Wall time [min]:     0.030
 
 Constructing local fitting domains...
 Local fitting domains are unchanged.
 
 First step of Coulomb + first step of exchange...
 Exchange contribution is evaluated for MOs 1 to 38.
   1% done.
  13% done.
  25% done.
  38% done.
  56% done.
  75% done.
  89% done.
 100% done.
 CPU time [min]:     1.048                   Wall time [min]:     0.033
 
 Fitting and assembly step of exchange...
 CPU time [min]:     1.054                   Wall time [min]:     0.034
 
 Second step of Coulomb...
   1% done.
  13% done.
  25% done.
  38% done.
  56% done.
  75% done.
  89% done.
 100% done.
 CPU time [min]:     1.098                   Wall time [min]:     0.035
 
 Gradient norm:      8.5670E-01
 DIIS is running in this iteration step.
 RMS of [F,P]:                                         0.01682817980153
 RMS of difference density:                            0.01517262515923
 Gap [au]:  0.14418859
 ALPHA OCC:  38
 BETA  OCC:  38
 
 ***HARTREE-FOCK ENERGY IN STEP   5 IS       -776.6191474545385063 [AU]
 
 Step comparison  Energy Drift [au]  DIIS error drift  Gradient drift
        4            2.0192E+00         2.6546E-02       1.2452E+00
 ======================================================================
 ITERATION STEP   6
 CPU time [min]:     1.107                   Wall time [min]:     0.035
 

 SCF control                  : diis
 Damping factor/level shift   : 0.000/0.200
 DIIS [start/end/frequency]   :   2 / 50 /  1

 Constructing Fock-matrix...
 
 Pipek-Mezey localization...
 Step  Convergence
   1  13.900369217357
   2   3.101344398256
   3   1.473362781322
   4   0.020013699688
   5   0.000130204438
   6   0.000001040788
   7   0.000000013185
 CPU time [min]:     1.129                   Wall time [min]:     0.036
 
 Constructing local fitting domains...
 Local fitting domains are unchanged.
 
 First step of Coulomb + first step of exchange...
 Exchange contribution is evaluated for MOs 1 to 38.
   1% done.
  13% done.
  25% done.
  38% done.
  56% done.
  75% done.
  89% done.
 100% done.
 CPU time [min]:     1.247                   Wall time [min]:     0.039
 
 Fitting and assembly step of exchange...
 CPU time [min]:     1.253                   Wall time [min]:     0.039
 
 Second step of Coulomb...
   1% done.
  13% done.
  25% done.
  38% done.
  56% done.
  75% done.
  89% done.
 100% done.
 CPU time [min]:     1.297                   Wall time [min]:     0.040
 
 Gradient norm:      2.2875E-01
 DIIS is running in this iteration step.
 RMS of [F,P]:                                         0.00787508424704
 RMS of difference density:                            0.00680458104742
 Gap [au]:  0.11529461
 ALPHA OCC:  38
 BETA  OCC:  38
 
 ***HARTREE-FOCK ENERGY IN STEP   6 IS       -776.9565955000391568 [AU]
 
 Step comparison  Energy Drift [au]  DIIS error drift  Gradient drift
        5            3.3745E-01         8.9531E-03       6.2795E-01
 ======================================================================
 ITERATION STEP   7
 CPU time [min]:     1.307                   Wall time [min]:     0.041
 

 SCF control                  : diis
 Damping factor/level shift   : 0.000/0.200
 DIIS [start/end/frequency]   :   2 / 50 /  1

 Constructing Fock-matrix...
 
 Pipek-Mezey localization...
 Step  Convergence
   1  16.478716183765
   2   3.595030404511
   3   0.832419403717
   4   0.145525915211
   5   0.002976383606
   6   0.000063277217
   7   0.000002615138
   8   0.000000113847
   9   0.000000005545
 CPU time [min]:     1.335                   Wall time [min]:     0.041
 
 Constructing local fitting domains...
 Local fitting domains are unchanged.
 
 First step of Coulomb + first step of exchange...
 Exchange contribution is evaluated for MOs 1 to 38.
   1% done.
  13% done.
  25% done.
  38% done.
  56% done.
  75% done.
  89% done.
 100% done.
 CPU time [min]:     1.453                   Wall time [min]:     0.045
 
 Fitting and assembly step of exchange...
 CPU time [min]:     1.459                   Wall time [min]:     0.045
 
 Second step of Coulomb...
   1% done.
  13% done.
  25% done.
  38% done.
  56% done.
  75% done.
  89% done.
 100% done.
 CPU time [min]:     1.504                   Wall time [min]:     0.046
 
 Gradient norm:      8.8019E-02
 DIIS is running in this iteration step.
 RMS of [F,P]:                                         0.00154751672022
 RMS of difference density:                            0.00353638220120
 Gap [au]:  0.15707888
 ALPHA OCC:  38
 BETA  OCC:  38
 
 ***HARTREE-FOCK ENERGY IN STEP   7 IS       -777.0331874277846964 [AU]
 
 Step comparison  Energy Drift [au]  DIIS error drift  Gradient drift
        6            7.6592E-02         6.3276E-03       1.4073E-01
 ======================================================================
 ITERATION STEP   8
 CPU time [min]:     1.513                   Wall time [min]:     0.046
 

 SCF control                  : diis
 Damping factor/level shift   : 0.000/0.200
 DIIS [start/end/frequency]   :   2 / 50 /  1

 Constructing Fock-matrix...
 
 Pipek-Mezey localization...
 Step  Convergence
   1  20.618328346194
   2   3.668807827653
   3   1.262952772561
   4   0.245255559781
   5   0.001761684592
   6   0.000032800773
   7   0.000000704980
   8   0.000000021963
   9   0.000000000722
 CPU time [min]:     1.536                   Wall time [min]:     0.047
 
 Constructing local fitting domains...
 Local fitting domains are unchanged.
 
 First step of Coulomb + first step of exchange...
 Exchange contribution is evaluated for MOs 1 to 38.
   1% done.
  13% done.
  25% done.
  38% done.
  56% done.
  75% done.
  89% done.
 100% done.
 CPU time [min]:     1.653                   Wall time [min]:     0.050
 
 Fitting and assembly step of exchange...
 CPU time [min]:     1.660                   Wall time [min]:     0.051
 
 Second step of Coulomb...
   1% done.
  13% done.
  25% done.
  38% done.
  56% done.
  75% done.
  89% done.
 100% done.
 CPU time [min]:     1.704                   Wall time [min]:     0.052
 
 Gradient norm:      5.3585E-02
 DIIS is running in this iteration step.
 RMS of [F,P]:                                         0.00069122761555
 RMS of difference density:                            0.00234461627232
 Gap [au]:  0.17771830
 ALPHA OCC:  38
 BETA  OCC:  38
 
 ***HARTREE-FOCK ENERGY IN STEP   8 IS       -777.0461388314372471 [AU]
 
 Step comparison  Energy Drift [au]  DIIS error drift  Gradient drift
        7            1.2951E-02         8.5629E-04       3.4434E-02
 ======================================================================
 ITERATION STEP   9
 CPU time [min]:     1.713                   Wall time [min]:     0.052
 

 SCF control                  : diis
 Damping factor/level shift   : 0.000/0.000
 DIIS [start/end/frequency]   :   2 / 50 /  1

 Constructing Fock-matrix...
 
 Pipek-Mezey localization...
 Step  Convergence
   1  18.112934216043
   2   4.433746816791
   3   4.624408905857
   4   0.860059567764
   5   0.049638670943
   6   0.000890076195
   7   0.000041647883
   8   0.000003447819
   9   0.000000165320
  10   0.000000011630
  11   0.000000000591
 CPU time [min]:     1.737                   Wall time [min]:     0.053
 
 Constructing local fitting domains...
 Local fitting domains are unchanged.
 
 First step of Coulomb + first step of exchange...
 Exchange contribution is evaluated for MOs 1 to 38.
   1% done.
  13% done.
  25% done.
  38% done.
  56% done.
  75% done.
  89% done.
 100% done.
 CPU time [min]:     1.855                   Wall time [min]:     0.056
 
 Fitting and assembly step of exchange...
 CPU time [min]:     1.861                   Wall time [min]:     0.056
 
 Second step of Coulomb...
   1% done.
  13% done.
  25% done.
  38% done.
  56% done.
  75% done.
  89% done.
 100% done.
 CPU time [min]:     1.905                   Wall time [min]:     0.057
 
 Gradient norm:      3.1461E-02
 DIIS is running in this iteration step.
 RMS of [F,P]:                                         0.00035713184778
 RMS of difference density:                            0.00257660785264
 Gap [au]:  0.17980702
 ALPHA OCC:  38
 BETA  OCC:  38
 
 ***HARTREE-FOCK ENERGY IN STEP   9 IS       -777.0509677632630883 [AU]
 
 Step comparison  Energy Drift [au]  DIIS error drift  Gradient drift
        8            4.8289E-03         3.3410E-04       2.2124E-02
 ======================================================================
 ITERATION STEP  10
 CPU time [min]:     1.914                   Wall time [min]:     0.058
 

 SCF control                  : diis
 Damping factor/level shift   : 0.000/0.000
 DIIS [start/end/frequency]   :   2 / 50 /  1

 Constructing Fock-matrix...
 
 Pipek-Mezey localization...
 Step  Convergence
   1  22.377987097458
   2   7.562575921796
   3   6.566935145653
   4   3.502520878835
   5   1.333269520385
   6   0.150879083366
   7   0.009599857469
   8   0.000476524975
   9   0.000056323580
  10   0.000005048183
  11   0.000000721067
  12   0.000000088014
  13   0.000000014023
  14   0.000000001893
  15   0.000000000319
  16   0.000000000044
 CPU time [min]:     1.941                   Wall time [min]:     0.058
 
 Constructing local fitting domains...
 Local fitting domains are unchanged.
 
 First step of Coulomb + first step of exchange...
 Exchange contribution is evaluated for MOs 1 to 38.
   1% done.
  13% done.
  25% done.
  38% done.
  56% done.
  75% done.
  89% done.
 100% done.
 CPU time [min]:     2.058                   Wall time [min]:     0.062
 
 Fitting and assembly step of exchange...
 CPU time [min]:     2.065                   Wall time [min]:     0.062
 
 Second step of Coulomb...
   1% done.
  13% done.
  25% done.
  38% done.
  56% done.
  75% done.
  89% done.
 100% done.
 CPU time [min]:     2.110                   Wall time [min]:     0.063
 
 Gradient norm:      1.1014E-02
 DIIS is running in this iteration step.
 RMS of [F,P]:                                         0.00016016154059
 RMS of difference density:                            0.00083271452381
 Gap [au]:  0.17999793
 ALPHA OCC:  38
 BETA  OCC:  38
 
 ***HARTREE-FOCK ENERGY IN STEP  10 IS       -777.0531533051707811 [AU]
 
 Step comparison  Energy Drift [au]  DIIS error drift  Gradient drift
        9            2.1855E-03         1.9697E-04       2.0447E-02
 ======================================================================
 ITERATION STEP  11
 CPU time [min]:     2.120                   Wall time [min]:     0.063
 

 SCF control                  : diis
 Damping factor/level shift   : 0.000/0.000
 DIIS [start/end/frequency]   :   2 / 50 /  1

 Constructing Fock-matrix...
 
 Pipek-Mezey localization...
 Step  Convergence
   1  26.446227051477
   2  10.059276522034
   3  11.364222182282
   4   4.746935399398
   5   2.456495304981
   6   0.594780511608
   7   0.345245614261
   8   0.012109616811
   9   0.000567396982
  10   0.000004623120
  11   0.000000121837
  12   0.000000051335
  13   0.000000001674
  14   0.000000000731
  15   0.000000000024
  16   0.000000000011
  17   0.000000000000
 CPU time [min]:     2.147                   Wall time [min]:     0.064
 
 Constructing local fitting domains...
 Local fitting domains are unchanged.
 
 First step of Coulomb + first step of exchange...
 Exchange contribution is evaluated for MOs 1 to 38.
   1% done.
  13% done.
  25% done.
  38% done.
  56% done.
  75% done.
  89% done.
 100% done.
 CPU time [min]:     2.264                   Wall time [min]:     0.067
 
 Fitting and assembly step of exchange...
 CPU time [min]:     2.271                   Wall time [min]:     0.068
 
 Second step of Coulomb...
   1% done.
  13% done.
  25% done.
  38% done.
  56% done.
  75% done.
  89% done.
 100% done.
 CPU time [min]:     2.315                   Wall time [min]:     0.069
 
 Gradient norm:      4.7352E-03
 DIIS is running in this iteration step.
 RMS of [F,P]:                                         0.00011343444187
 RMS of difference density:                            0.00035372735370
 Gap [au]:  0.18153355
 ALPHA OCC:  38
 BETA  OCC:  38
 
 ***HARTREE-FOCK ENERGY IN STEP  11 IS       -777.0533881281826325 [AU]
 
 Step comparison  Energy Drift [au]  DIIS error drift  Gradient drift
       10            2.3482E-04         4.6727E-05       6.2789E-03
 ======================================================================
 ITERATION STEP  12
 CPU time [min]:     2.324                   Wall time [min]:     0.069
 

 SCF control                  : diis
 Damping factor/level shift   : 0.000/0.000
 DIIS [start/end/frequency]   :   2 / 50 /  1

 Constructing Fock-matrix...
 
 Pipek-Mezey localization...
 Step  Convergence
   1  21.340065142528
   2   9.254736977612
   3  10.296904543791
   4   5.794216063199
   5   3.802323690326
   6   0.692000859330
   7   0.012760422887
   8   0.000250030926
   9   0.000005004394
  10   0.000000251761
  11   0.000000007304
  12   0.000000000237
  13   0.000000000008
  14   0.000000000000
 CPU time [min]:     2.349                   Wall time [min]:     0.070
 
 Constructing local fitting domains...
 Local fitting domains are unchanged.
 
 First step of Coulomb + first step of exchange...
 Exchange contribution is evaluated for MOs 1 to 38.
   1% done.
  13% done.
  25% done.
  38% done.
  56% done.
  75% done.
  89% done.
 100% done.
 CPU time [min]:     2.466                   Wall time [min]:     0.073
 
 Fitting and assembly step of exchange...
 CPU time [min]:     2.473                   Wall time [min]:     0.073
 
 Second step of Coulomb...
   1% done.
  13% done.
  25% done.
  38% done.
  56% done.
  75% done.
  89% done.
 100% done.
 CPU time [min]:     2.518                   Wall time [min]:     0.075
 
 Gradient norm:      1.9727E-03
 DIIS is running in this iteration step.
 RMS of [F,P]:                                         0.00003818834753
 RMS of difference density:                            0.00020995776084
 Gap [au]:  0.18173715
 ALPHA OCC:  38
 BETA  OCC:  38
 
 ***HARTREE-FOCK ENERGY IN STEP  12 IS       -777.0534469169463136 [AU]
 
 Step comparison  Energy Drift [au]  DIIS error drift  Gradient drift
       11            5.8789E-05         7.5246E-05       2.7626E-03
 ======================================================================
 ITERATION STEP  13
 CPU time [min]:     2.526                   Wall time [min]:     0.075
 

 SCF control                  : diis
 Damping factor/level shift   : 0.000/0.000
 DIIS [start/end/frequency]   :   2 / 50 /  1

 Constructing Fock-matrix...
 
 Pipek-Mezey localization...
 Step  Convergence
   1  20.787342360505
   2   6.393063176187
   3   9.304871850983
   4   5.249322873066
   5   3.507486405489
   6   0.379229436161
   7   0.015737435156
   8   0.000260017969
   9   0.000057501532
  10   0.000002230697
  11   0.000000653522
  12   0.000000029429
  13   0.000000008212
  14   0.000000000391
  15   0.000000000104
  16   0.000000000005
  17   0.000000000001
  18   0.000000000000
 CPU time [min]:     2.553                   Wall time [min]:     0.076
 
 Constructing local fitting domains...
 Local fitting domains are unchanged.
 
 First step of Coulomb + first step of exchange...
 Exchange contribution is evaluated for MOs 1 to 38.
   1% done.
  13% done.
  25% done.
  38% done.
  56% done.
  75% done.
  89% done.
 100% done.
 CPU time [min]:     2.671                   Wall time [min]:     0.079
 
 Fitting and assembly step of exchange...
 CPU time [min]:     2.677                   Wall time [min]:     0.079
 
 Second step of Coulomb...
   1% done.
  13% done.
  25% done.
  38% done.
  56% done.
  75% done.
  89% done.
 100% done.
 CPU time [min]:     2.722                   Wall time [min]:     0.080
 
 Gradient norm:      6.2401E-04
 DIIS is running in this iteration step.
 RMS of [F,P]:                                         0.00001180501183
 RMS of difference density:                            0.00004877096765
 Gap [au]:  0.18181347
 ALPHA OCC:  38
 BETA  OCC:  38
 
 ***HARTREE-FOCK ENERGY IN STEP  13 IS       -777.0534623483738415 [AU]
 
 Step comparison  Energy Drift [au]  DIIS error drift  Gradient drift
       12            1.5431E-05         2.6383E-05       1.3486E-03
 ======================================================================
 ITERATION STEP  14
 CPU time [min]:     2.731                   Wall time [min]:     0.081
 

 SCF control                  : diis
 Damping factor/level shift   : 0.000/0.000
 DIIS [start/end/frequency]   :   2 / 50 /  1

 Constructing Fock-matrix...
 
 Pipek-Mezey localization...
 Step  Convergence
   1  26.005374710849
   2   9.488331334060
   3  10.392316571328
   4   7.095781669678
   5   5.149684555577
   6   1.916385261108
   7   0.079832588802
   8   0.002862314479
   9   0.000194918052
  10   0.000014955736
  11   0.000002098050
  12   0.000000091368
  13   0.000000017941
  14   0.000000000651
  15   0.000000000180
  16   0.000000000006
  17   0.000000000002
  18   0.000000000000
 CPU time [min]:     2.758                   Wall time [min]:     0.081
 
 Constructing local fitting domains...
 Local fitting domains are unchanged.
 
 First step of Coulomb + first step of exchange...
 Exchange contribution is evaluated for MOs 1 to 38.
   1% done.
  13% done.
  25% done.
  38% done.
  56% done.
  75% done.
  89% done.
 100% done.
 CPU time [min]:     2.875                   Wall time [min]:     0.085
 
 Fitting and assembly step of exchange...
 CPU time [min]:     2.882                   Wall time [min]:     0.085
 
 Second step of Coulomb...
   1% done.
  13% done.
  25% done.
  38% done.
  56% done.
  75% done.
  89% done.
 100% done.
 CPU time [min]:     2.926                   Wall time [min]:     0.086
 
 Gradient norm:      2.1565E-04
 DIIS is running in this iteration step.
 RMS of [F,P]:                                         0.00000369761870
 RMS of difference density:                            0.00001152506933
 Gap [au]:  0.18178939
 ALPHA OCC:  38
 BETA  OCC:  38
 
 ***HARTREE-FOCK ENERGY IN STEP  14 IS       -777.0534638331948827 [AU]
 
 Step comparison  Energy Drift [au]  DIIS error drift  Gradient drift
       13            1.4848E-06         8.1074E-06       4.0835E-04
 ======================================================================
 ITERATION STEP  15
 CPU time [min]:     2.935                   Wall time [min]:     0.086
 

 SCF control                  : diis
 Damping factor/level shift   : 0.000/0.000
 DIIS [start/end/frequency]   :   2 / 50 /  1

 Constructing Fock-matrix...
 
 Pipek-Mezey localization...
 Step  Convergence
   1  23.209155019333
   2   8.655646233586
   3   8.083348863708
   4   4.725571937046
   5   1.978321737779
   6   0.296278398402
   7   0.003837255271
   8   0.000051524046
   9   0.000002954733
  10   0.000000164125
  11   0.000000010477
  12   0.000000000704
  13   0.000000000049
  14   0.000000000004
  15   0.000000000000
 CPU time [min]:     2.961                   Wall time [min]:     0.087
 
 Constructing local fitting domains...
 Local fitting domains are unchanged.
 
 First step of Coulomb + first step of exchange...
 Exchange contribution is evaluated for MOs 1 to 38.
   1% done.
  13% done.
  25% done.
  38% done.
  56% done.
  75% done.
  89% done.
 100% done.
 CPU time [min]:     3.079                   Wall time [min]:     0.090
 
 Fitting and assembly step of exchange...
 CPU time [min]:     3.085                   Wall time [min]:     0.091
 
 Second step of Coulomb...
   1% done.
  13% done.
  25% done.
  38% done.
  56% done.
  75% done.
  89% done.
 100% done.
 CPU time [min]:     3.130                   Wall time [min]:     0.092
 
 Gradient norm:      8.9116E-05
 DIIS is running in this iteration step.
 RMS of [F,P]:                                         0.00000178660505
 RMS of difference density:                            0.00000336257170
 Gap [au]:  0.18178538
 ALPHA OCC:  38
 BETA  OCC:  38
 
 ***HARTREE-FOCK ENERGY IN STEP  15 IS       -777.0534639598126887 [AU]
 
 Step comparison  Energy Drift [au]  DIIS error drift  Gradient drift
       14            1.2662E-07         1.9110E-06       1.2654E-04
 ======================================================================
 ITERATION STEP  16
 CPU time [min]:     3.139                   Wall time [min]:     0.092
 

 SCF control                  : diis
 Damping factor/level shift   : 0.000/0.000
 DIIS [start/end/frequency]   :   2 / 50 /  1

 Constructing Fock-matrix...
 
 Pipek-Mezey localization...
 Step  Convergence
   1  24.279679574597
   2  10.460557836662
   3   7.591235369815
   4   5.078463760183
   5   2.395159042030
   6   0.211455882174
   7   0.011740031908
   8   0.000629992224
   9   0.000104090210
  10   0.000005946494
  11   0.000001057804
  12   0.000000057163
  13   0.000000010813
  14   0.000000000552
  15   0.000000000111
  16   0.000000000005
  17   0.000000000001
  18   0.000000000000
 CPU time [min]:     3.166                   Wall time [min]:     0.093
 
 Constructing local fitting domains...
 Local fitting domains are unchanged.
 
 First step of Coulomb + first step of exchange...
 Exchange contribution is evaluated for MOs 1 to 38.
   1% done.
  13% done.
  25% done.
  38% done.
  56% done.
  75% done.
  89% done.
 100% done.
 CPU time [min]:     3.284                   Wall time [min]:     0.096
 
 Fitting and assembly step of exchange...
 CPU time [min]:     3.290                   Wall time [min]:     0.096
 
 Second step of Coulomb...
   1% done.
  13% done.
  25% done.
  38% done.
  56% done.
  75% done.
  89% done.
 100% done.
 CPU time [min]:     3.335                   Wall time [min]:     0.098
 
 Gradient norm:      5.1536E-05
 DIIS is running in this iteration step.
 RMS of [F,P]:                                         0.00000118194299
 RMS of difference density:                            0.00000236838923
 Gap [au]:  0.18178954
 ALPHA OCC:  38
 BETA  OCC:  38
 
 ***HARTREE-FOCK ENERGY IN STEP  16 IS       -777.0534639785128093 [AU]
 
 Step comparison  Energy Drift [au]  DIIS error drift  Gradient drift
       15            1.8700E-08         6.0466E-07       3.7580E-05
 ======================================================================
 ITERATION STEP  17
 CPU time [min]:     3.343                   Wall time [min]:     0.098
 

 SCF control                  : diis
 Damping factor/level shift   : 0.000/0.000
 DIIS [start/end/frequency]   :   2 / 50 /  1

 Constructing Fock-matrix...
 
 Pipek-Mezey localization...
 Step  Convergence
   1  15.158470530578
   2   5.259577426799
   3   9.581274661312
   4   5.763293235443
   5   2.202886192480
   6   0.318650648833
   7   0.005578893516
   8   0.000360035863
   9   0.000041054431
  10   0.000003696079
  11   0.000000568387
  12   0.000000048904
  13   0.000000008146
  14   0.000000000662
  15   0.000000000117
  16   0.000000000009
  17   0.000000000002
  18   0.000000000000
 CPU time [min]:     3.371                   Wall time [min]:     0.099
 
 Constructing local fitting domains...
 Local fitting domains are unchanged.
 
 First step of Coulomb + first step of exchange...
 Exchange contribution is evaluated for MOs 1 to 38.
   1% done.
  13% done.
  25% done.
  38% done.
  56% done.
  75% done.
  89% done.
 100% done.
 CPU time [min]:     3.488                   Wall time [min]:     0.102
 
 Fitting and assembly step of exchange...
 CPU time [min]:     3.494                   Wall time [min]:     0.102
 
 Second step of Coulomb...
   1% done.
  13% done.
  25% done.
  38% done.
  56% done.
  75% done.
  89% done.
 100% done.
 CPU time [min]:     3.538                   Wall time [min]:     0.103
 
 Gradient norm:      2.1142E-05
 DIIS is running in this iteration step.
 RMS of [F,P]:                                         0.00000047870474
 RMS of difference density:                            0.00000132524681
 Gap [au]:  0.18178748
 ALPHA OCC:  38
 BETA  OCC:  38
 
 ***HARTREE-FOCK ENERGY IN STEP  17 IS       -777.0534639849565792 [AU]
 
 Step comparison  Energy Drift [au]  DIIS error drift  Gradient drift
       16            6.4438E-09         7.0324E-07       3.0394E-05
 ======================================================================
 ITERATION STEP  18
 CPU time [min]:     3.547                   Wall time [min]:     0.103
 

 SCF control                  : diis
 Damping factor/level shift   : 0.000/0.000
 DIIS [start/end/frequency]   :   2 / 50 /  1

 Constructing Fock-matrix...
 
 Pipek-Mezey localization...
 Step  Convergence
   1  27.135288253078
   2   9.407958214740
   3   7.443671079264
   4   4.921523443743
   5   2.302094601196
   6   0.153290847280
   7   0.005789017355
   8   0.000166291271
   9   0.000048164289
  10   0.000001372630
  11   0.000000630285
  12   0.000000020270
  13   0.000000009027
  14   0.000000000378
  15   0.000000000138
  16   0.000000000008
  17   0.000000000002
  18   0.000000000000
 CPU time [min]:     3.575                   Wall time [min]:     0.104
 
 Constructing local fitting domains...
 Local fitting domains are unchanged.
 
 First step of Coulomb + first step of exchange...
 Exchange contribution is evaluated for MOs 1 to 38.
   1% done.
  13% done.
  25% done.
  38% done.
  56% done.
  75% done.
  89% done.
 100% done.
 CPU time [min]:     3.692                   Wall time [min]:     0.108
 
 Fitting and assembly step of exchange...
 CPU time [min]:     3.698                   Wall time [min]:     0.108
 
 Second step of Coulomb...
   1% done.
  13% done.
  25% done.
  38% done.
  56% done.
  75% done.
  89% done.
 100% done.
 CPU time [min]:     3.742                   Wall time [min]:     0.109
 
 Gradient norm:      1.0373E-05
 DIIS is running in this iteration step.
 RMS of [F,P]:                                         0.00000018679613
 RMS of difference density:                            0.00000076657592
 Gap [au]:  0.18178716
 ALPHA OCC:  38
 BETA  OCC:  38
 
 ***HARTREE-FOCK ENERGY IN STEP  18 IS       -777.0534639864786186 [AU]
 
 Step comparison  Energy Drift [au]  DIIS error drift  Gradient drift
       17            1.5220E-09         2.9191E-07       1.0769E-05
 ======================================================================
 ITERATION STEP  19
 CPU time [min]:     3.751                   Wall time [min]:     0.109
 

 SCF control                  : diis
 Damping factor/level shift   : 0.000/0.000
 DIIS [start/end/frequency]   :   2 / 50 /  1

 Constructing Fock-matrix...
 
 Pipek-Mezey localization...
 Step  Convergence
   1  17.895791706255
   2   6.004233526821
   3  10.490217996826
   4   6.937295220675
   5   2.300922262399
   6   0.280685534157
   7   0.007393193402
   8   0.000324695717
   9   0.000047677018
  10   0.000002606856
  11   0.000000552938
  12   0.000000028438
  13   0.000000006835
  14   0.000000000357
  15   0.000000000087
  16   0.000000000005
  17   0.000000000001
  18   0.000000000000
 CPU time [min]:     3.778                   Wall time [min]:     0.110
 
 Constructing local fitting domains...
 Local fitting domains are unchanged.
 
 First step of Coulomb + first step of exchange...
 Exchange contribution is evaluated for MOs 1 to 38.
   1% done.
  13% done.
  25% done.
  38% done.
  56% done.
  75% done.
  89% done.
 100% done.
 CPU time [min]:     3.895                   Wall time [min]:     0.113
 
 Fitting and assembly step of exchange...
 CPU time [min]:     3.902                   Wall time [min]:     0.113
 
 Second step of Coulomb...
   1% done.
  13% done.
  25% done.
  38% done.
  56% done.
  75% done.
  89% done.
 100% done.
 CPU time [min]:     3.946                   Wall time [min]:     0.115
 
 Gradient norm:      3.4027E-06
 DIIS is running in this iteration step.
 RMS of [F,P]:                                         0.00000007940508
 RMS of difference density:                            0.00000030823122
 Gap [au]:  0.18178690
 ALPHA OCC:  38
 BETA  OCC:  38
 
 ***HARTREE-FOCK ENERGY IN STEP  19 IS       -777.0534639867751139 [AU]
 
 Step comparison  Energy Drift [au]  DIIS error drift  Gradient drift
       18            2.9650E-10         1.0739E-07       6.9708E-06
 ======================================================================
 ITERATION STEP  20
 CPU time [min]:     3.968                   Wall time [min]:     0.115
 

 SCF control                  : diis
 Damping factor/level shift   : 0.000/0.000
 DIIS [start/end/frequency]   :   2 / 50 /  1

 Constructing Fock-matrix...
 
 Pipek-Mezey localization...
 Step  Convergence
   1  24.209750506875
   2   9.808092544324
   3   8.931623635227
   4   6.354915023837
   5   1.912280853017
   6   0.734258105825
   7   0.028597326148
   8   0.005351724683
   9   0.000341516439
  10   0.000071950551
  11   0.000005519421
  12   0.000001085569
  13   0.000000090362
  14   0.000000016689
  15   0.000000001471
  16   0.000000000258
  17   0.000000000024
  18   0.000000000004
  19   0.000000000000
 CPU time [min]:     3.996                   Wall time [min]:     0.116
 
 Constructing local fitting domains...
 Local fitting domains are unchanged.
 
 First step of Coulomb + first step of exchange...
 Exchange contribution is evaluated for MOs 1 to 38.
   1% done.
  13% done.
  25% done.
  38% done.
  56% done.
  75% done.
  89% done.
 100% done.
 CPU time [min]:     4.113                   Wall time [min]:     0.119
 
 Fitting and assembly step of exchange...
 CPU time [min]:     4.120                   Wall time [min]:     0.120
 
 Second step of Coulomb...
   1% done.
  13% done.
  25% done.
  38% done.
  56% done.
  75% done.
  89% done.
 100% done.
 CPU time [min]:     4.164                   Wall time [min]:     0.121
 
 Gradient norm:      1.6843E-06
 DIIS is running in this iteration step.
 RMS of [F,P]:                                         0.00000002479624
 RMS of difference density:                            0.00000010654354
 Gap [au]:  0.18178698
 ALPHA OCC:  38
 BETA  OCC:  38
 
 ***HARTREE-FOCK ENERGY IN STEP  20 IS       -777.0534639868421891 [AU]
 
 Step comparison  Energy Drift [au]  DIIS error drift  Gradient drift
       19            6.7075E-11         5.4609E-08       1.7184E-06
 ======================================================================
 ITERATION STEP  21
 CPU time [min]:     4.173                   Wall time [min]:     0.121
 

 SCF control                  : diis
 Damping factor/level shift   : 0.000/0.000
 DIIS [start/end/frequency]   :   2 / 50 /  1

 Constructing Fock-matrix...
 
 Pipek-Mezey localization...
 Step  Convergence
   1  21.976442891507
   2   7.456226653276
   3   9.029100842090
   4   5.724464080110
   5   3.847328854850
   6   1.099951526429
   7   0.074984660658
   8   0.062960214439
   9   0.000147298491
  10   0.000012098303
  11   0.000000443182
  12   0.000000034157
  13   0.000000003354
  14   0.000000000240
  15   0.000000000040
  16   0.000000000003
  17   0.000000000001
 CPU time [min]:     4.200                   Wall time [min]:     0.122
 
 Constructing local fitting domains...
 Local fitting domains are unchanged.
 
 First step of Coulomb + first step of exchange...
 Exchange contribution is evaluated for MOs 1 to 38.
   1% done.
  13% done.
  25% done.
  38% done.
  56% done.
  75% done.
  89% done.
 100% done.
 CPU time [min]:     4.317                   Wall time [min]:     0.125
 
 Fitting and assembly step of exchange...
 CPU time [min]:     4.324                   Wall time [min]:     0.125
 
 Second step of Coulomb...
   1% done.
  13% done.
  25% done.
  38% done.
  56% done.
  75% done.
  89% done.
 100% done.
 CPU time [min]:     4.368                   Wall time [min]:     0.127
 
 Gradient norm:      1.0357E-06
 DIIS is running in this iteration step.
 RMS of [F,P]:                                         0.00000001201205
 RMS of difference density:                            0.00000007847969
 Gap [au]:  0.18178700
 ALPHA OCC:  38
 BETA  OCC:  38
 
 ***HARTREE-FOCK ENERGY IN STEP  21 IS       -777.0534639868510567 [AU]
 
 Step comparison  Energy Drift [au]  DIIS error drift  Gradient drift
       20            8.8676E-12         1.2784E-08       6.4861E-07
 ======================================================================
 
 SUCCESS...
 THE SCF ITERATION HAS CONVERGED!
 
                   A   
 FINAL ALPHA OCC:  38
 FINAL BETA  OCC:  38
 
 ***FINAL HARTREE-FOCK ENERGY:       -777.0534639868510567 [AU]
 
 Orbital energies [au]:
      Irrep         Alpha          Beta
    1   A         -4.995122      -4.995122
    2   A         -4.994655      -4.994655
    3   A         -4.976723      -4.976723
    4   A         -4.928058      -4.928058
    5   A         -3.214664      -3.214664
    6   A         -3.212955      -3.212955
    7   A         -3.212092      -3.212092
    8   A         -3.211071      -3.211071
    9   A         -3.210794      -3.210794
   10   A         -3.210745      -3.210745
   11   A         -3.194563      -3.194563
   12   A         -3.192440      -3.192440
   13   A         -3.190645      -3.190645
   14   A         -3.146284      -3.146284
   15   A         -3.143111      -3.143111
   16   A         -3.143036      -3.143036
   17   A         -0.515009      -0.515009
   18   A         -0.500373      -0.500373
   19   A         -0.498802      -0.498802
   20   A         -0.498425      -0.498425
   21   A         -0.487849      -0.487849
   22   A         -0.487166      -0.487166
   23   A         -0.484863      -0.484863
   24   A         -0.472918      -0.472918
   25   A         -0.469050      -0.469050
   26   A         -0.462214      -0.462214
   27   A         -0.458597      -0.458597
   28   A         -0.455605      -0.455605
   29   A         -0.454647      -0.454647
   30   A         -0.453927      -0.453927
   31   A         -0.438086      -0.438086
   32   A         -0.412407      -0.412407
   33   A         -0.412402      -0.412402
   34   A         -0.405836      -0.405836
   35   A         -0.402531      -0.402531
   36   A         -0.396132      -0.396132
   37   A         -0.296006      -0.296006
   38   A         -0.186489      -0.186489
 
   39   A         -0.004702      -0.004702
   40   A          0.030437       0.030437
   41   A          0.101771       0.101771
   42   A          0.153032       0.153032
   43   A          0.156325       0.156325
   44   A          0.178448       0.178448
   45   A          0.216503       0.216503
   46   A          0.223453       0.223453
   47   A          0.238333       0.238333
   48   A          0.262389       0.262389
   49   A          0.288480       0.288480
   50   A          0.310725       0.310725
   51   A          0.317962       0.317962
   52   A          0.402527       0.402527
   53   A          0.479182       0.479182
   54   A          0.552229       0.552229
   55   A          0.619482       0.619482
   56   A          0.730155       0.730155
   57   A          1.161989       1.161989
   58   A          1.189636       1.189636
   59   A          1.251303       1.251303
   60   A          1.253396       1.253396
   61   A          1.266866       1.266866
   62   A          1.271640       1.271640
   63   A          1.324128       1.324128
   64   A          1.395918       1.395918
   65   A          1.400990       1.400990
   66   A          1.428166       1.428166
   67   A          1.451293       1.451293
   68   A          1.477583       1.477583
   69   A          1.500675       1.500675
   70   A          1.517135       1.517135
   71   A          1.562343       1.562343
   72   A          1.713432       1.713432
   73   A          1.828638       1.828638
   74   A          1.870361       1.870361
   75   A          2.010941       2.010941
   76   A          2.117659       2.117659
   77   A          6.301901       6.301901
   78   A          6.302142       6.302142
   79   A          6.302389       6.302389
   80   A          6.302614       6.302614
   81   A          6.303146       6.303146
   82   A          6.303276       6.303276
   83   A          6.303749       6.303749
   84   A          6.304103       6.304103
   85   A          6.304397       6.304397
   86   A          6.304588       6.304588
   87   A          6.304781       6.304781
   88   A          6.306352       6.306352
   89   A          6.310117       6.310117
   90   A          6.310406       6.310406
   91   A          6.327504       6.327504
   92   A          6.327968       6.327968
   93   A          6.328051       6.328051
   94   A          6.330107       6.330107
   95   A          6.330183       6.330183
   96   A          6.338576       6.338576
   97   A          6.341284       6.341284
   98   A          6.370792       6.370792
   99   A          6.370795       6.370795
  100   A          6.370929       6.370929
  101   A          6.371030       6.371030
  102   A          6.373445       6.373445
  103   A          6.373445       6.373445
  104   A          6.382787       6.382787
  105   A        100.074050     100.074050
  106   A        100.188287     100.188287
  107   A        100.344990     100.344990
  108   A        100.458896     100.458896
  109   A        108.732049     108.732049
  110   A        108.822720     108.822720
  111   A        108.823987     108.823987
  112   A        108.830416     108.830416
  113   A        108.843077     108.843077
  114   A        108.884299     108.884299
  115   A        108.925084     108.925084
  116   A        108.975418     108.975418
  117   A        109.040527     109.040527
  118   A        109.111001     109.111001
  119   A        109.211457     109.211457
  120   A        109.507754     109.507754
  121   A        315.826867     315.826867
  122   A        315.915686     315.915686
  123   A        315.981955     315.981955
  124   A        316.048197     316.048197
 
 RETURNING FROM SCF ALGORITHM
 ======================================================================

 ************************ 2023-02-18 18:50:11 *************************
 Executing integ...

 Allocation of 220.0 Gbytes of memory...
 
 
 Number of atoms:                  4
 Charge:                           0
 Number of electrons:             76
 Number of core electrons:        32
 Spin multiplicity:                1
 
                 Cartesian coordinates [bohr]      Atomic mass [AMU]  Z
   1  Cu    0.00348106    2.33664460   -2.94070965    62.929599      29
   2  Cu   -0.00194413   -0.00204359    5.08638665    62.929599      29
   3  Cu   -0.00473597   -0.01025791    0.82560923    62.929599      29
   4  Cu    0.00319904   -2.32434312   -2.97128623    62.929599      29
 
 This molecule is an asymmetric top.
 
 Point group: C1  
 Computational point group: C1  
 
 Cartesian coordinates in standard orientation [bohr]
   1  Cu   -2.93958167   -2.33806582    0.00107665
   2  Cu    5.08638507    0.00450198    0.00193086
   3  Cu    0.82560754    0.01065725   -0.00410630
   4  Cu   -2.97241094    2.32290659    0.00109878
 
 Nuclear repulsion energy [au]:        410.938718091449
 
 
 Basis set information:
 
 Maximum angular momentum: i
 Maximum number of contracted Gaussians:   16
 Maximum number of primitive Gaussians:    19
 Spherical harmonic GTOs are used.
 
 
 Conventional basis set:
 
   1  Cu bse_acvtz [ 13s 12p 11d 4f 3g | 8s 8p 7d 4f 3g ]
   2  Cu bse_acvtz [ 13s 12p 11d 4f 3g | 8s 8p 7d 4f 3g ]
   3  Cu bse_acvtz [ 13s 12p 11d 4f 3g | 8s 8p 7d 4f 3g ]
   4  Cu bse_acvtz [ 13s 12p 11d 4f 3g | 8s 8p 7d 4f 3g ]
 
 Basis functions:
            1             2             3             4             5             6             7             8             9            10
    0    1Cu1s         1Cu2s         1Cu3s         1Cu4s         1Cu5s         1Cu6s         1Cu7s         1Cu8s         1Cu1pz        1Cu1py    
    1    1Cu1px        1Cu2pz        1Cu2py        1Cu2px        1Cu3pz        1Cu3py        1Cu3px        1Cu4pz        1Cu4py        1Cu4px    
    2    1Cu5pz        1Cu5py        1Cu5px        1Cu6pz        1Cu6py        1Cu6px        1Cu7pz        1Cu7py        1Cu7px        1Cu8pz    
    3    1Cu8py        1Cu8px        1Cu1d-2       1Cu1d-1       1Cu1d0        1Cu1d+1       1Cu1d+2       1Cu2d-2       1Cu2d-1       1Cu2d0    
    4    1Cu2d+1       1Cu2d+2       1Cu3d-2       1Cu3d-1       1Cu3d0        1Cu3d+1       1Cu3d+2       1Cu4d-2       1Cu4d-1       1Cu4d0    
    5    1Cu4d+1       1Cu4d+2       1Cu5d-2       1Cu5d-1       1Cu5d0        1Cu5d+1       1Cu5d+2       1Cu6d-2       1Cu6d-1       1Cu6d0    
    6    1Cu6d+1       1Cu6d+2       1Cu7d-2       1Cu7d-1       1Cu7d0        1Cu7d+1       1Cu7d+2       1Cu1f-3       1Cu1f-2       1Cu1f-1   
    7    1Cu1f0        1Cu1f+1       1Cu1f+2       1Cu1f+3       1Cu2f-3       1Cu2f-2       1Cu2f-1       1Cu2f0        1Cu2f+1       1Cu2f+2   
    8    1Cu2f+3       1Cu3f-3       1Cu3f-2       1Cu3f-1       1Cu3f0        1Cu3f+1       1Cu3f+2       1Cu3f+3       1Cu4f-3       1Cu4f-2   
    9    1Cu4f-1       1Cu4f0        1Cu4f+1       1Cu4f+2       1Cu4f+3       1Cu1g-4       1Cu1g-3       1Cu1g-2       1Cu1g-1       1Cu1g0    
   10    1Cu1g+1       1Cu1g+2       1Cu1g+3       1Cu1g+4       1Cu2g-4       1Cu2g-3       1Cu2g-2       1Cu2g-1       1Cu2g0        1Cu2g+1   
   11    1Cu2g+2       1Cu2g+3       1Cu2g+4       1Cu3g-4       1Cu3g-3       1Cu3g-2       1Cu3g-1       1Cu3g0        1Cu3g+1       1Cu3g+2   
   12    1Cu3g+3       1Cu3g+4       2Cu1s         2Cu2s         2Cu3s         2Cu4s         2Cu5s         2Cu6s         2Cu7s         2Cu8s     
   13    2Cu1pz        2Cu1py        2Cu1px        2Cu2pz        2Cu2py        2Cu2px        2Cu3pz        2Cu3py        2Cu3px        2Cu4pz    
   14    2Cu4py        2Cu4px        2Cu5pz        2Cu5py        2Cu5px        2Cu6pz        2Cu6py        2Cu6px        2Cu7pz        2Cu7py    
   15    2Cu7px        2Cu8pz        2Cu8py        2Cu8px        2Cu1d-2       2Cu1d-1       2Cu1d0        2Cu1d+1       2Cu1d+2       2Cu2d-2   
   16    2Cu2d-1       2Cu2d0        2Cu2d+1       2Cu2d+2       2Cu3d-2       2Cu3d-1       2Cu3d0        2Cu3d+1       2Cu3d+2       2Cu4d-2   
   17    2Cu4d-1       2Cu4d0        2Cu4d+1       2Cu4d+2       2Cu5d-2       2Cu5d-1       2Cu5d0        2Cu5d+1       2Cu5d+2       2Cu6d-2   
   18    2Cu6d-1       2Cu6d0        2Cu6d+1       2Cu6d+2       2Cu7d-2       2Cu7d-1       2Cu7d0        2Cu7d+1       2Cu7d+2       2Cu1f-3   
   19    2Cu1f-2       2Cu1f-1       2Cu1f0        2Cu1f+1       2Cu1f+2       2Cu1f+3       2Cu2f-3       2Cu2f-2       2Cu2f-1       2Cu2f0    
   20    2Cu2f+1       2Cu2f+2       2Cu2f+3       2Cu3f-3       2Cu3f-2       2Cu3f-1       2Cu3f0        2Cu3f+1       2Cu3f+2       2Cu3f+3   
   21    2Cu4f-3       2Cu4f-2       2Cu4f-1       2Cu4f0        2Cu4f+1       2Cu4f+2       2Cu4f+3       2Cu1g-4       2Cu1g-3       2Cu1g-2   
   22    2Cu1g-1       2Cu1g0        2Cu1g+1       2Cu1g+2       2Cu1g+3       2Cu1g+4       2Cu2g-4       2Cu2g-3       2Cu2g-2       2Cu2g-1   
   23    2Cu2g0        2Cu2g+1       2Cu2g+2       2Cu2g+3       2Cu2g+4       2Cu3g-4       2Cu3g-3       2Cu3g-2       2Cu3g-1       2Cu3g0    
   24    2Cu3g+1       2Cu3g+2       2Cu3g+3       2Cu3g+4       3Cu1s         3Cu2s         3Cu3s         3Cu4s         3Cu5s         3Cu6s     
   25    3Cu7s         3Cu8s         3Cu1pz        3Cu1py        3Cu1px        3Cu2pz        3Cu2py        3Cu2px        3Cu3pz        3Cu3py    
[...]
 Number of occupied LNOs:        26  (76.47%)
 Number of virtual  LNOs:       117  (26.23%)
dropped smallnorm     2     3   9.08704653E-06
dropped smallnorm    13    15   2.76037145E-05
dropped smallnorm    13    16   2.76238227E-05
dropped smallnorm    13    17   3.19421640E-05
 tol*100>norm                    43  2.894432595431577E-003
 tol*100>norm                    44  1.702296454003252E-003
 tol*100>norm                    45  1.794795693585312E-003
 tol*100>norm                    46  1.286698142891043E-003
 tol*100>norm                    47  3.143895714738098E-003
 tol*100>norm                   165  2.654783899484657E-003
 tol*100>norm                   166  1.273591959726413E-003
 tol*100>norm                   167  2.037234140414419E-003
 tol*100>norm                   168  2.371039136790935E-003
 tol*100>norm                   169  3.575337175707977E-003
dropped smallnorm   242   247   5.82944129E-06
dropped smallnorm   253   259   2.17731869E-05
dropped smallnorm   253   260   2.75256010E-05
dropped smallnorm   253   261   1.89176725E-05
 tol*100>norm                   287  7.775103404671782E-003
 tol*100>norm                   288  1.316834904662247E-003
 tol*100>norm                   289  2.020158210235646E-003
 tol*100>norm                   290  3.245884091545942E-003
 tol*100>norm                   291  4.858143906731678E-003
 tol*100>norm                   409  2.888257103341689E-003
 tol*100>norm                   410  1.692217271632493E-003
 tol*100>norm                   411  1.796587901271338E-003
 tol*100>norm                   412  1.292700507542789E-003
 tol*100>norm                   413  3.159701057644067E-003
 Number of Cholesky vectors:      8
 MP2 energy in LIS [au]:         -0.150799103091
 Correction for frozen LNO [au]: -0.001404255953     (0.923%)
 Number of NAFs:                482  (33.38%)
 CPU time [min]:   429.120                   Wall time [min]:    14.552
 

 Direct DF-CCSD(T) calculation
 
 Convergence criterion:  1.0E-05
 
 Number of occupied/virtual/auxiliary orbitals:    26   117   482
    388.90 MB is the minimal memory requirement for (T)
    245.07 MB is the minimal memory requirement for CCSD
 
 MP2 correlation energy [au]:       -1.606407899833
 
 LMP2 domain correlation energy contribution [au]:       -0.150792551404
 
 CPU time [min]:   429.351                   Wall time [min]:    14.564
 
 
 Starting CCSD iterations...
 
                     Residual norm       Correlation Energy
 Iteration  1        0.697030485743       -1.314399351394
 Iteration  2        0.405524298000       -1.423927760739
 Iteration  3        0.081902626996       -1.441965545441
 Iteration  4        0.040176209006       -1.440976570889
 Iteration  5        0.018896308152       -1.438747478287
 Iteration  6        0.011109186768       -1.438598252105
 Iteration  7        0.006331089165       -1.439198702490
 Iteration  8        0.003809868572       -1.439103289505
 Iteration  9        0.002030910553       -1.439062826532
 Iteration 10        0.001215758941       -1.439204353381
 Iteration 11        0.000647836647       -1.439208071074
 Iteration 12        0.000388612758       -1.439170407477
 Iteration 13        0.000204040347       -1.439169728389
 Iteration 14        0.000120703266       -1.439181598750
 Iteration 15        0.000068304606       -1.439179870917
 Iteration 16        0.000037929057       -1.439177413745
 
 CCSD iteration has converged in 16 steps.
      937.68 MB memory was utilized by CCSD
 
 T1 diagnostic:      2.972E-02            D1 diagnostic:      1.218E-01
 
 T1 contribution [au]:                         0.000000000000
 CCSD correlation energy [au]:                -0.127567003498
 
 CPU time [min]:   444.483                   Wall time [min]:    15.071
 
 Calculation of (T) correction...
 
 Laplace threshold, nquadmin:  1.00E-02   3
 Number of quadrature points:    3
 
      691.59 MB memory is utilized for (T)

 0%       25%       50%       75%       100%
 |---------|---------|---------|---------| 
 
 (T) correction [au]:                   -0.006730350190
 CCSD(T) correlation energy [au]:       -0.134297353687
 
 CPU time [min]:   449.966                   Wall time [min]:    15.237
 
 MO:    37
 Number of atoms in domain:       4
 Number of atomic orbitals:     488
 Number of atoms for local DF:    4
 Number of fitting functions:  1444 (100.00%)
 Warning: drop high-lying PAOs                     4
 Number of occupied orbitals:    38
 Number of virtual  orbitals:   446
 Number of Cholesky vectors:      9
 MP2 energy in ED [au]:          -0.068322381860
 Number of occupied LNOs:        30  (78.95%)
 Number of virtual  LNOs:       163  (36.55%)
dropped smallnorm     2     3   9.08592698E-06
dropped smallnorm    13    15   2.76018179E-05
dropped smallnorm    13    16   2.76174698E-05
dropped smallnorm    13    17   3.19408791E-05
 tol*100>norm                    43  2.889329779098821E-003
 tol*100>norm                    44  1.684564849747236E-003
 tol*100>norm                    45  1.792198442788243E-003
 tol*100>norm                    46  1.286697446612007E-003
 tol*100>norm                    47  3.136274325376673E-003
dropped smallnorm   120   125   7.15998620E-06
dropped smallnorm   131   137   2.65497577E-05
dropped smallnorm   131   138   2.67404267E-05
dropped smallnorm   131   139   3.38949775E-05
 tol*100>norm                   165  2.653154614248328E-003
 tol*100>norm                   166  1.273591457937560E-003
 tol*100>norm                   167  2.036439579791200E-003
 tol*100>norm                   168  2.366866133598163E-003
 tol*100>norm                   169  3.573044846973601E-003
dropped smallnorm   238   247   5.82006225E-06
dropped smallnorm   249   259   2.17530018E-05
dropped smallnorm   249   260   2.75009145E-05
dropped smallnorm   249   261   1.88457202E-05
 tol*100>norm                   287  7.753066903540043E-003
 tol*100>norm                   288  1.308454079564379E-003
 tol*100>norm                   289  2.011032948699976E-003
 tol*100>norm                   290  3.175262050534247E-003
 tol*100>norm                   291  4.834008782589925E-003
dropped smallnorm   356   369   9.06044186E-06
dropped smallnorm   367   381   2.75786465E-05
dropped smallnorm   367   382   2.76007446E-05
dropped smallnorm   367   383   3.19147147E-05
 tol*100>norm                   409  2.884238117289275E-003
 tol*100>norm                   410  1.682057275004143E-003
 tol*100>norm                   411  1.795050670586698E-003
 tol*100>norm                   412  1.292648226387378E-003
 tol*100>norm                   413  3.156883009710633E-003
 Number of Cholesky vectors:      8
 MP2 energy in LIS [au]:         -0.067000285944
 Correction for frozen LNO [au]: -0.001322095917     (1.935%)
 Number of NAFs:                620  (42.94%)
 CPU time [min]:   462.542                   Wall time [min]:    15.685
 

 Direct DF-CCSD(T) calculation
 
 Convergence criterion:  1.0E-05
 
 Number of occupied/virtual/auxiliary orbitals:    30   163   620
    969.05 MB is the minimal memory requirement for (T)
    571.18 MB is the minimal memory requirement for CCSD
 
 MP2 correlation energy [au]:       -2.201699887749
 
 LMP2 domain correlation energy contribution [au]:       -0.066995304523
 
 CPU time [min]:   462.877                   Wall time [min]:    15.716
 
 
 Starting CCSD iterations...
 
                     Residual norm       Correlation Energy
 Iteration  1        0.825355889480       -1.735033559416
 Iteration  2        0.554336090779       -1.914835089691
 Iteration  3        0.085761599111       -1.939170995895
 Iteration  4        0.048275965647       -1.940738387514
 Iteration  5        0.025228830732       -1.936805506454
 Iteration  6        0.014332889122       -1.935528527386
 Iteration  7        0.010068234467       -1.936755394360
 Iteration  8        0.006111635244       -1.937126199230
 Iteration  9        0.004065493095       -1.936922081111
 Iteration 10        0.002274796397       -1.936974905446
 Iteration 11        0.001418407175       -1.937076739818
 Iteration 12        0.000819117711       -1.937068188787
 Iteration 13        0.000528759923       -1.937023095000
 Iteration 14        0.000322598836       -1.937028494468
 Iteration 15        0.000204867602       -1.937052162811
 Iteration 16        0.000130489243       -1.937046996088
 Iteration 17        0.000077673291       -1.937037323811
 
 CCSD iteration has converged in 17 steps.
     3227.88 MB memory was utilized by CCSD
 
 T1 diagnostic:      3.602E-02            D1 diagnostic:      1.429E-01
 
 T1 contribution [au]:                         0.000000000000
 CCSD correlation energy [au]:                -0.067359687036
 
 CPU time [min]:   512.211                   Wall time [min]:    17.479
 
 Calculation of (T) correction...
 
 Laplace threshold, nquadmin:  1.00E-02   3
 Number of quadrature points:    3
 
     1926.68 MB memory is utilized for (T)

 0%       25%       50%       75%       100%
 |---------|---------|---------|---------| 
 
 (T) correction [au]:                   -0.007999420702
 CCSD(T) correlation energy [au]:       -0.075359107738
 
 CPU time [min]:   537.118                   Wall time [min]:    18.231
 
 MO:    38
 Number of atoms in domain:       4
 Number of atomic orbitals:     488
 Number of atoms for local DF:    4
 Number of fitting functions:  1444 (100.00%)
 Warning: drop high-lying PAOs                     4
 Number of occupied orbitals:    35
 Number of virtual  orbitals:   446
 Number of Cholesky vectors:      9
 MP2 energy in ED [au]:          -0.074350735934
 Number of occupied LNOs:        33  (94.29%)
 Number of virtual  LNOs:       173  (38.79%)
dropped smallnorm     2     3   9.08727674E-06
dropped smallnorm    13    15   2.76018412E-05
dropped smallnorm    13    16   2.76175687E-05
dropped smallnorm    13    17   3.19419846E-05
 tol*100>norm                    43  2.889329967773675E-003
 tol*100>norm                    44  1.684564854048199E-003
 tol*100>norm                    45  1.792198603373970E-003
 tol*100>norm                    46  1.286697584412159E-003
 tol*100>norm                    47  3.136274715882379E-003
 tol*100>norm                   165  2.657775209742800E-003
 tol*100>norm                   166  1.273591475200088E-003
 tol*100>norm                   167  2.037417501285739E-003
 tol*100>norm                   168  2.371380004320738E-003
 tol*100>norm                   169  3.575872198590868E-003
dropped smallnorm   242   247   5.85213286E-06
dropped smallnorm   253   259   2.17683679E-05
dropped smallnorm   253   260   2.75175234E-05
dropped smallnorm   253   261   1.88565286E-05
 tol*100>norm                   287  7.804994933372034E-003
 tol*100>norm                   288  1.308454288430754E-003
 tol*100>norm                   289  2.031497291086107E-003
 tol*100>norm                   290  3.226916344860724E-003
 tol*100>norm                   291  4.895313429982700E-003
dropped smallnorm   360   369   9.06184335E-06
dropped smallnorm   371   381   2.75786691E-05
dropped smallnorm   371   382   2.76008253E-05
dropped smallnorm   371   383   3.19158669E-05
 tol*100>norm                   409  2.884238261911637E-003
 tol*100>norm                   410  1.682057278650206E-003
 tol*100>norm                   411  1.795051079941433E-003
 tol*100>norm                   412  1.292648352798757E-003
 tol*100>norm                   413  3.156883880179501E-003
 Number of Cholesky vectors:      8
 MP2 energy in LIS [au]:         -0.072673998734
 Correction for frozen LNO [au]: -0.001676737199     (2.255%)
 Number of NAFs:                686  (47.51%)
 CPU time [min]:   550.138                   Wall time [min]:    18.699
 

 Direct DF-CCSD(T) calculation
 
 Convergence criterion:  1.0E-05
 
 Number of occupied/virtual/auxiliary orbitals:    33   173   686
   1218.10 MB is the minimal memory requirement for (T)
    733.78 MB is the minimal memory requirement for CCSD
 
 MP2 correlation energy [au]:       -2.589821394935
 
 LMP2 domain correlation energy contribution [au]:       -0.072669403731
 
 CPU time [min]:   550.611                   Wall time [min]:    18.750
 
 
 Starting CCSD iterations...
 
                     Residual norm       Correlation Energy
 Iteration  1        0.882871277308       -2.034054636016
 Iteration  2        0.597937866083       -2.241841443190
 Iteration  3        0.083663018140       -2.270910658106
 Iteration  4        0.049794199711       -2.271739060937
 Iteration  5        0.025275718768       -2.266859559816
 Iteration  6        0.014925060838       -2.265822916048
 Iteration  7        0.010410345663       -2.267364689566
 Iteration  8        0.006624574226       -2.267696294644
 Iteration  9        0.004143535426       -2.267517162868
 Iteration 10        0.002667809780       -2.267667996881
 Iteration 11        0.001625084394       -2.267733685197
 Iteration 12        0.001089864622       -2.267639244845
 Iteration 13        0.000714215324       -2.267617121165
 Iteration 14        0.000491801577       -2.267682006599
 Iteration 15        0.000295877285       -2.267699201903
 Iteration 16        0.000189763510       -2.267677137093
 Iteration 17        0.000110685900       -2.267669100801
 Iteration 18        0.000066309525       -2.267675124312
 
 CCSD iteration has converged in 18 steps.
     4107.28 MB memory was utilized by CCSD
 
 T1 diagnostic:      3.585E-02            D1 diagnostic:      1.578E-01
 
 T1 contribution [au]:                         0.000000000000
 CCSD correlation energy [au]:                -0.071019425508
 
 CPU time [min]:   623.417                   Wall time [min]:    21.449
 
 Calculation of (T) correction...
 
 Laplace threshold, nquadmin:  1.00E-02   3
 Number of quadrature points:    3
 
     2504.62 MB memory is utilized for (T)

 0%       25%       50%       75%       100%
 |---------|---------|---------|---------| 
 
 (T) correction [au]:                   -0.008371923313
 CCSD(T) correlation energy [au]:       -0.079391348821
 
 CPU time [min]:   658.479                   Wall time [min]:    22.496
 
 **********************************************************************
 Dimensions of the extended domains:    Minimum / Average / Maximum
 
 Number of atoms in domain:                   4       4.0         4
 Number of atomic orbitals:                 488     488.0       488
 Number of fitting functions:              1444    1444.0      1444
 Number of occupied localized MOs:           10      20.8        38
 Number of PAOs:                            446     446.0       446
 Number of occupied LNOs:                    10      16.2        33
 Number of virtual  LNOs:                    58      83.8       173
 Number of NAFs:                            235     333.1       686
 
 **********************************************************************
 Distant (and weak) pair contributions, corrections
 
 Sum of pair energies [au]:                    -0.000744260312    (0.017%)
 Sum of energy corrections [au]:               -0.051074212873    (1.191%)
 Pair energies + LNO corrections [au]:         -0.051818473185
 Sum of LMP2 contributions [au]:               -4.287715357147
 
 **********************************************************************
  Time of manipulations in the EDs:      max CPU/Wall [s]  all CPU/Wall [min]
 
 PD construction & multipole pair E     162.85     4.93     2.71     0.08
 Construct MO basis of the ED             5.67     0.16     1.96     0.06
 (mu,nu|P) evaluation & trf 2 (ai|P)    181.87     5.07    79.31     2.21
 Evaluate MP2 energy of the ED           19.01     0.53     6.51     0.18
 Transformations to the LNO basis        11.11     0.31     4.03     0.11
 Build W_PQ (Jai or Jpi part)             2.57     0.08     0.65     0.02
 Evaluate MP2 energy of the LIS           2.19     0.06     0.24     0.01
 (mu,nu|P) evaluation & trf 2 J(abQ)    545.19    21.37   201.99     8.13
 Total of the above for all EDs         767.61    27.59   294.68    10.72
 
 **********************************************************************
 Maximum memory requirement [MB]:       
 
 PD construction & multipole pair E         19.7
 AO integral evaluation in the EDs        6191.0
 (mu,nu|P) evaluation & trf 2 (aI|P)      7043.0
 Evaluate MP2 energy in the EDs            500.1
 Transformation to the LNO basis           273.9
 (mu,nu|P) to Jab transformation          6377.6
 Evaluate MP2 energy in the LIS            300.5
 Minimum requirement for LIS CCSD          733.8
 Actually allocated  for LIS CCSD         4107.3
 Minimum requirement for LIS (T)          1218.1
 Actually allocated  for LIS (T)          2504.6
 
 ======================================================================
 ======================================================================
 
 
 
 ======================================================================
 ======================================================================
 
 Final local CC results:
 
 Minimum number of correlated electrons:        20       ( 26.3%)
 Maximum number of correlated electrons:        66       ( 86.8%)
 Average number of correlated electrons:        32.4     ( 42.7%)
 Minimum number of correlated orbitals:         68       ( 13.9%)
 Maximum number of correlated orbitals:        206       ( 42.2%)
 Average number of correlated orbitals:        100.0     ( 20.5%)
 
 CPU time for integral calculations [min]:                  8.524
 Wall time for integral calculations [min]:                 0.472
 
 CPU time for SCF calculation [min]:                       19.411
 Wall time for SCF calculation [min]:                       0.565
 
 CPU time for orbital localization [min]:                   0.189
 Wall time for orbital localization [min]:                  0.026
 
 CPU time for integral transformations [min]:             304.253
 Wall time for integral transformations [min]:             11.000
 
 Reference energy [au]:                                  -784.739249948411
 
 LMP2 correlation energy [au]:                             -4.287715357147
 Total LMP2 energy [au]:                                 -789.026965305558
 
 Total MP2 correction for dropped NAFs [au]:               -0.000175904511
 Total MP2 correction [au]:                                -0.051994377696
 
 CPU time for CCSD calculations [min]:                    251.170
 Total CPU time for CCSD [min]:                           583.545
 Wall time for CCSD calculations [min]:                     8.420
 Total wall time for CCSD [min]:                           20.483
 
 CCSD correlation energy [au]:                             -3.751128630371
 Total CCSD energy [au]:                                 -788.490378578782
 CCSD correlation energy + 0.5 MP2 corrections [au]:       -3.777125819219
 Total LNO-CCSD energy with MP2 corrections [au]:        -788.516375767630
 
 CPU time for (T) corrections [min]:                      103.060
 Total CPU time for CCSD(T) [min]:                        686.606
 Wall time for (T) corrections [min]:                       3.076
 Total wall time for CCSD(T) [min]:                        23.559
 
 Total (T) correlation energy contribution [au]:           -0.151940041282
 Total (T) correlation energy+0.5 MP2 correction [au]:     -0.177937230130
 CCSD(T) correlation energy [au]:                          -3.903068671653
 Total CCSD(T) energy [au]:                              -788.642318620064
 CCSD(T) correlation energy + MP2 corrections [au]:        -3.955063049349
 Total LNO-CCSD(T) energy with MP2 corrections [au]:     -788.694312997760
 
 ======================================================================
 ======================================================================
 
 ************************ 2023-02-18 19:13:45 *************************
                      Normal termination of mrcc.
 **********************************************************************
