 vasp.6.3.0 20Jan22 (build Apr  1 2022 16:44:48) complex                         
 executed on        HPECrayEX_GCC date 2022.08.15  19:02:04
 running  512 mpi-ranks, with    1 threads/rank
 distrk:  each k-point on  256 cores,    2 groups
 distr:  one band on NCORE=   4 cores,   64 groups


--------------------------------------------------------------------------------------------------------


 INCAR:
   SYSTEM = MgO-rocksalt
   ISMEAR = 0
   SIGMA = 0.05
   EDIFF = 1E-6
   ALGO = ALL
   ISTART = 0
   IBRION = -1
   NSW = 0
   ISYM = 2
   DIPOL = 0.5 0.5 0.5
   IDIPOL = 3
   LDIPOL = .TRUE.
   GGA = RE
   LUSE_VDW = .TRUE.
   AGGAC = 0.0
   ENCUT = 520
   PREC = Accurate
   LASPH = .TRUE.
   LREAL = Auto
   ISPIN = 1
   NELM = 200
   NELMIN = 8
   NCORE = 4
   KPAR = 2
   LWAVE = .FALSE.
   LCHARG = .FALSE.

 POTCAR:    PAW_PBE Au 04Oct2007                  
 -----------------------------------------------------------------------------
|                                                                             |
|               ----> ADVICE to this user running VASP <----                  |
|                                                                             |
|     You have switched on vdW-DFT.                                           |
|     This routine was written and supplied by Jiri Klimes. We recommend      |
|     that you carefully read and cite the following publications:            |
|       J. Klimes, D.R. Bowler, A. Michelides                                 |
|          J. Phys.: Cond Matt. 22 022201 (2010)                              |
|       J. Klimes, D.R. Bowler, A. Michelides                                 |
|          Phys. Rev. B. 83, 195131 (2011)                                    |
|     and references therein.                                                 |
|                                                                             |
 -----------------------------------------------------------------------------

 POTCAR:    PAW_PBE Au 04Oct2007                  
   SHA256 =  d0044ae04e2bdce24051b198fc5c053d722a5bc6fe3c3b100514a13fc5d2db88 Au/POTCAR             
   COPYR  = (c) Copyright 04Oct2007 Georg Kresse                                                    
   COPYR  = This file is part of the software VASP. Any use, copying, and all other rights are regul
   COPYR  = If you do not have a valid VASP license, you may not use, copy or distribute this file. 
   VRHFIN =Au: s1d10                                                                                
   LEXCH  = PE                                                                                      
   EATOM  =   926.0867 eV,   68.0654 Ry                                                             
                                                                                                    
   TITEL  = PAW_PBE Au 04Oct2007                                                                    
   LULTRA =        F    use ultrasoft PP ?                                                          
   IUNSCR =        1    unscreen: 0-lin 1-nonlin 2-no                                               
   RPACOR =    2.330    partial core radius                                                         
   POMASS =  196.966; ZVAL   =   11.000    mass and valenz                                          
   RCORE  =    2.500    outmost cutoff radius                                                       
   RWIGS  =    2.840; RWIGS  =    1.503    wigner-seitz radius (au A)                               
   ENMAX  =  229.943; ENMIN  =  172.457 eV                                                          
   ICORE  =        3    local potential                                                             
   LCOR   =        T    correct aug charges                                                         
   LPAW   =        T    paw PP                                                                      
   EAUG   =  356.670                                                                                
   DEXC   =    0.000                                                                                
   RMAX   =    2.562    core radius for proj-oper                                                   
   RAUG   =    1.300    factor for augmentation sphere                                              
   RDEP   =    2.598    radius for radial grids                                                     
   RDEPT  =    2.193    core radius for aug-charge                                                  
                                                                                                    
   Atomic configuration                                                                             
   16 entries                                                                                       
     n  l   j            E        occ.                                                              
     1  0  0.50    -80748.5001   2.0000                                                             
     2  0  0.50    -14244.7466   2.0000                                                             
     2  1  1.50    -12310.9591   6.0000                                                             
     3  0  0.50     -3362.1768   2.0000                                                             
     3  1  1.50     -2801.5463   6.0000                                                             
     3  2  2.50     -2203.8206  10.0000                                                             
     4  0  0.50      -729.8168   2.0000                                                             
     4  1  1.50      -546.0527   6.0000                                                             
     4  2  2.50      -325.7302  10.0000                                                             
     4  3  3.50       -81.1472  14.0000                                                             
     5  0  0.50      -108.3201   2.0000                                                             
     5  1  1.50       -59.7479   6.0000                                                             
     5  2  2.50        -6.8783  10.0000                                                             
     6  0  0.50        -5.7602   1.0000                                                             
     6  1  1.50        -6.8029   0.0000                                                             
     5  3  2.50        -1.3606   0.0000                                                             
   Description                                                                                      
     l       E           TYP  RCUT    TYP  RCUT                                                     
     2     -6.8782861     23  2.500                                                                 
     2     -8.2388687     23  2.500                                                                 
     0     -5.7601759     23  2.500                                                                 
     0     -0.8493231     23  2.500                                                                 
     1     -2.7211652     23  2.500                                                                 
     1     27.2116520     23  2.500                                                                 
     3     -1.3605826     23  2.500                                                                 
  local pseudopotential read in
  partial core-charges read in
  partial kinetic energy density read in
  atomic valenz-charges read in
  non local Contribution for L=           2  read in
    real space projection operators read in
  non local Contribution for L=           2  read in
    real space projection operators read in
  non local Contribution for L=           0  read in
    real space projection operators read in
  non local Contribution for L=           0  read in
    real space projection operators read in
  non local Contribution for L=           1  read in
    real space projection operators read in
  non local Contribution for L=           1  read in
    real space projection operators read in
    PAW grid and wavefunctions read in

   number of l-projection  operators is LMAX  =           6
   number of lm-projection operators is LMMAX =          18

 -----------------------------------------------------------------------------
|                                                                             |
|               ----> ADVICE to this user running VASP <----                  |
|                                                                             |
|     You have a (more or less) 'small supercell' and for smaller cells       |
|     it is recommended to use the reciprocal-space projection scheme!        |
|     The real-space optimization is not efficient for small cells and it     |
|     is also less accurate ...                                               |
|     Therefore, set LREAL=.FALSE. in the INCAR file.                         |
|                                                                             |
 -----------------------------------------------------------------------------

 Optimization of the real space projectors (new method)

 maximal supplied QI-value         = 15.12
 optimisation between [QCUT,QGAM] = [ 11.64, 23.28] = [ 37.95,151.78] Ry 
 Optimized for a Real-space Cutoff    1.49 Angstroem

   l    n(q)    QCUT    max X(q) W(low)/X(q) W(high)/X(q)  e(spline) 
   2      9    11.641    60.898    0.24E-03    0.10E-03    0.19E-06
   2      9    11.641    58.894    0.25E-03    0.10E-03    0.19E-06
   0     10    11.641   109.617    0.73E-04    0.33E-04    0.11E-06
   0     10    11.641    75.026    0.71E-04    0.32E-04    0.11E-06
   1     10    11.641    16.344    0.27E-04    0.97E-04    0.16E-06
   1     10    11.641    10.160    0.23E-04    0.77E-04    0.13E-06
 -----------------------------------------------------------------------------
|                                                                             |
|               ----> ADVICE to this user running VASP <----                  |
|                                                                             |
|     You enforced a specific xc type in the INCAR file but a different       |
|     type was found in the POTCAR file.                                      |
|     I HOPE YOU KNOW WHAT YOU ARE DOING!                                     |
|                                                                             |
 -----------------------------------------------------------------------------

  PAW_PBE Au 04Oct2007                  :
 energy of atom  1       EATOM= -926.0867
 kinetic energy error for atom=    0.0034 (will be added to EATOM!!)


 POSCAR: Au
  positions in direct lattice
  No initial velocities read in
 exchange correlation table for  LEXCH =       40
   RHO(1)=    0.500       N(1)  =     2000
   RHO(2)=  100.500       N(2)  =     4000



--------------------------------------------------------------------------------------------------------


 ion  position               nearest neighbor table
   1  0.500  0.600  0.740-   2 2.53
   2  0.500  0.600  0.626-   1 2.53

  LATTYP: Found a simple tetragonal cell.
 ALAT       =    21.1388521970
 C/A-ratio  =     1.0461251639
  
  Lattice vectors:
  
 A1 = (  21.1388521970,   0.0000000000,   0.0000000000)
 A2 = (   0.0000000000,  21.1388521970,   0.0000000000)
 A3 = (   0.0000000000,   0.0000000000,  22.1138852197)


Analysis of symmetry for initial positions (statically):
=====================================================================
 Subroutine PRICEL returns:
 Original cell was already a primitive cell.
 

 Routine SETGRP: Setting up the symmetry group for a 
 simple tetragonal supercell.


 Subroutine GETGRP returns: Found 16 space group operations
 (whereof  2 operations were pure point group operations)
 out of a pool of 16 trial point group operations.


The static configuration has the point symmetry C_1h.
 The point group associated with its full space group is D_4h.


Analysis of symmetry for dynamics (positions and initial velocities):
=====================================================================
 Subroutine PRICEL returns:
 Original cell was already a primitive cell.
 

 Routine SETGRP: Setting up the symmetry group for a 
 simple tetragonal supercell.


 Subroutine GETGRP returns: Found 16 space group operations
 (whereof  2 operations were pure point group operations)
 out of a pool of 16 trial point group operations.


The dynamic configuration has the point symmetry C_1h.
 The point group associated with its full space group is D_4h.


 Subroutine INISYM returns: Found 16 space group operations
 (whereof  2 operations are pure point group operations),
 and found     1 'primitive' translations


----------------------------------------------------------------------------------------

                                     Primitive cell                                     

  volume of cell :    9881.6133

  direct lattice vectors                    reciprocal lattice vectors
    21.138852197  0.000000000  0.000000000     0.047306258  0.000000000  0.000000000
     0.000000000 21.138852197  0.000000000     0.000000000  0.047306258  0.000000000
     0.000000000  0.000000000 22.113885220     0.000000000  0.000000000  0.045220457

  length of vectors
    21.138852197 21.138852197 22.113885220     0.047306258  0.047306258  0.045220457

  position of ions in fractional coordinates (direct lattice)
     0.499999974  0.599999938  0.740247377
     0.499999974  0.599999938  0.625906553

  ion indices of the primitive-cell ions
   primitive index   ion index
                 1           1
                 2           2

----------------------------------------------------------------------------------------



 KPOINTS: KPOINTS created by Atomic Simulation Env

Automatic generation of k-mesh.
 Grid dimensions read from file:
 generate k-points for:    1    1    1

 Generating k-lattice:

  Cartesian coordinates                     Fractional coordinates (reciprocal lattice)
     0.047306258  0.000000000  0.000000000     1.000000000  0.000000000  0.000000000
     0.000000000  0.047306258  0.000000000     0.000000000  1.000000000  0.000000000
     0.000000000  0.000000000  0.045220457     0.000000000  0.000000000  1.000000000

  Length of vectors
     0.047306258  0.047306258  0.045220457

  Shift w.r.t. Gamma in fractional coordinates (k-lattice)
     0.000000000  0.000000000  0.000000000

 
 Subroutine IBZKPT returns following result:
 ===========================================
 
 Found      1 irreducible k-points:
 
 Following reciprocal coordinates:
            Coordinates               Weight
  0.000000  0.000000  0.000000      1.000000
 
 Following cartesian coordinates:
            Coordinates               Weight
  0.000000  0.000000  0.000000      1.000000
 


--------------------------------------------------------------------------------------------------------




 Dimension of arrays:
   k-points           NKPTS =      1   k-points in BZ     NKDIM =      1   number of bands    NBANDS=     64
   number of dos      NEDOS =    301   number of ions     NIONS =      2
   non local maximal  LDIM  =      6   non local SUM 2l+1 LMDIM =     18
   total plane-waves  NPLWV = ******
   max r-space proj   IRMAX =   6070   max aug-charges    IRDMAX=  26812
   dimension x,y,z NGX =   160 NGY =  160 NGZ =  168
   dimension x,y,z NGXF=   320 NGYF=  320 NGZF=  336
   support grid    NGXF=   320 NGYF=  320 NGZF=  336
   ions per type =               2
   NGX,Y,Z   is equivalent  to a cutoff of  12.58, 12.58, 12.63 a.u.
   NGXF,Y,Z  is equivalent  to a cutoff of  25.17, 25.17, 25.26 a.u.

 SYSTEM =  MgO-rocksalt                            
 POSCAR =  Au                                      

 Startparameter for this run:
   NWRITE =      2    write-flag & timer
   PREC   = accura    normal or accurate (medium, high low for compatibility)
   ISTART =      0    job   : 0-new  1-cont  2-samecut
   ICHARG =      2    charge: 1-file 2-atom 10-const
   ISPIN  =      1    spin polarized calculation?
   LNONCOLLINEAR =      F non collinear calculations
   LSORBIT =      F    spin-orbit coupling
   INIWAV =      1    electr: 0-lowe 1-rand  2-diag
   LASPH  =      T    aspherical Exc in radial PAW
 Electronic Relaxation 1
   ENCUT  =  520.0 eV  38.22 Ry    6.18 a.u.  39.30 39.30 41.12*2*pi/ulx,y,z
   ENINI  =  520.0     initial cutoff
   ENAUG  =  356.7 eV  augmentation charge cutoff
   NELM   =    200;   NELMIN=  8; NELMDL= -5     # of ELM steps 
   EDIFF  = 0.1E-05   stopping-criterion for ELM
   LREAL  =      T    real-space projection
   NLSPLINE    = F    spline interpolate recip. space projectors
   LCOMPAT=      F    compatible to vasp.4.4
   GGA_COMPAT  = T    GGA compatible to vasp.4.4-vasp.4.6
   LMAXPAW     = -100 max onsite density
   LMAXMIX     =    2 max onsite mixed and CHGCAR
   VOSKOWN=      0    Vosko Wilk Nusair interpolation
   ROPT   =   -0.00025
 Ionic relaxation
   EDIFFG = 0.1E-04   stopping-criterion for IOM
   NSW    =      0    number of steps for IOM
   NBLOCK =      1;   KBLOCK =      1    inner block; outer block 
   IBRION =     -1    ionic relax: 0-MD 1-quasi-New 2-CG
   NFREE  =      0    steps in history (QN), initial steepest desc. (CG)
   ISIF   =      2    stress and relaxation
   IWAVPR =     10    prediction:  0-non 1-charg 2-wave 3-comb
   ISYM   =      2    0-nonsym 1-usesym 2-fastsym
   LCORR  =      T    Harris-Foulkes like correction to forces

   POTIM  = 0.5000    time-step for ionic-motion
   TEIN   =    0.0    initial temperature
   TEBEG  =    0.0;   TEEND  =   0.0 temperature during run
   SMASS  =  -3.00    Nose mass-parameter (am)
   estimated Nose-frequenzy (Omega)   =  0.10E-29 period in steps = 0.13E+47 mass=  -0.102E-25a.u.
   SCALEE = 1.0000    scale energy and forces
   NPACO  =    256;   APACO  = 10.0  distance and # of slots for P.C.
   PSTRESS=    0.0 pullay stress

  Mass of Ions in am
   POMASS = 196.97
  Ionic Valenz
   ZVAL   =  11.00
  Atomic Wigner-Seitz radii
   RWIGS  =  -1.00
  virtual crystal weights 
   VCA    =   1.00
   NELECT =      22.0000    total number of electrons
   NUPDOWN=      -1.0000    fix difference up-down

 DOS related values:
   EMIN   =  10.00;   EMAX   =-10.00  energy-range for DOS
   EFERMI =   0.00
   ISMEAR =     0;   SIGMA  =   0.05  broadening in eV -4-tet -1-fermi 0-gaus

 Electronic relaxation 2 (details)
   IALGO  =     58    algorithm
   LDIAG  =      T    sub-space diagonalisation (order eigenvalues)
   LSUBROT=      F    optimize rotation matrix (better conditioning)
   TURBO    =      0    0=normal 1=particle mesh
   IRESTART =      0    0=no restart 2=restart with 2 vectors
   NREBOOT  =      0    no. of reboots
   NMIN     =      0    reboot dimension
   EREF     =   0.00    reference energy to select bands
   IMIX   =      4    mixing-type and parameters
     AMIX     =   0.40;   BMIX     =  1.00
     AMIX_MAG =   1.60;   BMIX_MAG =  1.00
     AMIN     =   0.10
     WC   =   100.;   INIMIX=   1;  MIXPRE=   1;  MAXMIX= -45

 Intra band minimization:
   WEIMIN = 0.0000     energy-eigenvalue tresh-hold
   EBREAK =  0.39E-08  absolut break condition
   DEPER  =   0.30     relativ break condition  

   TIME   =   0.40     timestep for ELM

  volume/ion in A,a.u.               =    4940.81     33342.21
  Fermi-wavevector in a.u.,A,eV,Ry     =   0.213767  0.403960  0.621734  0.045696
  Thomas-Fermi vector in A             =   0.985879

 Write flags
   LWAVE        =      F    write WAVECAR
   LDOWNSAMPLE  =      F    k-point downsampling of WAVECAR
   LCHARG       =      F    write CHGCAR
   LVTOT        =      F    write LOCPOT, total local potential
   LVHAR        =      F    write LOCPOT, Hartree potential only
   LELF         =      F    write electronic localiz. function (ELF)
   LORBIT       =      0    0 simple, 1 ext, 2 COOP (PROOUT), +10 PAW based schemes


 Dipole corrections
   LMONO  =      F    monopole corrections only (constant potential shift)
   LDIPOL =      T    correct potential (dipole corrections)
   IDIPOL =      3    1-x, 2-y, 3-z, 4-all directions 
   EPSILON=  1.0000000 bulk dielectric constant

 Exchange correlation treatment:
   GGA     =    RE    GGA type
   LEXCH   =    40    internal setting for exchange type
   LIBXC   =     F    Libxc                    
   VOSKOWN =     0    Vosko Wilk Nusair interpolation
   LHFCALC =     F    Hartree Fock is set to
   LHFONE  =     F    Hartree Fock one center treatment
   AEXX    =    0.0000 exact exchange contribution

 vdW DFT:
   LUSE_VDW   =     T    switch on vdW DFT
   Zab_VDW    =-.8491    correlation parameter
   PARAM1     =0.1234
   PARAM2     =1.0000
   PARAM3     =0.0000
   -- rVV10 --
   BPARAM     = 6.3000
   CPARAM     = 0.0093

 Linear response parameters
   LEPSILON=     F    determine dielectric tensor
   LRPA    =     F    only Hartree local field effects (RPA)
   LNABLA  =     F    use nabla operator in PAW spheres
   LVEL    =     F    velocity operator in full k-point grid
   CSHIFT  =0.1000    complex shift for real part using Kramers Kronig
   OMEGAMAX=  -1.0    maximum frequency
   DEG_THRESHOLD= 0.2000000E-02 threshold for treating states as degnerate
   RTIME   =   -0.100 relaxation time in fs
  (WPLASMAI=    0.000 imaginary part of plasma frequency in eV, 0.658/RTIME)
   DFIELD  = 0.0000000 0.0000000 0.0000000 field for delta impulse in time

  Optional k-point grid parameters
   LKPOINTS_OPT  =     F    use optional k-point grid
   KPOINTS_OPT_MODE=     1    mode for optional k-point grid

 Orbital magnetization related:
   ORBITALMAG=     F  switch on orbital magnetization
   LCHIMAG   =     F  perturbation theory with respect to B field
   DQ        =  0.001000  dq finite difference perturbation B field
   LLRAUG    =     F  two centre corrections for induced B field



--------------------------------------------------------------------------------------------------------


 Static calculation
 charge density and potential will be updated during run
 non-spin polarized calculation
 Conjugate gradient for all bands (Freysoldt, et al. PRB 79, 241103 (2009))
 preconditioned conjugated gradient                                        
 perform sub-space diagonalisation
    before iterative eigenvector-optimisation
 modified Broyden-mixing scheme, WC =      100.0
 initial mixing is a Kerker type mixing with AMIX =  0.4000 and BMIX =      1.0000
 Hartree-type preconditioning will be used
 using additional bands           53
 real space projection scheme for non local part
 use partial core corrections
 no Harris-corrections to forces 
 use gradient corrections 
 use of overlap-Matrix (Vanderbilt PP)
 Gauss-broadening in eV      SIGMA  =   0.05


--------------------------------------------------------------------------------------------------------


  energy-cutoff  :      520.00
  volume of cell :     9881.61
      direct lattice vectors                 reciprocal lattice vectors
    21.138852197  0.000000000  0.000000000     0.047306258  0.000000000  0.000000000
     0.000000000 21.138852197  0.000000000     0.000000000  0.047306258  0.000000000
     0.000000000  0.000000000 22.113885220     0.000000000  0.000000000  0.045220457

  length of vectors
    21.138852197 21.138852197 22.113885220     0.047306258  0.047306258  0.045220457



 k-points in units of 2pi/SCALE and weight: KPOINTS created by Atomic Simulation Env
   0.00000000  0.00000000  0.00000000       1.000

 k-points in reciprocal lattice and weights: KPOINTS created by Atomic Simulation Env
   0.00000000  0.00000000  0.00000000       1.000

 position of ions in fractional coordinates (direct lattice) 
   0.49999997  0.59999994  0.74024738
   0.49999997  0.59999994  0.62590655

 position of ions in cartesian coordinates  (Angst):
  10.56942555 12.68331001 16.36974554
  10.56942555 12.68331001 13.84122566



--------------------------------------------------------------------------------------------------------


 k-point   1 :   0.0000 0.0000 0.0000  plane waves:  265979

 maximum and minimum number of plane-waves per node :     66495    66494

 maximum number of plane-waves:    265979
 maximum index in each direction: 
   IXMAX=   39   IYMAX=   39   IZMAX=   41
   IXMIN=  -39   IYMIN=  -39   IZMIN=  -41


 real space projection operators:
  total allocation   :       1639.83 KBytes
  max/ min on nodes  :        412.17        407.95


 parallel 3D FFT for wavefunctions:
    minimum data exchange during FFTs selected (reduces bandwidth)
 parallel 3D FFT for charge:
    minimum data exchange during FFTs selected (reduces bandwidth)


 total amount of memory used by VASP MPI-rank0   125815. kBytes
=======================================================================

   base      :      30000. kBytes
   nonlr-proj:        711. kBytes
   fftplans  :      38424. kBytes
   grid      :      53473. kBytes
   one-center:         15. kBytes
   wavefun   :       3192. kBytes

     INWAV:  cpu time      0.0001: real time      0.0001
 Broyden mixing: mesh for mixing (old mesh)
   NGX = 79   NGY = 79   NGZ = 83
  (NGX  =320   NGY  =320   NGZ  =336)
  gives a total of 518003 points

 initial charge density was supplied:
 charge density of overlapping atoms calculated
 number of electron      22.0000000 magnetization 
 keeping initial charge density in first step


--------------------------------------------------------------------------------------------------------


 Maximum index for non-local projection operator         1470
 Maximum index for augmentation-charges            0 (set IRDMAX)


--------------------------------------------------------------------------------------------------------


 First call to EWALD:  gamma=   0.083
 Maximum number of real-space cells 3x 3x 3
 Maximum number of reciprocal cells 3x 3x 3

    FEWALD:  cpu time      0.0007: real time      0.0007


--------------------------------------- Iteration      1(   1)  ---------------------------------------


vdW kernel read from vdw_kernel.bindat
  0.0000  0.2424  0.5071  0.7962  1.1119  1.4567  1.8333  2.2446  2.6937  3.1842
  3.7199  4.3049  4.9438  5.6415  6.4036  7.2358  8.1446  9.1372 10.2212 11.4050
 12.6979 14.1099 15.6519 17.3360 19.1751 21.1837 23.3773 25.7729 28.3892 31.2465
 34.3669 37.7748 41.4965 45.5611 50.0000

    POTLOK:  cpu time      2.0917: real time      2.1011
    SETDIJ:  cpu time      0.1167: real time      0.1169
    TRIAL :  cpu time      0.4387: real time      0.4397
    CORREC:  cpu time      0.0007: real time      0.0007
    --------------------------------------------
      LOOP:  cpu time      2.6501: real time      2.6609

 eigenvalue-minimisations  :   128
 total energy-change (2. order) : 0.1524401E+03  (-0.3776179E+03)
 number of electron      22.0000000 magnetization 
 augmentation part       22.0000000 magnetization 

 DIPCOR: dipole corrections for dipol
 direction  3 min pos     1,
 dipolmoment           0.000000      0.000000     -0.000054 electrons x Angstroem
 Tr[quadrupol]     -4029.988336

 energy correction for charged system         0.000000 eV
 dipol+quadrupol energy correction           -0.000000 eV
 added-field ion interaction          0.000096 eV  (added to PSCEN)


 Free energy of the ion-electron system (eV)
  ---------------------------------------------------
  alpha Z        PSCENC =         0.47159599
  Ewald energy   TEWEN  =       230.74434641
  -Hartree energ DENC   =     -2004.62345874
  -exchange      EXHF   =         0.00000000
  -V(xc)+E(xc)   XCENC  =        25.71258563
  PAW double counting   =      1752.59065627    -1703.61669791
  entropy T*S    EENTRO =        -0.01659783
  eigenvalues    EBANDS =        -8.44211832
  atomic energy  EATOM  =      1859.61980172
  ---------------------------------------------------
  free energy    TOTEN  =       152.44011323 eV

  energy without entropy =      152.45671105  energy(sigma->0) =      152.44841214


--------------------------------------------------------------------------------------------------------




--------------------------------------- Iteration      1(   2)  ---------------------------------------


    TRIAL :  cpu time      0.9418: real time      0.9419
    CORREC:  cpu time      0.0002: real time      0.0002
    --------------------------------------------
      LOOP:  cpu time      0.9543: real time      0.9547

 eigenvalue-minimisations  :   256
 total energy-change (2. order) :-0.1370337E+03  (-0.1369537E+03)
 number of electron      22.0000000 magnetization 
 augmentation part       22.0000000 magnetization 

 DIPCOR: dipole corrections for dipol
 direction  3 min pos     1,
 dipolmoment           0.000000      0.000000     -0.000054 electrons x Angstroem
 Tr[quadrupol]     -4029.988336

 energy correction for charged system         0.000000 eV
 dipol+quadrupol energy correction           -0.000000 eV
 added-field ion interaction          0.000096 eV  (added to PSCEN)


 Free energy of the ion-electron system (eV)
  ---------------------------------------------------
  alpha Z        PSCENC =         0.47159599
  Ewald energy   TEWEN  =       230.74434641
  -Hartree energ DENC   =     -2004.62345874
  -exchange      EXHF   =         0.00000000
  -V(xc)+E(xc)   XCENC  =        25.71258563
  PAW double counting   =      1752.59065627    -1703.61669791
  entropy T*S    EENTRO =        -0.00000000
  eigenvalues    EBANDS =      -145.49244038
  atomic energy  EATOM  =      1859.61980172
  ---------------------------------------------------
  free energy    TOTEN  =        15.40638900 eV

  energy without entropy =       15.40638900  energy(sigma->0) =       15.40638900


--------------------------------------------------------------------------------------------------------




--------------------------------------- Iteration      1(   3)  ---------------------------------------


    TRIAL :  cpu time      0.4287: real time      0.4287
    CORREC:  cpu time      0.0004: real time      0.0004
    --------------------------------------------
      LOOP:  cpu time      0.4329: real time      0.4414

 eigenvalue-minimisations  :   128
 total energy-change (2. order) :-0.1209402E+02  (-0.1209402E+02)
 number of electron      22.0000000 magnetization 
 augmentation part       22.0000000 magnetization 

 DIPCOR: dipole corrections for dipol
 direction  3 min pos     1,
 dipolmoment           0.000000      0.000000     -0.000054 electrons x Angstroem
 Tr[quadrupol]     -4029.988336

 energy correction for charged system         0.000000 eV
 dipol+quadrupol energy correction           -0.000000 eV
 added-field ion interaction          0.000096 eV  (added to PSCEN)


 Free energy of the ion-electron system (eV)
  ---------------------------------------------------
  alpha Z        PSCENC =         0.47159599
  Ewald energy   TEWEN  =       230.74434641
  -Hartree energ DENC   =     -2004.62345874
  -exchange      EXHF   =         0.00000000
  -V(xc)+E(xc)   XCENC  =        25.71258563
  PAW double counting   =      1752.59065627    -1703.61669791
  entropy T*S    EENTRO =        -0.00000000
  eigenvalues    EBANDS =      -157.58645707
  atomic energy  EATOM  =      1859.61980172
  ---------------------------------------------------
  free energy    TOTEN  =         3.31237231 eV

  energy without entropy =        3.31237231  energy(sigma->0) =        3.31237231


--------------------------------------------------------------------------------------------------------




--------------------------------------- Iteration      1(   4)  ---------------------------------------


    TRIAL :  cpu time      0.4289: real time      0.4289
    CORREC:  cpu time      0.0004: real time      0.0004
    --------------------------------------------
      LOOP:  cpu time      0.4338: real time      0.4414

 eigenvalue-minimisations  :   128
 total energy-change (2. order) :-0.7582199E-01  (-0.7582199E-01)
 number of electron      22.0000000 magnetization 
 augmentation part       22.0000000 magnetization 

 DIPCOR: dipole corrections for dipol
 direction  3 min pos     1,
 dipolmoment           0.000000      0.000000     -0.000054 electrons x Angstroem
 Tr[quadrupol]     -4029.988336

 energy correction for charged system         0.000000 eV
 dipol+quadrupol energy correction           -0.000000 eV
 added-field ion interaction          0.000096 eV  (added to PSCEN)


 Free energy of the ion-electron system (eV)
  ---------------------------------------------------
  alpha Z        PSCENC =         0.47159599
  Ewald energy   TEWEN  =       230.74434641
  -Hartree energ DENC   =     -2004.62345874
  -exchange      EXHF   =         0.00000000
  -V(xc)+E(xc)   XCENC  =        25.71258563
  PAW double counting   =      1752.59065627    -1703.61669791
  entropy T*S    EENTRO =        -0.00000000
  eigenvalues    EBANDS =      -157.66227906
  atomic energy  EATOM  =      1859.61980172
  ---------------------------------------------------
  free energy    TOTEN  =         3.23655032 eV

  energy without entropy =        3.23655032  energy(sigma->0) =        3.23655032


--------------------------------------------------------------------------------------------------------




--------------------------------------- Iteration      1(   5)  ---------------------------------------


    TRIAL :  cpu time      0.9246: real time      0.9246
    CORREC:  cpu time      0.0008: real time      0.0008
    CHARGE:  cpu time      0.6106: real time      0.6113
    --------------------------------------------
      LOOP:  cpu time      1.5392: real time      1.5487

 eigenvalue-minimisations  :   256
 total energy-change (2. order) :-0.1175114E-02  (-0.1175114E-02)
 number of electron      22.0000005 magnetization 
 augmentation part        8.0529208 magnetization 

 DIPCOR: dipole corrections for dipol
 direction  3 min pos     1,
 dipolmoment           0.000000      0.000000     -0.000054 electrons x Angstroem
 Tr[quadrupol]     -4029.988336

 energy correction for charged system         0.000000 eV
 dipol+quadrupol energy correction           -0.000000 eV
 added-field ion interaction          0.000096 eV  (added to PSCEN)


 Free energy of the ion-electron system (eV)
  ---------------------------------------------------
  alpha Z        PSCENC =         0.47159599
  Ewald energy   TEWEN  =       230.74434641
  -Hartree energ DENC   =     -2004.62345874
  -exchange      EXHF   =         0.00000000
  -V(xc)+E(xc)   XCENC  =        25.71258563
  PAW double counting   =      1752.59065627    -1703.61669791
  entropy T*S    EENTRO =        -0.00000000
  eigenvalues    EBANDS =      -157.66345417
  atomic energy  EATOM  =      1859.61980172
  ---------------------------------------------------
  free energy    TOTEN  =         3.23537520 eV

  energy without entropy =        3.23537520  energy(sigma->0) =        3.23537520


--------------------------------------------------------------------------------------------------------




--------------------------------------- Iteration      1(   6)  ---------------------------------------


    POTLOK:  cpu time      1.6962: real time      1.6963
    SETDIJ:  cpu time      0.1107: real time      0.1107
    TRIAL :  cpu time      0.2459: real time      0.2466
    CORREC:  cpu time      2.5232: real time      2.5236
    CHARGE:  cpu time      0.5943: real time      0.5943
    --------------------------------------------
      LOOP:  cpu time      5.1825: real time      5.1840

 eigenvalue-minimisations  :     0
 total energy-change (2. order) : 0.7457860E+00  (-0.3356267E+00)
 number of electron      22.0000005 magnetization 
 augmentation part        8.1774543 magnetization 

 DIPCOR: dipole corrections for dipol
 direction  3 min pos     1,
 dipolmoment           0.000000      0.000000     -0.001151 electrons x Angstroem
 Tr[quadrupol]     -4031.816695

 energy correction for charged system         0.000000 eV
 dipol+quadrupol energy correction           -0.000000 eV
 added-field ion interaction          0.002029 eV  (added to PSCEN)


 Free energy of the ion-electron system (eV)
  ---------------------------------------------------
  alpha Z        PSCENC =         0.47150927
  Ewald energy   TEWEN  =       230.74434641
  -Hartree energ DENC   =     -1998.07476942
  -exchange      EXHF   =         0.00000000
  -V(xc)+E(xc)   XCENC  =        25.25275266
  PAW double counting   =      1859.02787802    -1812.47879798
  entropy T*S    EENTRO =        -0.00000000
  eigenvalues    EBANDS =      -160.58155944
  atomic energy  EATOM  =      1859.61980172
  ---------------------------------------------------
  free energy    TOTEN  =         3.98116125 eV

  energy without entropy =        3.98116125  energy(sigma->0) =        3.98116125


--------------------------------------------------------------------------------------------------------




--------------------------------------- Iteration      1(   7)  ---------------------------------------


    POTLOK:  cpu time      1.7375: real time      1.7377
    SETDIJ:  cpu time      0.1090: real time      0.1090
    TRIAL :  cpu time      0.2407: real time      0.2407
    CORREC:  cpu time      2.5095: real time      2.5098
    CHARGE:  cpu time      0.5968: real time      0.5968
    --------------------------------------------
      LOOP:  cpu time      5.1977: real time      5.2068

 eigenvalue-minimisations  :     0
 total energy-change (2. order) :-0.3357507E+00  (-0.5475944E-01)
 number of electron      22.0000005 magnetization 
 augmentation part        8.1564451 magnetization 

 DIPCOR: dipole corrections for dipol
 direction  3 min pos     1,
 dipolmoment           0.000000      0.000000     -0.000856 electrons x Angstroem
 Tr[quadrupol]     -4031.595140

 energy correction for charged system         0.000000 eV
 dipol+quadrupol energy correction           -0.000000 eV
 added-field ion interaction          0.001508 eV  (added to PSCEN)


 Free energy of the ion-electron system (eV)
  ---------------------------------------------------
  alpha Z        PSCENC =         0.47377649
  Ewald energy   TEWEN  =       230.74434641
  -Hartree energ DENC   =     -2006.05118868
  -exchange      EXHF   =         0.00000000
  -V(xc)+E(xc)   XCENC  =        25.65781836
  PAW double counting   =      1873.56106055    -1826.62412747
  entropy T*S    EENTRO =        -0.00000000
  eigenvalues    EBANDS =      -153.73607682
  atomic energy  EATOM  =      1859.61980172
  ---------------------------------------------------
  free energy    TOTEN  =         3.64541057 eV

  energy without entropy =        3.64541057  energy(sigma->0) =        3.64541057


--------------------------------------------------------------------------------------------------------




--------------------------------------- Iteration      1(   8)  ---------------------------------------


    POTLOK:  cpu time      1.7358: real time      1.7360
    SETDIJ:  cpu time      0.1108: real time      0.1108
    TRIAL :  cpu time      0.2410: real time      0.2410
    CORREC:  cpu time      2.5103: real time      2.5105
    CHARGE:  cpu time      0.5921: real time      0.5921
    --------------------------------------------
      LOOP:  cpu time      5.2021: real time      5.2029

 eigenvalue-minimisations  :     0
 total energy-change (2. order) :-0.5401870E-01  (-0.1865595E-01)
 number of electron      22.0000005 magnetization 
 augmentation part        8.1889508 magnetization 

 DIPCOR: dipole corrections for dipol
 direction  3 min pos     1,
 dipolmoment           0.000000      0.000000     -0.000123 electrons x Angstroem
 Tr[quadrupol]     -4031.430418

 energy correction for charged system         0.000000 eV
 dipol+quadrupol energy correction           -0.000000 eV
 added-field ion interaction          0.000218 eV  (added to PSCEN)


 Free energy of the ion-electron system (eV)
  ---------------------------------------------------
  alpha Z        PSCENC =         0.47254084
  Ewald energy   TEWEN  =       230.74434641
  -Hartree energ DENC   =     -1998.89878577
  -exchange      EXHF   =         0.00000000
  -V(xc)+E(xc)   XCENC  =        25.43866501
  PAW double counting   =      1860.81635851    -1813.78994868
  entropy T*S    EENTRO =        -0.00000000
  eigenvalues    EBANDS =      -160.81158618
  atomic energy  EATOM  =      1859.61980172
  ---------------------------------------------------
  free energy    TOTEN  =         3.59139186 eV

  energy without entropy =        3.59139186  energy(sigma->0) =        3.59139186


--------------------------------------------------------------------------------------------------------




--------------------------------------- Iteration      1(   9)  ---------------------------------------


    POTLOK:  cpu time      1.7314: real time      1.7316
    SETDIJ:  cpu time      0.1032: real time      0.1032
    TRIAL :  cpu time      0.2408: real time      0.2408
    CORREC:  cpu time      2.4860: real time      2.4862
    CHARGE:  cpu time      0.5950: real time      0.5951
    --------------------------------------------
      LOOP:  cpu time      5.1625: real time      5.1713

 eigenvalue-minimisations  :     0
 total energy-change (2. order) :-0.1867350E-01  (-0.4711168E-02)
 number of electron      22.0000005 magnetization 
 augmentation part        8.1910392 magnetization 

 DIPCOR: dipole corrections for dipol
 direction  3 min pos     1,
 dipolmoment           0.000000      0.000000     -0.000018 electrons x Angstroem
 Tr[quadrupol]     -4031.404915

 energy correction for charged system         0.000000 eV
 dipol+quadrupol energy correction           -0.000000 eV
 added-field ion interaction          0.000032 eV  (added to PSCEN)


 Free energy of the ion-electron system (eV)
  ---------------------------------------------------
  alpha Z        PSCENC =         0.47163135
  Ewald energy   TEWEN  =       230.74434641
  -Hartree energ DENC   =     -2003.50396960
  -exchange      EXHF   =         0.00000000
  -V(xc)+E(xc)   XCENC  =        25.58051768
  PAW double counting   =      1867.83166483    -1820.67081239
  entropy T*S    EENTRO =        -0.00000000
  eigenvalues    EBANDS =      -156.50046165
  atomic energy  EATOM  =      1859.61980172
  ---------------------------------------------------
  free energy    TOTEN  =         3.57271836 eV

  energy without entropy =        3.57271836  energy(sigma->0) =        3.57271836


--------------------------------------------------------------------------------------------------------




--------------------------------------- Iteration      1(  10)  ---------------------------------------


    POTLOK:  cpu time      1.7004: real time      1.7005
    SETDIJ:  cpu time      0.1090: real time      0.1090
    TRIAL :  cpu time      0.2408: real time      0.2408
    CORREC:  cpu time      2.4749: real time      2.4751
    CHARGE:  cpu time      0.5961: real time      0.5962
    --------------------------------------------
      LOOP:  cpu time      5.1334: real time      5.1341

 eigenvalue-minimisations  :     0
 total energy-change (2. order) :-0.4711906E-02  (-0.8154786E-03)
 number of electron      22.0000005 magnetization 
 augmentation part        8.1887059 magnetization 

 DIPCOR: dipole corrections for dipol
 direction  3 min pos     1,
 dipolmoment           0.000000      0.000000     -0.000008 electrons x Angstroem
 Tr[quadrupol]     -4031.373523

 energy correction for charged system         0.000000 eV
 dipol+quadrupol energy correction           -0.000000 eV
 added-field ion interaction          0.000014 eV  (added to PSCEN)


 Free energy of the ion-electron system (eV)
  ---------------------------------------------------
  alpha Z        PSCENC =         0.47152169
  Ewald energy   TEWEN  =       230.74434641
  -Hartree energ DENC   =     -2003.30384972
  -exchange      EXHF   =         0.00000000
  -V(xc)+E(xc)   XCENC  =        25.57365037
  PAW double counting   =      1866.79132215    -1819.56868010
  entropy T*S    EENTRO =        -0.00000000
  eigenvalues    EBANDS =      -156.76010608
  atomic energy  EATOM  =      1859.61980172
  ---------------------------------------------------
  free energy    TOTEN  =         3.56800645 eV

  energy without entropy =        3.56800645  energy(sigma->0) =        3.56800645


--------------------------------------------------------------------------------------------------------




--------------------------------------- Iteration      1(  11)  ---------------------------------------


    POTLOK:  cpu time      1.6969: real time      1.6982
    SETDIJ:  cpu time      0.1073: real time      0.1073
    TRIAL :  cpu time      0.2400: real time      0.2400
    CORREC:  cpu time      2.4735: real time      2.4742
    CHARGE:  cpu time      0.6003: real time      0.6004
    --------------------------------------------
      LOOP:  cpu time      5.1229: real time      5.1326

 eigenvalue-minimisations  :     0
 total energy-change (2. order) :-0.8173205E-03  (-0.1694697E-03)
 number of electron      22.0000005 magnetization 
 augmentation part        8.1916350 magnetization 

 DIPCOR: dipole corrections for dipol
 direction  3 min pos     1,
 dipolmoment           0.000000      0.000000     -0.000010 electrons x Angstroem
 Tr[quadrupol]     -4031.370427

 energy correction for charged system         0.000000 eV
 dipol+quadrupol energy correction           -0.000000 eV
 added-field ion interaction          0.000017 eV  (added to PSCEN)


 Free energy of the ion-electron system (eV)
  ---------------------------------------------------
  alpha Z        PSCENC =         0.47152110
  Ewald energy   TEWEN  =       230.74434641
  -Hartree energ DENC   =     -2002.75002220
  -exchange      EXHF   =         0.00000000
  -V(xc)+E(xc)   XCENC  =        25.55633397
  PAW double counting   =      1865.29494813    -1818.06488781
  entropy T*S    EENTRO =        -0.00000000
  eigenvalues    EBANDS =      -157.30485219
  atomic energy  EATOM  =      1859.61980172
  ---------------------------------------------------
  free energy    TOTEN  =         3.56718913 eV

  energy without entropy =        3.56718913  energy(sigma->0) =        3.56718913


--------------------------------------------------------------------------------------------------------




--------------------------------------- Iteration      1(  12)  ---------------------------------------


    POTLOK:  cpu time      1.6976: real time      1.6979
    SETDIJ:  cpu time      0.1057: real time      0.1057
    TRIAL :  cpu time      0.2400: real time      0.2400
    CORREC:  cpu time      2.4787: real time      2.4792
    CHARGE:  cpu time      0.6030: real time      0.6030
    --------------------------------------------
      LOOP:  cpu time      5.1304: real time      5.1394

 eigenvalue-minimisations  :     0
 total energy-change (2. order) :-0.1690631E-03  (-0.4195791E-04)
 number of electron      22.0000005 magnetization 
 augmentation part        8.1909598 magnetization 

 DIPCOR: dipole corrections for dipol
 direction  3 min pos     1,
 dipolmoment           0.000000      0.000000     -0.000008 electrons x Angstroem
 Tr[quadrupol]     -4031.369832

 energy correction for charged system         0.000000 eV
 dipol+quadrupol energy correction           -0.000000 eV
 added-field ion interaction          0.000015 eV  (added to PSCEN)


 Free energy of the ion-electron system (eV)
  ---------------------------------------------------
  alpha Z        PSCENC =         0.47151775
  Ewald energy   TEWEN  =       230.74434641
  -Hartree energ DENC   =     -2003.22338322
  -exchange      EXHF   =         0.00000000
  -V(xc)+E(xc)   XCENC  =        25.57150860
  PAW double counting   =      1865.90786230    -1818.67230378
  entropy T*S    EENTRO =        -0.00000000
  eigenvalues    EBANDS =      -156.85232971
  atomic energy  EATOM  =      1859.61980172
  ---------------------------------------------------
  free energy    TOTEN  =         3.56702007 eV

  energy without entropy =        3.56702007  energy(sigma->0) =        3.56702007


--------------------------------------------------------------------------------------------------------




--------------------------------------- Iteration      1(  13)  ---------------------------------------


    POTLOK:  cpu time      1.6933: real time      1.6943
    SETDIJ:  cpu time      0.1083: real time      0.1083
    TRIAL :  cpu time      0.2395: real time      0.2395
    CORREC:  cpu time      2.4696: real time      2.4700
    CHARGE:  cpu time      0.5969: real time      0.5969
    --------------------------------------------
      LOOP:  cpu time      5.1113: real time      5.1223

 eigenvalue-minimisations  :     0
 total energy-change (2. order) :-0.4224182E-04  (-0.6914458E-05)
 number of electron      22.0000005 magnetization 
 augmentation part        8.1909123 magnetization 

 DIPCOR: dipole corrections for dipol
 direction  3 min pos     1,
 dipolmoment           0.000000      0.000000     -0.000008 electrons x Angstroem
 Tr[quadrupol]     -4031.368785

 energy correction for charged system         0.000000 eV
 dipol+quadrupol energy correction           -0.000000 eV
 added-field ion interaction          0.000013 eV  (added to PSCEN)


 Free energy of the ion-electron system (eV)
  ---------------------------------------------------
  alpha Z        PSCENC =         0.47151446
  Ewald energy   TEWEN  =       230.74434641
  -Hartree energ DENC   =     -2003.09116027
  -exchange      EXHF   =         0.00000000
  -V(xc)+E(xc)   XCENC  =        25.56688883
  PAW double counting   =      1865.65345135    -1818.41926821
  entropy T*S    EENTRO =        -0.00000000
  eigenvalues    EBANDS =      -156.97859647
  atomic energy  EATOM  =      1859.61980172
  ---------------------------------------------------
  free energy    TOTEN  =         3.56697783 eV

  energy without entropy =        3.56697783  energy(sigma->0) =        3.56697783


--------------------------------------------------------------------------------------------------------




--------------------------------------- Iteration      1(  14)  ---------------------------------------


    POTLOK:  cpu time      1.6979: real time      1.6983
    SETDIJ:  cpu time      0.1114: real time      0.1114
    TRIAL :  cpu time      0.2409: real time      0.2409
    CORREC:  cpu time      2.4748: real time      2.4753
    CHARGE:  cpu time      0.6021: real time      0.6023
    --------------------------------------------
      LOOP:  cpu time      5.1407: real time      5.1424

 eigenvalue-minimisations  :     0
 total energy-change (2. order) :-0.6960203E-05  (-0.1289377E-05)
 number of electron      22.0000005 magnetization 
 augmentation part        8.1910635 magnetization 

 DIPCOR: dipole corrections for dipol
 direction  3 min pos     1,
 dipolmoment           0.000000      0.000000     -0.000008 electrons x Angstroem
 Tr[quadrupol]     -4031.368760

 energy correction for charged system         0.000000 eV
 dipol+quadrupol energy correction           -0.000000 eV
 added-field ion interaction          0.000013 eV  (added to PSCEN)


 Free energy of the ion-electron system (eV)
  ---------------------------------------------------
  alpha Z        PSCENC =         0.47151352
  Ewald energy   TEWEN  =       230.74434641
  -Hartree energ DENC   =     -2003.06999016
  -exchange      EXHF   =         0.00000000
  -V(xc)+E(xc)   XCENC  =        25.56628015
  PAW double counting   =      1865.67117491    -1818.43721963
  entropy T*S    EENTRO =        -0.00000000
  eigenvalues    EBANDS =      -156.99893605
  atomic energy  EATOM  =      1859.61980172
  ---------------------------------------------------
  free energy    TOTEN  =         3.56697087 eV

  energy without entropy =        3.56697087  energy(sigma->0) =        3.56697087


--------------------------------------------------------------------------------------------------------




--------------------------------------- Iteration      1(  15)  ---------------------------------------


    POTLOK:  cpu time      1.6917: real time      1.6924
    SETDIJ:  cpu time      0.1103: real time      0.1103
    TRIAL :  cpu time      0.2402: real time      0.2405
    CORREC:  cpu time      2.4685: real time      2.4689
    CHARGE:  cpu time      0.5921: real time      0.5922
    --------------------------------------------
      LOOP:  cpu time      5.1074: real time      5.1169

 eigenvalue-minimisations  :     0
 total energy-change (2. order) :-0.1145723E-05  (-0.1943784E-06)
 number of electron      22.0000005 magnetization 
 augmentation part        8.1909617 magnetization 

 DIPCOR: dipole corrections for dipol
 direction  3 min pos     1,
 dipolmoment           0.000000      0.000000     -0.000008 electrons x Angstroem
 Tr[quadrupol]     -4031.368810

 energy correction for charged system         0.000000 eV
 dipol+quadrupol energy correction           -0.000000 eV
 added-field ion interaction          0.000014 eV  (added to PSCEN)


 Free energy of the ion-electron system (eV)
  ---------------------------------------------------
  alpha Z        PSCENC =         0.47151391
  Ewald energy   TEWEN  =       230.74434641
  -Hartree energ DENC   =     -2003.09960881
  -exchange      EXHF   =         0.00000000
  -V(xc)+E(xc)   XCENC  =        25.56725530
  PAW double counting   =      1865.75922852    -1818.52538338
  entropy T*S    EENTRO =        -0.00000000
  eigenvalues    EBANDS =      -156.97018395
  atomic energy  EATOM  =      1859.61980172
  ---------------------------------------------------
  free energy    TOTEN  =         3.56696972 eV

  energy without entropy =        3.56696972  energy(sigma->0) =        3.56696972


--------------------------------------------------------------------------------------------------------




--------------------------------------- Iteration      1(  16)  ---------------------------------------


    POTLOK:  cpu time      1.6972: real time      1.6974
    SETDIJ:  cpu time      0.1060: real time      0.1060
    TRIAL :  cpu time      0.2399: real time      0.2401
    CORREC:  cpu time      2.4766: real time      2.4770
    EDDIAG:  cpu time      0.0991: real time      0.0997
    CHARGE:  cpu time      0.6008: real time      0.6015
    --------------------------------------------
      LOOP:  cpu time      5.2249: real time      5.2367

 eigenvalue-minimisations  :     0
 total energy-change (2. order) :-0.1688302E-06  (-0.6594752E-07)
 number of electron      22.0000005 magnetization 
 augmentation part        8.1909076 magnetization 

 DIPCOR: dipole corrections for dipol
 direction  3 min pos     1,
 dipolmoment           0.000000      0.000000     -0.000008 electrons x Angstroem
 Tr[quadrupol]     -4031.368683

 energy correction for charged system         0.000000 eV
 dipol+quadrupol energy correction           -0.000000 eV
 added-field ion interaction          0.000014 eV  (added to PSCEN)


 Free energy of the ion-electron system (eV)
  ---------------------------------------------------
  alpha Z        PSCENC =         0.47151398
  Ewald energy   TEWEN  =       230.74434641
  -Hartree energ DENC   =     -2003.08363855
  -exchange      EXHF   =         0.00000000
  -V(xc)+E(xc)   XCENC  =        25.56674195
  PAW double counting   =      1865.74151021    -1818.50796841
  entropy T*S    EENTRO =        -0.00000000
  eigenvalues    EBANDS =      -156.98533776
  atomic energy  EATOM  =      1859.61980172
  ---------------------------------------------------
  free energy    TOTEN  =         3.56696955 eV

  energy without entropy =        3.56696955  energy(sigma->0) =        3.56696955


--------------------------------------------------------------------------------------------------------


  average scaling for gradient   1.5216


 average (electrostatic) potential at core
  the test charge radii are     1.2098
  (the norm of the test charge is              1.0000)
       1 -76.9342       2 -76.9342



 E-fermi :  -6.1654     XC(G=0):  -0.1969     alpha+bet : -0.0481

 Fermi energy:        -6.1654438168

 k-point     1 :       0.0000    0.0000    0.0000
  band No.  band energies     occupation 
      1      -9.0813      2.00000
      2      -7.9661      2.00000
      3      -7.9661      2.00000
      4      -7.0407      2.00000
      5      -7.0407      2.00000
      6      -6.7274      2.00000
      7      -6.7273      2.00000
      8      -6.5679      2.00000
      9      -6.4828      2.00000
     10      -6.4828      2.00000
     11      -6.4175      2.00000
     12      -4.4998      0.00000
     13      -1.4964      0.00000
     14      -1.4964      0.00000
     15      -1.1567      0.00000
     16      -0.0569      0.00000
     17       0.0187      0.00000
     18       0.0187      0.00000
     19       0.1279      0.00000
     20       0.1832      0.00000
     21       0.3293      0.00000
     22       0.3490      0.00000
     23       0.3496      0.00000
     24       0.3497      0.00000
     25       0.4874      0.00000
     26       0.5580      0.00000
     27       0.5656      0.00000
     28       0.6188      0.00000
     29       0.6567      0.00000
     30       0.6575      0.00000
     31       0.6577      0.00000
     32       0.6825      0.00000
     33       0.6827      0.00000
     34       0.7009      0.00000
     35       0.7286      0.00000
     36       0.7287      0.00000
     37       0.8854      0.00000
     38       0.9183      0.00000
     39       0.9455      0.00000
     40       0.9736      0.00000
     41       0.9960      0.00000
     42       0.9965      0.00000
     43       1.0088      0.00000
     44       1.0620      0.00000
     45       1.0620      0.00000
     46       1.1396      0.00000
     47       1.1909      0.00000
     48       1.3047      0.00000
     49       1.3047      0.00000
     50       1.3374      0.00000
     51       1.3835      0.00000
     52       1.4495      0.00000
     53       1.4496      0.00000
     54       1.4688      0.00000
     55       1.4777      0.00000
     56       1.4788      0.00000
     57       1.4887      0.00000
     58       1.5243      0.00000
     59       1.5881      0.00000
     60       1.5881      0.00000
     61       1.5888      0.00000
     62       1.6098      0.00000
     63       1.6100      0.00000
     64       1.6114      0.00000


--------------------------------------------------------------------------------------------------------


 soft charge-density along one line, spin component           1
         0         1         2         3         4         5         6         7         8         9
 total charge-density along one line

 pseudopotential strength for first ion, spin component:           1
 -9.119  -0.000  -0.000  -0.000   0.000  -9.243  -0.000  -0.000
 -0.000  -9.218  -0.000   0.000   0.000  -0.000  -9.339  -0.000
 -0.000  -0.000  -9.276  -0.000  -0.000  -0.000  -0.000  -9.397
 -0.000   0.000  -0.000  -9.218  -0.000  -0.000   0.000  -0.000
  0.000   0.000  -0.000  -0.000  -9.119   0.000   0.000  -0.000
 -9.243  -0.000  -0.000  -0.000   0.000  -9.351  -0.000  -0.000
 -0.000  -9.339  -0.000   0.000   0.000  -0.000  -9.445  -0.000
 -0.000  -0.000  -9.397  -0.000  -0.000  -0.000  -0.000  -9.501
 -0.000   0.000  -0.000  -9.339  -0.000  -0.000   0.000  -0.000
  0.000   0.000  -0.000  -0.000  -9.243   0.000   0.000  -0.000
 -0.000   0.000   0.046   0.000  -0.000  -0.000   0.000   0.046
 -0.000   0.000   0.067   0.000  -0.000  -0.000   0.000   0.067
 -0.000   0.033   0.000   0.000  -0.000  -0.000   0.032   0.000
  0.000   0.000   0.037  -0.000   0.000   0.000   0.000   0.036
 -0.000   0.000   0.000   0.033  -0.000  -0.000   0.000   0.000
 -0.000   0.037   0.000   0.000  -0.000  -0.000   0.036   0.000
  0.000   0.000   0.043  -0.000   0.000   0.000   0.000   0.042
 -0.000   0.000   0.000   0.037  -0.000  -0.000   0.000   0.000
 total augmentation occupancy for first ion, spin component:           1
  2.340  -0.000   0.000   0.000   0.000  -0.187  -0.000   0.000  -0.000  -0.000   0.000   0.000  -0.000   0.000   0.000   0.000
 -0.000   2.789   0.000   0.000   0.000  -0.000  -0.705   0.000   0.000   0.000   0.000   0.000   0.048   0.000  -0.000   0.035
  0.000   0.000   3.225   0.000  -0.000   0.000   0.000  -1.475  -0.000   0.000  -1.628   0.251   0.000   0.191  -0.000   0.000
  0.000   0.000   0.000   2.789  -0.000   0.000   0.000   0.000  -0.705   0.000   0.000   0.000   0.000  -0.000   0.048  -0.000
  0.000   0.000  -0.000  -0.000   2.340   0.000   0.000   0.000  -0.000  -0.187   0.000  -0.000   0.000  -0.000   0.000  -0.000
 -0.187  -0.000  -0.000   0.000   0.000   0.039   0.000   0.000  -0.000  -0.000   0.000   0.000  -0.000   0.000   0.000   0.000
 -0.000  -0.705   0.000   0.000   0.000   0.000   0.614   0.000   0.000   0.000  -0.000   0.000  -0.077   0.000  -0.000   0.000
  0.000   0.000  -1.475   0.000   0.000   0.000   0.000   1.641   0.000  -0.000   1.328  -0.215   0.000  -0.285  -0.000   0.000
 -0.000   0.000  -0.000  -0.705  -0.000  -0.000   0.000   0.000   0.614   0.000  -0.000   0.000  -0.000  -0.000  -0.077   0.000
 -0.000   0.000   0.000   0.000  -0.187  -0.000   0.000  -0.000   0.000   0.039  -0.000   0.000  -0.000   0.000   0.000   0.000
  0.000   0.000  -1.628   0.000   0.000   0.000  -0.000   1.328  -0.000  -0.000   1.763  -0.219   0.000  -0.247  -0.000   0.000
  0.000   0.000   0.251   0.000  -0.000   0.000   0.000  -0.215   0.000   0.000  -0.219   0.032   0.000   0.037  -0.000   0.000
 -0.000   0.048   0.000   0.000   0.000  -0.000  -0.077   0.000  -0.000  -0.000   0.000   0.000   0.011   0.000   0.000  -0.001
  0.000   0.000   0.191  -0.000  -0.000   0.000   0.000  -0.285  -0.000   0.000  -0.247   0.037   0.000   0.053   0.000   0.000
  0.000  -0.000  -0.000   0.048   0.000   0.000  -0.000  -0.000  -0.077   0.000  -0.000  -0.000   0.000   0.000   0.011  -0.000
  0.000   0.035   0.000  -0.000  -0.000   0.000   0.000   0.000   0.000   0.000   0.000   0.000  -0.001   0.000  -0.000   0.001
 -0.000   0.000   0.020  -0.000  -0.000   0.000   0.000   0.018   0.000  -0.000   0.011  -0.002   0.000  -0.005   0.000  -0.000
  0.000  -0.000   0.000   0.035  -0.000  -0.000   0.000  -0.000   0.000  -0.000   0.000  -0.000  -0.000  -0.000  -0.001   0.000


------------------------ aborting loop because EDIFF is reached ----------------------------------------


    FORLOC:  cpu time      0.0023: real time      0.0023
    FORNL :  cpu time      0.1192: real time      0.1192
    STRESS:  cpu time      0.3589: real time      0.3591
    FORCOR:  cpu time      1.6302: real time      1.6306
    OFIELD:  cpu time      0.0008: real time      0.0008

  FORCE on cell =-STRESS in cart. coord.  units (eV):
  Direction    XX          YY          ZZ          XY          YZ          ZX
  --------------------------------------------------------------------------------------
  Alpha Z     0.47150     0.47150     0.47150
  Ewald    -147.79661  -147.79661   526.33762    -0.00000     0.00000     0.00000
  Hartree   519.65244   519.65244   963.77006     0.00000    -0.00000    -0.00000
  E(xc)    -100.75901  -100.75901   -99.68205     0.00000    -0.00000     0.00000
  Local    -717.41763  -717.41763 -1805.52932    -0.00000     0.00000     0.00000
  n-local    -5.56031    -5.56031   -22.63283    -0.00000     0.00000     0.00000
  augment   137.23231   137.23231   133.59141     0.00000    -0.00000     0.00000
  Kinetic   314.14378   314.14379   304.27723     0.00000     0.00000    -0.00000
  Fock        0.00000     0.00000     0.00000     0.00000     0.00000     0.00000
  -------------------------------------------------------------------------------------
  Total      -0.03353    -0.03353     0.60361     0.00000     0.00000     0.00000
  in kB      -0.00544    -0.00544     0.09787     0.00000     0.00000     0.00000
  external pressure =        0.03 kB  Pullay stress =        0.00 kB


 VOLUME and BASIS-vectors are now :
 -----------------------------------------------------------------------------
  energy-cutoff  :      520.00
  volume of cell :     9881.61
      direct lattice vectors                 reciprocal lattice vectors
    21.138852197  0.000000000  0.000000000     0.047306258  0.000000000  0.000000000
     0.000000000 21.138852197  0.000000000     0.000000000  0.047306258  0.000000000
     0.000000000  0.000000000 22.113885220     0.000000000  0.000000000  0.045220457

  length of vectors
    21.138852197 21.138852197 22.113885220     0.047306258  0.047306258  0.045220457


 FORCES acting on ions:
    Electron-Ion                     Ewald-Force                    Non-Local-Force
 -----------------------------------------------------------------------------------------------
   0.276E-03 0.387E-09 -.277E+03   -.736E-17 0.216E-16 0.271E+03   -.529E-22 0.000E+00 0.704E+01
   0.276E-03 0.481E-09 0.277E+03   -.365E-16 -.198E-16 -.271E+03   0.529E-22 0.000E+00 -.704E+01
 -----------------------------------------------------------------------------------------------
   0.560E-03 0.190E-08 -.199E-05   -.439E-16 0.178E-17 0.000E+00   0.000E+00 0.000E+00 0.888E-15


 POSITION                                       TOTAL-FORCE (eV/Angst)
 -----------------------------------------------------------------------------------
     10.56943     12.68331     16.36975        -0.000000      0.000000      0.246582
     10.56943     12.68331     13.84123         0.000000      0.000000     -0.246582
 -----------------------------------------------------------------------------------
    total drift:                                0.000560      0.000000     -0.000002


--------------------------------------------------------------------------------------------------------



  FREE ENERGIE OF THE ION-ELECTRON SYSTEM (eV)
  ---------------------------------------------------
  free  energy   TOTEN  =         3.56696955 eV

  energy  without entropy=        3.56696955  energy(sigma->0) =        3.56696955



--------------------------------------------------------------------------------------------------------


    POTLOK:  cpu time      1.8224: real time      1.8228


--------------------------------------------------------------------------------------------------------


     LOOP+:  cpu time     66.7830: real time     66.8980
    4ORBIT:  cpu time      0.0000: real time      0.0000

 total amount of memory used by VASP MPI-rank0   125815. kBytes
=======================================================================

   base      :      30000. kBytes
   nonlr-proj:        711. kBytes
   fftplans  :      38424. kBytes
   grid      :      53473. kBytes
   one-center:         15. kBytes
   wavefun   :       3192. kBytes

  
  
 General timing and accounting informations for this job:
 ========================================================
  
                  Total CPU time used (sec):       81.762
                            User time (sec):       79.351
                          System time (sec):        2.412
                         Elapsed time (sec):       86.238
  
                   Maximum memory used (kb):      478464.
                   Average memory used (kb):          N/A
  
                          Minor page faults:        86909
                          Major page faults:            0
                 Voluntary context switches:         6586
