 **********************************************************************
                          MRCC program system
 **********************************************************************
 
                              Written by
     Mihaly Kallay, Peter R. Nagy, David Mester, Laszlo Gyevi-Nagy,
        Jozsef Csoka, P. Bernat Szabo, Zoltan Rolik, Gyula Samu,
     Jozsef Csontos, Bence Hegely, Adam Ganyecz, Istvan Ladjanszki,
       Lorant Szegedy, Bence Ladoczki, Klara Petrov, Mate Farkas,
                    Pal D. Mezei, and Reka A. Horvath
 
        Department of Physical Chemistry and Materials Science
            Budapest University of Technology and Economics
                  Budapest P.O.Box 91, H-1521 Hungary
 
                              www.mrcc.hu
 
                      Release date: March 18, 2022

 ************************ 2022-09-04 11:20:50 *************************
 Executing minp...

 Reading input from MINP...
 
 Input file:
 
calc=LNO-CCSD(T)
scftype=rhf
verbosity=3
mem=190GB
symm=off
unit=angs
scfiguess=small
scfmaxit=1000
scfalg=locfit1


lcorthr=tight
ccmaxit=400
usedisk=0
ccsdalg=dfdirect
ccsdthreads=4
ccsdmkl=thr
ptthreads=4

charge=0
core=8

basis=special
aug-cc-pVDZ-PP
aug-cc-pVDZ-PP
aug-cc-pVDZ
cc-pVDZ
cc-pVDZ
cc-pVDZ
cc-pVDZ
cc-pVDZ
aug-cc-pVDZ
aug-cc-pVDZ
aug-cc-pVDZ
aug-cc-pVDZ
aug-cc-pVDZ
aug-cc-pVDZ
aug-cc-pVDZ
aug-cc-pVDZ
cc-pVDZ
cc-pVDZ
cc-pVDZ
cc-pVDZ
aug-cc-pVDZ
aug-cc-pVDZ
aug-cc-pVDZ
aug-cc-pVDZ
cc-pVDZ
cc-pVDZ
cc-pVDZ
cc-pVDZ
cc-pVDZ
cc-pVDZ
cc-pVDZ
cc-pVDZ
cc-pVDZ
cc-pVDZ
cc-pVDZ
cc-pVDZ
aug-cc-pVDZ
aug-cc-pVDZ
aug-cc-pVDZ
aug-cc-pVDZ
aug-cc-pVDZ
aug-cc-pVDZ
aug-cc-pVDZ
aug-cc-pVDZ
aug-cc-pVDZ
aug-cc-pVDZ
aug-cc-pVDZ
aug-cc-pVDZ
cc-pVDZ
cc-pVDZ
cc-pVDZ
cc-pVDZ
cc-pVDZ
aug-cc-pVDZ
aug-cc-pVDZ
aug-cc-pVDZ
aug-cc-pVDZ
aug-cc-pVDZ
aug-cc-pVDZ
aug-cc-pVDZ
aug-cc-pVDZ
aug-cc-pVDZ
aug-cc-pVDZ
aug-cc-pVDZ
aug-cc-pVDZ
cc-pVDZ
cc-pVDZ
cc-pVDZ
cc-pVDZ
cc-pVDZ
cc-pVDZ
cc-pVDZ
cc-pVDZ
aug-cc-pVDZ
aug-cc-pVDZ
aug-cc-pVDZ
aug-cc-pVDZ
aug-cc-pVDZ
aug-cc-pVDZ
aug-cc-pVDZ
cc-pVDZ
cc-pVDZ
cc-pVDZ
aug-cc-pVDZ
aug-cc-pVDZ
aug-cc-pVDZ
aug-cc-pVDZ
aug-cc-pVDZ
aug-cc-pVDZ
aug-cc-pVDZ
aug-cc-pVDZ
aug-cc-pVDZ
aug-cc-pVDZ
aug-cc-pVDZ
aug-cc-pVDZ
aug-cc-pVDZ

basis_sm=special
def2-SVP
def2-SVP
def2-SVP
def2-SVP
def2-SVP
def2-SVP
def2-SVP
def2-SVP
def2-SVP
def2-SVP
def2-SVP
def2-SVP
def2-SVP
def2-SVP
def2-SVP
def2-SVP
def2-SVP
def2-SVP
def2-SVP
def2-SVP
def2-SVP
def2-SVP
def2-SVP
def2-SVP
def2-SVP
def2-SVP
def2-SVP
def2-SVP
def2-SVP
def2-SVP
def2-SVP
def2-SVP
def2-SVP
def2-SVP
def2-SVP
def2-SVP
def2-SVP
def2-SVP
def2-SVP
def2-SVP
def2-SVP
def2-SVP
def2-SVP
def2-SVP
def2-SVP
def2-SVP
def2-SVP
def2-SVP
def2-SVP
def2-SVP
def2-SVP
def2-SVP
def2-SVP
def2-SVP
def2-SVP
def2-SVP
def2-SVP
def2-SVP
def2-SVP
def2-SVP
def2-SVP
def2-SVP
def2-SVP
def2-SVP
def2-SVP
def2-SVP
def2-SVP
def2-SVP
def2-SVP
def2-SVP
def2-SVP
def2-SVP
def2-SVP
def2-SVP
def2-SVP
def2-SVP
def2-SVP
def2-SVP
def2-SVP
def2-SVP
def2-SVP
def2-SVP
def2-SVP
def2-SVP
def2-SVP
def2-SVP
def2-SVP
def2-SVP
def2-SVP
def2-SVP
def2-SVP
def2-SVP
def2-SVP
def2-SVP
def2-SVP
def2-SVP

dfbasis_scf=special
def2-QZVPP-RI-JK
def2-QZVPP-RI-JK
def2-QZVPP-RI-JK
def2-QZVPP-RI-JK
def2-QZVPP-RI-JK
def2-QZVPP-RI-JK
def2-QZVPP-RI-JK
def2-QZVPP-RI-JK
def2-QZVPP-RI-JK
def2-QZVPP-RI-JK
def2-QZVPP-RI-JK
def2-QZVPP-RI-JK
def2-QZVPP-RI-JK
def2-QZVPP-RI-JK
def2-QZVPP-RI-JK
def2-QZVPP-RI-JK
def2-QZVPP-RI-JK
def2-QZVPP-RI-JK
def2-QZVPP-RI-JK
def2-QZVPP-RI-JK
def2-QZVPP-RI-JK
def2-QZVPP-RI-JK
def2-QZVPP-RI-JK
def2-QZVPP-RI-JK
def2-QZVPP-RI-JK
def2-QZVPP-RI-JK
def2-QZVPP-RI-JK
def2-QZVPP-RI-JK
def2-QZVPP-RI-JK
def2-QZVPP-RI-JK
def2-QZVPP-RI-JK
def2-QZVPP-RI-JK
def2-QZVPP-RI-JK
def2-QZVPP-RI-JK
def2-QZVPP-RI-JK
def2-QZVPP-RI-JK
def2-QZVPP-RI-JK
def2-QZVPP-RI-JK
def2-QZVPP-RI-JK
def2-QZVPP-RI-JK
def2-QZVPP-RI-JK
def2-QZVPP-RI-JK
def2-QZVPP-RI-JK
def2-QZVPP-RI-JK
def2-QZVPP-RI-JK
def2-QZVPP-RI-JK
def2-QZVPP-RI-JK
def2-QZVPP-RI-JK
def2-QZVPP-RI-JK
def2-QZVPP-RI-JK
def2-QZVPP-RI-JK
def2-QZVPP-RI-JK
def2-QZVPP-RI-JK
def2-QZVPP-RI-JK
def2-QZVPP-RI-JK
def2-QZVPP-RI-JK
def2-QZVPP-RI-JK
def2-QZVPP-RI-JK
def2-QZVPP-RI-JK
def2-QZVPP-RI-JK
def2-QZVPP-RI-JK
def2-QZVPP-RI-JK
def2-QZVPP-RI-JK
def2-QZVPP-RI-JK
def2-QZVPP-RI-JK
def2-QZVPP-RI-JK
def2-QZVPP-RI-JK
def2-QZVPP-RI-JK
def2-QZVPP-RI-JK
def2-QZVPP-RI-JK
def2-QZVPP-RI-JK
def2-QZVPP-RI-JK
def2-QZVPP-RI-JK
def2-QZVPP-RI-JK
def2-QZVPP-RI-JK
def2-QZVPP-RI-JK
def2-QZVPP-RI-JK
def2-QZVPP-RI-JK
def2-QZVPP-RI-JK
def2-QZVPP-RI-JK
def2-QZVPP-RI-JK
def2-QZVPP-RI-JK
def2-QZVPP-RI-JK
def2-QZVPP-RI-JK
def2-QZVPP-RI-JK
def2-QZVPP-RI-JK
def2-QZVPP-RI-JK
def2-QZVPP-RI-JK
def2-QZVPP-RI-JK
def2-QZVPP-RI-JK
def2-QZVPP-RI-JK
def2-QZVPP-RI-JK
def2-QZVPP-RI-JK
def2-QZVPP-RI-JK
def2-QZVPP-RI-JK
def2-QZVPP-RI-JK

dfbasis_cor=special
aug-cc-pVDZ-PP-RI
aug-cc-pVDZ-PP-RI
aug-cc-pVDZ-RI
cc-pVDZ-RI
cc-pVDZ-RI
cc-pVDZ-RI
cc-pVDZ-RI
cc-pVDZ-RI
aug-cc-pVDZ-RI
aug-cc-pVDZ-RI
aug-cc-pVDZ-RI
aug-cc-pVDZ-RI
aug-cc-pVDZ-RI
aug-cc-pVDZ-RI
aug-cc-pVDZ-RI
aug-cc-pVDZ-RI
cc-pVDZ-RI
cc-pVDZ-RI
cc-pVDZ-RI
cc-pVDZ-RI
aug-cc-pVDZ-RI
aug-cc-pVDZ-RI
aug-cc-pVDZ-RI
aug-cc-pVDZ-RI
cc-pVDZ-RI
cc-pVDZ-RI
cc-pVDZ-RI
cc-pVDZ-RI
cc-pVDZ-RI
cc-pVDZ-RI
cc-pVDZ-RI
cc-pVDZ-RI
cc-pVDZ-RI
cc-pVDZ-RI
cc-pVDZ-RI
cc-pVDZ-RI
aug-cc-pVDZ-RI
aug-cc-pVDZ-RI
aug-cc-pVDZ-RI
aug-cc-pVDZ-RI
aug-cc-pVDZ-RI
aug-cc-pVDZ-RI
aug-cc-pVDZ-RI
aug-cc-pVDZ-RI
aug-cc-pVDZ-RI
aug-cc-pVDZ-RI
aug-cc-pVDZ-RI
aug-cc-pVDZ-RI
cc-pVDZ-RI
cc-pVDZ-RI
cc-pVDZ-RI
cc-pVDZ-RI
cc-pVDZ-RI
aug-cc-pVDZ-RI
aug-cc-pVDZ-RI
aug-cc-pVDZ-RI
aug-cc-pVDZ-RI
aug-cc-pVDZ-RI
aug-cc-pVDZ-RI
aug-cc-pVDZ-RI
aug-cc-pVDZ-RI
aug-cc-pVDZ-RI
aug-cc-pVDZ-RI
aug-cc-pVDZ-RI
aug-cc-pVDZ-RI
cc-pVDZ-RI
cc-pVDZ-RI
cc-pVDZ-RI
cc-pVDZ-RI
cc-pVDZ-RI
cc-pVDZ-RI
cc-pVDZ-RI
cc-pVDZ-RI
aug-cc-pVDZ-RI
aug-cc-pVDZ-RI
aug-cc-pVDZ-RI
aug-cc-pVDZ-RI
aug-cc-pVDZ-RI
aug-cc-pVDZ-RI
aug-cc-pVDZ-RI
cc-pVDZ-RI
cc-pVDZ-RI
cc-pVDZ-RI
aug-cc-pVDZ-RI
aug-cc-pVDZ-RI
aug-cc-pVDZ-RI
aug-cc-pVDZ-RI
aug-cc-pVDZ-RI
aug-cc-pVDZ-RI
aug-cc-pVDZ-RI
aug-cc-pVDZ-RI
aug-cc-pVDZ-RI
aug-cc-pVDZ-RI
aug-cc-pVDZ-RI
aug-cc-pVDZ-RI
aug-cc-pVDZ-RI

ecp=special
MCDHF-ECP-60
MCDHF-ECP-60
none
none
none
none
none
none
none
none
none
none
none
none
none
none
none
none
none
none
none
none
none
none
none
none
none
none
none
none
none
none
none
none
none
none
none
none
none
none
none
none
none
none
none
none
none
none
none
none
none
none
none
none
none
none
none
none
none
none
none
none
none
none
none
none
none
none
none
none
none
none
none
none
none
none
none
none
none
none
none
none
none
none
none
none
none
none
none
none
none
none
none
none
none
none

unit=angs
geom=xyz
96
Au2 Mg37 O57 ECP60
Au   -0.83009204525    0.00000000397    2.45471686107
Au   -3.39767989836    0.00000000397    2.45471686107
O     0.00000000000    0.00000000000    0.00000000000
Mg   -2.11388582115    0.00000000000    0.00000000000
Mg    0.00000000000    2.11388582115    0.00000000000
Mg    2.11388582115    0.00000000000    0.00000000000
Mg    0.00000000000   -2.11388582115    0.00000000000
Mg    0.00000000000    0.00000000000   -2.11388582115
O    -2.11388582115    2.11388582115    0.00000000000
O     2.11388582115    2.11388582115    0.00000000000
O     2.11388582115   -2.11388582115    0.00000000000
O    -2.11388582115   -2.11388582115    0.00000000000
O    -2.11388582115    0.00000000000   -2.11388582115
O     0.00000000000    2.11388582115   -2.11388582115
O     2.11388582115    0.00000000000   -2.11388582115
O     0.00000000000   -2.11388582115   -2.11388582115
Mg   -2.11388582115    2.11388582115   -2.11388582115
Mg    2.11388582115    2.11388582115   -2.11388582115
Mg    2.11388582115   -2.11388582115   -2.11388582115
Mg   -2.11388582115   -2.11388582115   -2.11388582115
O    -4.22777164231    0.00000000000    0.00000000000
O     0.00000000000    4.22777164231    0.00000000000
O     4.22777164231    0.00000000000    0.00000000000
O     0.00000000000   -4.22777164231    0.00000000000
Mg   -4.22777164231    2.11388582115    0.00000000000
Mg   -2.11388582115    4.22777164231    0.00000000000
Mg    2.11388582115    4.22777164231    0.00000000000
Mg    4.22777164231    2.11388582115    0.00000000000
Mg    4.22777164231   -2.11388582115    0.00000000000
Mg    2.11388582115   -4.22777164231    0.00000000000
Mg   -2.11388582115   -4.22777164231    0.00000000000
Mg   -4.22777164231   -2.11388582115    0.00000000000
Mg   -4.22777164231    0.00000000000   -2.11388582115
Mg    0.00000000000    4.22777164231   -2.11388582115
Mg    4.22777164231    0.00000000000   -2.11388582115
Mg    0.00000000000   -4.22777164231   -2.11388582115
O    -4.22777164231    2.11388582115   -2.11388582115
O    -2.11388582115    4.22777164231   -2.11388582115
O     2.11388582115    4.22777164231   -2.11388582115
O     4.22777164231    2.11388582115   -2.11388582115
O     4.22777164231   -2.11388582115   -2.11388582115
O     2.11388582115   -4.22777164231   -2.11388582115
O    -2.11388582115   -4.22777164231   -2.11388582115
O    -4.22777164231   -2.11388582115   -2.11388582115
O    -4.22777164231    4.22777164231    0.00000000000
O     4.22777164231    4.22777164231    0.00000000000
O     4.22777164231   -4.22777164231    0.00000000000
O    -4.22777164231   -4.22777164231    0.00000000000
Mg   -6.34165746346    0.00000000000    0.00000000000
Mg    0.00000000000    6.34165746346    0.00000000000
Mg    0.00000000000   -6.34165746346    0.00000000000
Mg   -4.22777164231    4.22777164231   -2.11388582115
Mg   -4.22777164231   -4.22777164231   -2.11388582115
O    -6.34165746346    2.11388582115    0.00000000000
O    -2.11388582115    6.34165746346    0.00000000000
O     2.11388582115    6.34165746346    0.00000000000
O     6.34165746346    2.11388582115    0.00000000000
O     6.34165746346   -2.11388582115    0.00000000000
O     2.11388582115   -6.34165746346    0.00000000000
O    -2.11388582115   -6.34165746346    0.00000000000
O    -6.34165746346   -2.11388582115    0.00000000000
O    -6.34165746346    0.00000000000   -2.11388582115
O     0.00000000000    6.34165746346   -2.11388582115
O     6.34165746346    0.00000000000   -2.11388582115
O     0.00000000000   -6.34165746346   -2.11388582115
Mg   -6.34165746346    2.11388582115   -2.11388582115
Mg   -2.11388582115    6.34165746346   -2.11388582115
Mg   -2.11388582115   -6.34165746346   -2.11388582115
Mg   -6.34165746346   -2.11388582115   -2.11388582115
Mg   -6.34165746346    4.22777164231    0.00000000000
Mg   -4.22777164231    6.34165746346    0.00000000000
Mg   -4.22777164231   -6.34165746346    0.00000000000
Mg   -6.34165746346   -4.22777164231    0.00000000000
O    -6.34165746346    4.22777164231   -2.11388582115
O    -4.22777164231    6.34165746346   -2.11388582115
O    -4.22777164231   -6.34165746346   -2.11388582115
O    -6.34165746346   -4.22777164231   -2.11388582115
O    -8.45554328461    0.00000000000    0.00000000000
O     0.00000000000    8.45554328461    0.00000000000
O     0.00000000000   -8.45554328461    0.00000000000
Mg   -8.45554328461    2.11388582115    0.00000000000
Mg   -8.45554328461   -2.11388582115    0.00000000000
Mg   -8.45554328461    0.00000000000   -2.11388582115
O    -6.34165746346    6.34165746346    0.00000000000
O    -6.34165746346   -6.34165746346    0.00000000000
O    -8.45554328461    2.11388582115   -2.11388582115
O    -2.11388582115    8.45554328461   -2.11388582115
O    -2.11388582115   -8.45554328461   -2.11388582115
O    -8.45554328461   -2.11388582115   -2.11388582115
O    -8.45554328461    4.22777164231    0.00000000000
O    -4.22777164231    8.45554328461    0.00000000000
O    -4.22777164231   -8.45554328461    0.00000000000
O    -8.45554328461   -4.22777164231    0.00000000000
O   -10.56942910577    2.11388582115    0.00000000000
O   -10.56942910577   -2.11388582115    0.00000000000
O   -10.56942910577    0.00000000000   -2.11388582115

ghost=serialno
3-96

 
 
 Checking keyword combinations...
 
 Keywords:
 
 active=none
 agrid=ld0006-ld0590
 agrid_pssp=ld0006-ld0194
 agrid_pssp_sm=ld0006-ld0074
 basis=special
 basis_sm=special
 basopt=off
 bfbasis=none
 bfgsmem=10
 bfgstol=1.0d-3
 bpcompo=0.985
 bpcompv=0.98
 bpdfo=0.985
 bpocc=0.99995d0
 bppdo=0.999d0
 bppdv=0.98
 bpedo=0.99995d0
 bpedv=0.995d0
 calc=ccsd(t)
 ccmaxit=400
 ccprog=ccsd
 ccsdalg=dfdirect
 ccsdmkl=thr
 ccsdrest=off
 ccsdthreads=4
 cctol=5
 charge=0
 cialg=direct
 ciguess=off
 cmpgrp=auto
 comprest=off
 core=8
 corembed=off
 csapprox=off
 cvs=off
 dboc=off
 delocsomofact=
 dendec=cholesky
 dens=0
 dfalg=lineq
 dfbasis_cab=none
 dfbasis_cor=special
 dfbasis_scf=special
 dfbasis_scf_sm=special
 dfintran=drpa
 dft=off
 dhexc=adc(2)
 diag=david
 docc=
 domrad=10.d0
 drpaalg=auto
 dual=off
 dual_df=off
 ecp=special
 edisp=off
 edisp_embed=off
 embed=off
 etemp=300
 epert=none
 eps=
 espcharge=off
 excrad=1.0
 excrad_fin=0.100000000D-02
 fitting=coulomb
 fmm=off
 fmmord=8
 freq=off
 gamma=1.d0
 gauss=spher
 geom=xyz
 gopt=off
 ghost=serialno
 gtol=7
 grdens=off
 gridbatch_cos=2000
 grtol=10
 guido_ct=off
 hamilton=dc
 iface=none
 intalg=auto
 itol=10
 laptol=1.d-3
 lccoporder=lccfirst
 lcorthr=tight
 lccrest=off
 lmp2dens=on
 lnoepso=3e-6
 lnoepsv=3e-7
 boysalg=jacobi
 localcc=2021
 localcorrsymm=off
 locintrf=direct
 mact=
 maxact=off
 maxdim=100
 maxex=0
 maxmicroit=100
 mcscfiguess=hf
 mem=190gb
 mmprog=
 molden=on
 mpitasks=1
 mulmet=3
 mult=
 nacto=0
 nactv=0
 naf_amp=1.d-2
 naf_cor=1e-2
 naf_scf=off
 nafalg=albe
 naftyp=jpq
 nchol=auto
 ndeps=1e-3
 nstate=1
 nsing=0
 nto=off
 ntrip=0
 occ=
 occri=off
 oniom=off
 oniom_eechg=off
 oniom_pcm=off
 oniom_qcorr=off
 optalg=
 optmaxit=50
 optetol=1e-6
 optex=0
 optgtol=1e-4
 optstol=1e-3
 orblocc=off
 orbloce=off
 orbloco=boys
 orblocv=pao
 orblocguess=cholesky
 osveps=-1.d0
 ovirt=off
 ovltol=1e-7
 ovosnorb=80.0
 pcm=off
 popul=off
 pressure=100000
 pssp=off
 ptfreq=0.0
 ptthreads=4
 qro=off
 qscf=off
 qmmm=off
 redcost_exc=off
 redcost_tddft=0.985d0
 refdet=none
 rest=0
 rgrid=log3
 rism=off
 rohfcore=standard
 rohftype=semicanonical
 scfalg=locfit1
 scf_conv=difficult
 scfdamp=0.0d0
 scfdamp_mode=off
 scfdamp_end=1000
 scfdamp_dampstep=0.d0
 scfdamp_dtol=0.0d0
 scfdamp_maxfact=0.0d0
 scfdamp_minfact=0.0d0
 scfdiis=on
 scfdiis_dtol=0.0d0
 scfdiis_end=1000
 scfdiis_start=2
 scfdiis_step=1
 scfdiis_watch=off
 scfdiis_wrange=10
 scfdiis_wlimit=5
 scfdiis_delmax=2
 scfdtol=7
 scfext=10
 scfguessdens=
 scfiguess=small
 scfloc=pm
 scflshift=0.20
 scflshift_end=8
 scflshift_dtol=0.0
 scflshift_gaptol=0.20
 scfmaxit=1000
 scftype=rhf
 scftol=6
 scspe=1.d0
 scsph=1.d0
 scsps=1.2d0
 scsps_t=1.2d0
 scspt=0.33333333333333
 scspt_t=0.33333333333333
 scspv=1.d0
 spairtol=-1.d0
 sqmprog=
 subminp=top
 symm=0
 talg=lapl
 temp=298.15
 test=off
 theodore=off
 tlmo=0.999
 tpao=0.94
 tprint=off
 uncontract=off
 unit=angs
 usedisk=0
 verbosity=3
 wpairtol=3.d-6
 
 Calculating integrals for small-basis SCF...

 ************************ 2022-09-04 11:20:56 *************************
 Executing integ...

 Allocation of 190.0 Gbytes of memory...
 
 
 Number of atoms:                 96
 Charge:                           0
 Number of electrons:             38
 Number of core electrons:        16
 Spin multiplicity:                1
 
                 Cartesian coordinates [bohr]      Atomic mass [AMU]  Z
   1  Au   -1.56864662    0.00000001    4.63874258   196.966543      79
   2  Au   -6.42068447    0.00000001    4.63874258   196.966543      79
   3  O     0.00000000    0.00000000    0.00000000     0.000000       0
   4  Mg   -3.99466526    0.00000000    0.00000000     0.000000       0
   5  Mg    0.00000000    3.99466526    0.00000000     0.000000       0
   6  Mg    3.99466526    0.00000000    0.00000000     0.000000       0
   7  Mg    0.00000000   -3.99466526    0.00000000     0.000000       0
   8  Mg    0.00000000    0.00000000   -3.99466526     0.000000       0
   9  O    -3.99466526    3.99466526    0.00000000     0.000000       0
  10  O     3.99466526    3.99466526    0.00000000     0.000000       0
  11  O     3.99466526   -3.99466526    0.00000000     0.000000       0
  12  O    -3.99466526   -3.99466526    0.00000000     0.000000       0
  13  O    -3.99466526    0.00000000   -3.99466526     0.000000       0
  14  O     0.00000000    3.99466526   -3.99466526     0.000000       0
  15  O     3.99466526    0.00000000   -3.99466526     0.000000       0
  16  O     0.00000000   -3.99466526   -3.99466526     0.000000       0
  17  Mg   -3.99466526    3.99466526   -3.99466526     0.000000       0
  18  Mg    3.99466526    3.99466526   -3.99466526     0.000000       0
  19  Mg    3.99466526   -3.99466526   -3.99466526     0.000000       0
  20  Mg   -3.99466526   -3.99466526   -3.99466526     0.000000       0
  21  O    -7.98933052    0.00000000    0.00000000     0.000000       0
  22  O     0.00000000    7.98933052    0.00000000     0.000000       0
  23  O     7.98933052    0.00000000    0.00000000     0.000000       0
  24  O     0.00000000   -7.98933052    0.00000000     0.000000       0
  25  Mg   -7.98933052    3.99466526    0.00000000     0.000000       0
  26  Mg   -3.99466526    7.98933052    0.00000000     0.000000       0
  27  Mg    3.99466526    7.98933052    0.00000000     0.000000       0
  28  Mg    7.98933052    3.99466526    0.00000000     0.000000       0
  29  Mg    7.98933052   -3.99466526    0.00000000     0.000000       0
  30  Mg    3.99466526   -7.98933052    0.00000000     0.000000       0
  31  Mg   -3.99466526   -7.98933052    0.00000000     0.000000       0
  32  Mg   -7.98933052   -3.99466526    0.00000000     0.000000       0
  33  Mg   -7.98933052    0.00000000   -3.99466526     0.000000       0
  34  Mg    0.00000000    7.98933052   -3.99466526     0.000000       0
  35  Mg    7.98933052    0.00000000   -3.99466526     0.000000       0
  36  Mg    0.00000000   -7.98933052   -3.99466526     0.000000       0
  37  O    -7.98933052    3.99466526   -3.99466526     0.000000       0
  38  O    -3.99466526    7.98933052   -3.99466526     0.000000       0
  39  O     3.99466526    7.98933052   -3.99466526     0.000000       0
  40  O     7.98933052    3.99466526   -3.99466526     0.000000       0
  41  O     7.98933052   -3.99466526   -3.99466526     0.000000       0
  42  O     3.99466526   -7.98933052   -3.99466526     0.000000       0
  43  O    -3.99466526   -7.98933052   -3.99466526     0.000000       0
  44  O    -7.98933052   -3.99466526   -3.99466526     0.000000       0
  45  O    -7.98933052    7.98933052    0.00000000     0.000000       0
  46  O     7.98933052    7.98933052    0.00000000     0.000000       0
  47  O     7.98933052   -7.98933052    0.00000000     0.000000       0
  48  O    -7.98933052   -7.98933052    0.00000000     0.000000       0
  49  Mg  -11.98399579    0.00000000    0.00000000     0.000000       0
  50  Mg    0.00000000   11.98399579    0.00000000     0.000000       0
  51  Mg    0.00000000  -11.98399579    0.00000000     0.000000       0
  52  Mg   -7.98933052    7.98933052   -3.99466526     0.000000       0
  53  Mg   -7.98933052   -7.98933052   -3.99466526     0.000000       0
  54  O   -11.98399579    3.99466526    0.00000000     0.000000       0
  55  O    -3.99466526   11.98399579    0.00000000     0.000000       0
  56  O     3.99466526   11.98399579    0.00000000     0.000000       0
  57  O    11.98399579    3.99466526    0.00000000     0.000000       0
  58  O    11.98399579   -3.99466526    0.00000000     0.000000       0
  59  O     3.99466526  -11.98399579    0.00000000     0.000000       0
  60  O    -3.99466526  -11.98399579    0.00000000     0.000000       0
  61  O   -11.98399579   -3.99466526    0.00000000     0.000000       0
  62  O   -11.98399579    0.00000000   -3.99466526     0.000000       0
  63  O     0.00000000   11.98399579   -3.99466526     0.000000       0
  64  O    11.98399579    0.00000000   -3.99466526     0.000000       0
  65  O     0.00000000  -11.98399579   -3.99466526     0.000000       0
  66  Mg  -11.98399579    3.99466526   -3.99466526     0.000000       0
  67  Mg   -3.99466526   11.98399579   -3.99466526     0.000000       0
  68  Mg   -3.99466526  -11.98399579   -3.99466526     0.000000       0
  69  Mg  -11.98399579   -3.99466526   -3.99466526     0.000000       0
  70  Mg  -11.98399579    7.98933052    0.00000000     0.000000       0
  71  Mg   -7.98933052   11.98399579    0.00000000     0.000000       0
  72  Mg   -7.98933052  -11.98399579    0.00000000     0.000000       0
  73  Mg  -11.98399579   -7.98933052    0.00000000     0.000000       0
  74  O   -11.98399579    7.98933052   -3.99466526     0.000000       0
  75  O    -7.98933052   11.98399579   -3.99466526     0.000000       0
  76  O    -7.98933052  -11.98399579   -3.99466526     0.000000       0
  77  O   -11.98399579   -7.98933052   -3.99466526     0.000000       0
  78  O   -15.97866105    0.00000000    0.00000000     0.000000       0
  79  O     0.00000000   15.97866105    0.00000000     0.000000       0
  80  O     0.00000000  -15.97866105    0.00000000     0.000000       0
  81  Mg  -15.97866105    3.99466526    0.00000000     0.000000       0
  82  Mg  -15.97866105   -3.99466526    0.00000000     0.000000       0
  83  Mg  -15.97866105    0.00000000   -3.99466526     0.000000       0
  84  O   -11.98399579   11.98399579    0.00000000     0.000000       0
  85  O   -11.98399579  -11.98399579    0.00000000     0.000000       0
  86  O   -15.97866105    3.99466526   -3.99466526     0.000000       0
  87  O    -3.99466526   15.97866105   -3.99466526     0.000000       0
  88  O    -3.99466526  -15.97866105   -3.99466526     0.000000       0
  89  O   -15.97866105   -3.99466526   -3.99466526     0.000000       0
  90  O   -15.97866105    7.98933052    0.00000000     0.000000       0
  91  O    -7.98933052   15.97866105    0.00000000     0.000000       0
  92  O    -7.98933052  -15.97866105    0.00000000     0.000000       0
  93  O   -15.97866105   -7.98933052    0.00000000     0.000000       0
  94  O   -19.97332631    3.99466526    0.00000000     0.000000       0
  95  O   -19.97332631   -3.99466526    0.00000000     0.000000       0
  96  O   -19.97332631    0.00000000   -3.99466526     0.000000       0
 
 This molecule is an asymmetric top.
 
 Point group: Cs  
 Computational point group: C1  
 
 Cartesian coordinates in standard orientation [bohr]
   1  Au   -2.42601877    0.00000000    1.99986125
   2  Au    2.42601907    0.00000000    1.99986110
   3  O    -3.99466554   -0.00000001   -2.63888128
   4  Mg   -0.00000028   -0.00000001   -2.63888141
   5  Mg   -3.99466554    3.99466525   -2.63888129
   6  Mg   -7.98933080   -0.00000001   -2.63888116
   7  Mg   -3.99466554   -3.99466527   -2.63888128
   8  Mg   -3.99466566   -0.00000001   -6.63354655
   9  O    -0.00000028    3.99466525   -2.63888141
  10  O    -7.98933080    3.99466525   -2.63888117
  11  O    -7.98933080   -3.99466527   -2.63888116
  12  O    -0.00000028   -3.99466527   -2.63888140
  13  O    -0.00000040   -0.00000001   -6.63354667
  14  O    -3.99466566    3.99466525   -6.63354655
  15  O    -7.98933092   -0.00000001   -6.63354642
  16  O    -3.99466566   -3.99466528   -6.63354654
  17  Mg   -0.00000040    3.99466525   -6.63354667
  18  Mg   -7.98933092    3.99466525   -6.63354643
  19  Mg   -7.98933092   -3.99466528   -6.63354642
  20  Mg   -0.00000040   -3.99466528   -6.63354666
  21  O     3.99466499   -0.00000001   -2.63888153
  22  O    -3.99466554    7.98933052   -2.63888129
  23  O   -11.98399606   -0.00000001   -2.63888104
  24  O    -3.99466554   -7.98933053   -2.63888127
  25  Mg    3.99466499    3.99466525   -2.63888153
  26  Mg   -0.00000028    7.98933052   -2.63888142
  27  Mg   -7.98933080    7.98933052   -2.63888117
  28  Mg  -11.98399606    3.99466525   -2.63888105
  29  Mg  -11.98399606   -3.99466527   -2.63888104
  30  Mg   -7.98933080   -7.98933053   -2.63888115
  31  Mg   -0.00000028   -7.98933053   -2.63888140
  32  Mg    3.99466499   -3.99466527   -2.63888152
  33  Mg    3.99466486   -0.00000001   -6.63354679
  34  Mg   -3.99466566    7.98933051   -6.63354656
  35  Mg  -11.98399619   -0.00000001   -6.63354630
  36  Mg   -3.99466566   -7.98933054   -6.63354654
  37  O     3.99466486    3.99466525   -6.63354679
  38  O    -0.00000040    7.98933051   -6.63354668
  39  O    -7.98933092    7.98933051   -6.63354643
  40  O   -11.98399619    3.99466525   -6.63354631
  41  O   -11.98399619   -3.99466528   -6.63354630
  42  O    -7.98933092   -7.98933054   -6.63354642
  43  O    -0.00000040   -7.98933054   -6.63354666
  44  O     3.99466486   -3.99466528   -6.63354679
  45  O     3.99466499    7.98933052   -2.63888154
  46  O   -11.98399606    7.98933052   -2.63888105
  47  O   -11.98399606   -7.98933053   -2.63888103
  48  O     3.99466499   -7.98933053   -2.63888152
  49  Mg    7.98933025   -0.00000001   -2.63888165
  50  Mg   -3.99466554   11.98399578   -2.63888130
  51  Mg   -3.99466554  -11.98399580   -2.63888127
  52  Mg    3.99466486    7.98933051   -6.63354680
  53  Mg    3.99466486   -7.98933054   -6.63354678
  54  O     7.98933025    3.99466525   -2.63888165
  55  O    -0.00000028   11.98399578   -2.63888142
  56  O    -7.98933080   11.98399578   -2.63888118
  57  O   -15.97866133    3.99466525   -2.63888092
  58  O   -15.97866133   -3.99466527   -2.63888091
  59  O    -7.98933080  -11.98399580   -2.63888115
  60  O    -0.00000028  -11.98399580   -2.63888139
  61  O     7.98933025   -3.99466527   -2.63888164
  62  O     7.98933013   -0.00000001   -6.63354691
  63  O    -3.99466566   11.98399577   -6.63354656
  64  O   -15.97866145   -0.00000001   -6.63354618
  65  O    -3.99466566  -11.98399580   -6.63354653
  66  Mg    7.98933013    3.99466525   -6.63354692
  67  Mg   -0.00000040   11.98399577   -6.63354668
  68  Mg   -0.00000040  -11.98399580   -6.63354665
  69  Mg    7.98933013   -3.99466528   -6.63354691
  70  Mg    7.98933025    7.98933052   -2.63888166
  71  Mg    3.99466499   11.98399578   -2.63888154
  72  Mg    3.99466499  -11.98399580   -2.63888151
  73  Mg    7.98933025   -7.98933053   -2.63888164
  74  O     7.98933013    7.98933051   -6.63354692
  75  O     3.99466486   11.98399577   -6.63354680
  76  O     3.99466486  -11.98399580   -6.63354678
  77  O     7.98933013   -7.98933054   -6.63354690
  78  O    11.98399551   -0.00000001   -2.63888177
  79  O    -3.99466554   15.97866104   -2.63888130
  80  O    -3.99466554  -15.97866106   -2.63888127
  81  Mg   11.98399551    3.99466525   -2.63888178
  82  Mg   11.98399551   -3.99466527   -2.63888177
  83  Mg   11.98399539   -0.00000001   -6.63354703
  84  O     7.98933025   11.98399578   -2.63888166
  85  O     7.98933025  -11.98399580   -2.63888164
  86  O    11.98399539    3.99466525   -6.63354704
  87  O    -0.00000040   15.97866104   -6.63354669
  88  O    -0.00000040  -15.97866106   -6.63354665
  89  O    11.98399539   -3.99466528   -6.63354703
  90  O    11.98399551    7.98933052   -2.63888178
  91  O     3.99466499   15.97866104   -2.63888155
  92  O     3.99466499  -15.97866106   -2.63888151
  93  O    11.98399551   -7.98933053   -2.63888176
  94  O    15.97866077    3.99466525   -2.63888190
  95  O    15.97866077   -3.99466527   -2.63888189
  96  O    15.97866065   -0.00000001   -6.63354716
 
 Nuclear repulsion energy [au]:         74.401727995590
 
 
 Basis set information:
 
 Maximum angular momentum: i
 Maximum number of contracted Gaussians:   13
 Maximum number of primitive Gaussians:    16
 Spherical harmonic GTOs are used.
 
 
 Conventional basis set:
 
   1  Au def2-svp [ 7s 6p 5d 1f | 6s 3p 2d 1f ]
   2  Au def2-svp [ 7s 6p 5d 1f | 6s 3p 2d 1f ]
   3  O  def2-svp [ 7s 4p 1d | 3s 2p 1d ]
   4  Mg def2-svp [ 10s 7p 1d | 4s 3p 1d ]
   5  Mg def2-svp [ 10s 7p 1d | 4s 3p 1d ]
   6  Mg def2-svp [ 10s 7p 1d | 4s 3p 1d ]
   7  Mg def2-svp [ 10s 7p 1d | 4s 3p 1d ]
   8  Mg def2-svp [ 10s 7p 1d | 4s 3p 1d ]
   9  O  def2-svp [ 7s 4p 1d | 3s 2p 1d ]
  10  O  def2-svp [ 7s 4p 1d | 3s 2p 1d ]
  11  O  def2-svp [ 7s 4p 1d | 3s 2p 1d ]
  12  O  def2-svp [ 7s 4p 1d | 3s 2p 1d ]
  13  O  def2-svp [ 7s 4p 1d | 3s 2p 1d ]
  14  O  def2-svp [ 7s 4p 1d | 3s 2p 1d ]
  15  O  def2-svp [ 7s 4p 1d | 3s 2p 1d ]
  16  O  def2-svp [ 7s 4p 1d | 3s 2p 1d ]
  17  Mg def2-svp [ 10s 7p 1d | 4s 3p 1d ]
  18  Mg def2-svp [ 10s 7p 1d | 4s 3p 1d ]
  19  Mg def2-svp [ 10s 7p 1d | 4s 3p 1d ]
  20  Mg def2-svp [ 10s 7p 1d | 4s 3p 1d ]
  21  O  def2-svp [ 7s 4p 1d | 3s 2p 1d ]
  22  O  def2-svp [ 7s 4p 1d | 3s 2p 1d ]
  23  O  def2-svp [ 7s 4p 1d | 3s 2p 1d ]
  24  O  def2-svp [ 7s 4p 1d | 3s 2p 1d ]
  25  Mg def2-svp [ 10s 7p 1d | 4s 3p 1d ]
  26  Mg def2-svp [ 10s 7p 1d | 4s 3p 1d ]
  27  Mg def2-svp [ 10s 7p 1d | 4s 3p 1d ]
  28  Mg def2-svp [ 10s 7p 1d | 4s 3p 1d ]
  29  Mg def2-svp [ 10s 7p 1d | 4s 3p 1d ]
  30  Mg def2-svp [ 10s 7p 1d | 4s 3p 1d ]
  31  Mg def2-svp [ 10s 7p 1d | 4s 3p 1d ]
  32  Mg def2-svp [ 10s 7p 1d | 4s 3p 1d ]
  33  Mg def2-svp [ 10s 7p 1d | 4s 3p 1d ]
  34  Mg def2-svp [ 10s 7p 1d | 4s 3p 1d ]
  35  Mg def2-svp [ 10s 7p 1d | 4s 3p 1d ]
  36  Mg def2-svp [ 10s 7p 1d | 4s 3p 1d ]
  37  O  def2-svp [ 7s 4p 1d | 3s 2p 1d ]
  38  O  def2-svp [ 7s 4p 1d | 3s 2p 1d ]
  39  O  def2-svp [ 7s 4p 1d | 3s 2p 1d ]
  40  O  def2-svp [ 7s 4p 1d | 3s 2p 1d ]
  41  O  def2-svp [ 7s 4p 1d | 3s 2p 1d ]
  42  O  def2-svp [ 7s 4p 1d | 3s 2p 1d ]
  43  O  def2-svp [ 7s 4p 1d | 3s 2p 1d ]
  44  O  def2-svp [ 7s 4p 1d | 3s 2p 1d ]
  45  O  def2-svp [ 7s 4p 1d | 3s 2p 1d ]
  46  O  def2-svp [ 7s 4p 1d | 3s 2p 1d ]
  47  O  def2-svp [ 7s 4p 1d | 3s 2p 1d ]
  48  O  def2-svp [ 7s 4p 1d | 3s 2p 1d ]
  49  Mg def2-svp [ 10s 7p 1d | 4s 3p 1d ]
  50  Mg def2-svp [ 10s 7p 1d | 4s 3p 1d ]
  51  Mg def2-svp [ 10s 7p 1d | 4s 3p 1d ]
  52  Mg def2-svp [ 10s 7p 1d | 4s 3p 1d ]
  53  Mg def2-svp [ 10s 7p 1d | 4s 3p 1d ]
  54  O  def2-svp [ 7s 4p 1d | 3s 2p 1d ]
  55  O  def2-svp [ 7s 4p 1d | 3s 2p 1d ]
  56  O  def2-svp [ 7s 4p 1d | 3s 2p 1d ]
  57  O  def2-svp [ 7s 4p 1d | 3s 2p 1d ]
  58  O  def2-svp [ 7s 4p 1d | 3s 2p 1d ]
  59  O  def2-svp [ 7s 4p 1d | 3s 2p 1d ]
  60  O  def2-svp [ 7s 4p 1d | 3s 2p 1d ]
  61  O  def2-svp [ 7s 4p 1d | 3s 2p 1d ]
  62  O  def2-svp [ 7s 4p 1d | 3s 2p 1d ]
  63  O  def2-svp [ 7s 4p 1d | 3s 2p 1d ]
  64  O  def2-svp [ 7s 4p 1d | 3s 2p 1d ]
  65  O  def2-svp [ 7s 4p 1d | 3s 2p 1d ]
  66  Mg def2-svp [ 10s 7p 1d | 4s 3p 1d ]
  67  Mg def2-svp [ 10s 7p 1d | 4s 3p 1d ]
  68  Mg def2-svp [ 10s 7p 1d | 4s 3p 1d ]
  69  Mg def2-svp [ 10s 7p 1d | 4s 3p 1d ]
  70  Mg def2-svp [ 10s 7p 1d | 4s 3p 1d ]
  71  Mg def2-svp [ 10s 7p 1d | 4s 3p 1d ]
  72  Mg def2-svp [ 10s 7p 1d | 4s 3p 1d ]
  73  Mg def2-svp [ 10s 7p 1d | 4s 3p 1d ]
  74  O  def2-svp [ 7s 4p 1d | 3s 2p 1d ]
  75  O  def2-svp [ 7s 4p 1d | 3s 2p 1d ]
  76  O  def2-svp [ 7s 4p 1d | 3s 2p 1d ]
  77  O  def2-svp [ 7s 4p 1d | 3s 2p 1d ]
  78  O  def2-svp [ 7s 4p 1d | 3s 2p 1d ]
  79  O  def2-svp [ 7s 4p 1d | 3s 2p 1d ]
  80  O  def2-svp [ 7s 4p 1d | 3s 2p 1d ]
  81  Mg def2-svp [ 10s 7p 1d | 4s 3p 1d ]
  82  Mg def2-svp [ 10s 7p 1d | 4s 3p 1d ]
  83  Mg def2-svp [ 10s 7p 1d | 4s 3p 1d ]
  84  O  def2-svp [ 7s 4p 1d | 3s 2p 1d ]
  85  O  def2-svp [ 7s 4p 1d | 3s 2p 1d ]
  86  O  def2-svp [ 7s 4p 1d | 3s 2p 1d ]
  87  O  def2-svp [ 7s 4p 1d | 3s 2p 1d ]
  88  O  def2-svp [ 7s 4p 1d | 3s 2p 1d ]
  89  O  def2-svp [ 7s 4p 1d | 3s 2p 1d ]
  90  O  def2-svp [ 7s 4p 1d | 3s 2p 1d ]
  91  O  def2-svp [ 7s 4p 1d | 3s 2p 1d ]
  92  O  def2-svp [ 7s 4p 1d | 3s 2p 1d ]
  93  O  def2-svp [ 7s 4p 1d | 3s 2p 1d ]
  94  O  def2-svp [ 7s 4p 1d | 3s 2p 1d ]
  95  O  def2-svp [ 7s 4p 1d | 3s 2p 1d ]
  96  O  def2-svp [ 7s 4p 1d | 3s 2p 1d ]
 
 Basis functions:
            1             2             3             4             5             6             7             8             9            10
    0    1Au1s         1Au2s         1Au3s         1Au4s         1Au5s         1Au6s         1Au1pz        1Au1py        1Au1px        1Au2pz    
    1    1Au2py        1Au2px        1Au3pz        1Au3py        1Au3px        1Au1d-2       1Au1d-1       1Au1d0        1Au1d+1       1Au1d+2   
    2    1Au2d-2       1Au2d-1       1Au2d0        1Au2d+1       1Au2d+2       1Au1f-3       1Au1f-2       1Au1f-1       1Au1f0        1Au1f+1   
    3    1Au1f+2       1Au1f+3       2Au1s         2Au2s         2Au3s         2Au4s         2Au5s         2Au6s         2Au1pz        2Au1py    
    4    2Au1px        2Au2pz        2Au2py        2Au2px        2Au3pz        2Au3py        2Au3px        2Au1d-2       2Au1d-1       2Au1d0    
    5    2Au1d+1       2Au1d+2       2Au2d-2       2Au2d-1       2Au2d0        2Au2d+1       2Au2d+2       2Au1f-3       2Au1f-2       2Au1f-1   
    6    2Au1f0        2Au1f+1       2Au1f+2       2Au1f+3       3O1s          3O2s          3O3s          3O1pz         3O1py         3O1px     
    7    3O2pz         3O2py         3O2px         3O1d-2        3O1d-1        3O1d0         3O1d+1        3O1d+2        4Mg1s         4Mg2s     
    8    4Mg3s         4Mg4s         4Mg1pz        4Mg1py        4Mg1px        4Mg2pz        4Mg2py        4Mg2px        4Mg3pz        4Mg3py    
    9    4Mg3px        4Mg1d-2       4Mg1d-1       4Mg1d0        4Mg1d+1       4Mg1d+2       5Mg1s         5Mg2s         5Mg3s         5Mg4s     
   10    5Mg1pz        5Mg1py        5Mg1px        5Mg2pz        5Mg2py        5Mg2px        5Mg3pz        5Mg3py        5Mg3px        5Mg1d-2   
   11    5Mg1d-1       5Mg1d0        5Mg1d+1       5Mg1d+2       6Mg1s         6Mg2s         6Mg3s         6Mg4s         6Mg1pz        6Mg1py    
   12    6Mg1px        6Mg2pz        6Mg2py        6Mg2px        6Mg3pz        6Mg3py        6Mg3px        6Mg1d-2       6Mg1d-1       6Mg1d0    
   13    6Mg1d+1       6Mg1d+2       7Mg1s         7Mg2s         7Mg3s         7Mg4s         7Mg1pz        7Mg1py        7Mg1px        7Mg2pz    
   14    7Mg2py        7Mg2px        7Mg3pz        7Mg3py        7Mg3px        7Mg1d-2       7Mg1d-1       7Mg1d0        7Mg1d+1       7Mg1d+2   
   15    8Mg1s         8Mg2s         8Mg3s         8Mg4s         8Mg1pz        8Mg1py        8Mg1px        8Mg2pz        8Mg2py        8Mg2px    
   16    8Mg3pz        8Mg3py        8Mg3px        8Mg1d-2       8Mg1d-1       8Mg1d0        8Mg1d+1       8Mg1d+2       9O1s          9O2s      
   17    9O3s          9O1pz         9O1py         9O1px         9O2pz         9O2py         9O2px         9O1d-2        9O1d-1        9O1d0     
   18    9O1d+1        9O1d+2       10O1s         10O2s         10O3s         10O1pz        10O1py        10O1px        10O2pz        10O2py     
   19   10O2px        10O1d-2       10O1d-1       10O1d0        10O1d+1       10O1d+2       11O1s         11O2s         11O3s         11O1pz     
   20   11O1py        11O1px        11O2pz        11O2py        11O2px        11O1d-2       11O1d-1       11O1d0        11O1d+1       11O1d+2    
   21   12O1s         12O2s         12O3s         12O1pz        12O1py        12O1px        12O2pz        12O2py        12O2px        12O1d-2    
   22   12O1d-1       12O1d0        12O1d+1       12O1d+2       13O1s         13O2s         13O3s         13O1pz        13O1py        13O1px     
   23   13O2pz        13O2py        13O2px        13O1d-2       13O1d-1       13O1d0        13O1d+1       13O1d+2       14O1s         14O2s      
   24   14O3s         14O1pz        14O1py        14O1px        14O2pz        14O2py        14O2px        14O1d-2       14O1d-1       14O1d0     
   25   14O1d+1       14O1d+2       15O1s         15O2s         15O3s         15O1pz        15O1py        15O1px        15O2pz        15O2py     
   26   15O2px        15O1d-2       15O1d-1       15O1d0        15O1d+1       15O1d+2       16O1s         16O2s         16O3s         16O1pz     
   27   16O1py        16O1px        16O2pz        16O2py        16O2px        16O1d-2       16O1d-1       16O1d0        16O1d+1       16O1d+2    
   28   17Mg1s        17Mg2s        17Mg3s        17Mg4s        17Mg1pz       17Mg1py       17Mg1px       17Mg2pz       17Mg2py       17Mg2px    
   29   17Mg3pz       17Mg3py       17Mg3px       17Mg1d-2      17Mg1d-1      17Mg1d0       17Mg1d+1      17Mg1d+2      18Mg1s        18Mg2s     
   30   18Mg3s        18Mg4s        18Mg1pz       18Mg1py       18Mg1px       18Mg2pz       18Mg2py       18Mg2px       18Mg3pz       18Mg3py    
   31   18Mg3px       18Mg1d-2      18Mg1d-1      18Mg1d0       18Mg1d+1      18Mg1d+2      19Mg1s        19Mg2s        19Mg3s        19Mg4s     
   32   19Mg1pz       19Mg1py       19Mg1px       19Mg2pz       19Mg2py       19Mg2px       19Mg3pz       19Mg3py       19Mg3px       19Mg1d-2   
   33   19Mg1d-1      19Mg1d0       19Mg1d+1      19Mg1d+2      20Mg1s        20Mg2s        20Mg3s        20Mg4s        20Mg1pz       20Mg1py    
   34   20Mg1px       20Mg2pz       20Mg2py       20Mg2px       20Mg3pz       20Mg3py       20Mg3px       20Mg1d-2      20Mg1d-1      20Mg1d0    
   35   20Mg1d+1      20Mg1d+2      21O1s         21O2s         21O3s         21O1pz        21O1py        21O1px        21O2pz        21O2py     
   36   21O2px        21O1d-2       21O1d-1       21O1d0        21O1d+1       21O1d+2       22O1s         22O2s         22O3s         22O1pz     
   37   22O1py        22O1px        22O2pz        22O2py        22O2px        22O1d-2       22O1d-1       22O1d0        22O1d+1       22O1d+2    
   38   23O1s         23O2s         23O3s         23O1pz        23O1py        23O1px        23O2pz        23O2py        23O2px        23O1d-2    
   39   23O1d-1       23O1d0        23O1d+1       23O1d+2       24O1s         24O2s         24O3s         24O1pz        24O1py        24O1px     
   40   24O2pz        24O2py        24O2px        24O1d-2       24O1d-1       24O1d0        24O1d+1       24O1d+2       25Mg1s        25Mg2s     
   41   25Mg3s        25Mg4s        25Mg1pz       25Mg1py       25Mg1px       25Mg2pz       25Mg2py       25Mg2px       25Mg3pz       25Mg3py    
   42   25Mg3px       25Mg1d-2      25Mg1d-1      25Mg1d0       25Mg1d+1      25Mg1d+2      26Mg1s        26Mg2s        26Mg3s        26Mg4s     
   43   26Mg1pz       26Mg1py       26Mg1px       26Mg2pz       26Mg2py       26Mg2px       26Mg3pz       26Mg3py       26Mg3px       26Mg1d-2   
   44   26Mg1d-1      26Mg1d0       26Mg1d+1      26Mg1d+2      27Mg1s        27Mg2s        27Mg3s        27Mg4s        27Mg1pz       27Mg1py    
   45   27Mg1px       27Mg2pz       27Mg2py       27Mg2px       27Mg3pz       27Mg3py       27Mg3px       27Mg1d-2      27Mg1d-1      27Mg1d0    
   46   27Mg1d+1      27Mg1d+2      28Mg1s        28Mg2s        28Mg3s        28Mg4s        28Mg1pz       28Mg1py       28Mg1px       28Mg2pz    
   47   28Mg2py       28Mg2px       28Mg3pz       28Mg3py       28Mg3px       28Mg1d-2      28Mg1d-1      28Mg1d0       28Mg1d+1      28Mg1d+2   
   48   29Mg1s        29Mg2s        29Mg3s        29Mg4s        29Mg1pz       29Mg1py       29Mg1px       29Mg2pz       29Mg2py       29Mg2px    
   49   29Mg3pz       29Mg3py       29Mg3px       29Mg1d-2      29Mg1d-1      29Mg1d0       29Mg1d+1      29Mg1d+2      30Mg1s        30Mg2s     
   50   30Mg3s        30Mg4s        30Mg1pz       30Mg1py       30Mg1px       30Mg2pz       30Mg2py       30Mg2px       30Mg3pz       30Mg3py    
   51   30Mg3px       30Mg1d-2      30Mg1d-1      30Mg1d0       30Mg1d+1      30Mg1d+2      31Mg1s        31Mg2s        31Mg3s        31Mg4s     
   52   31Mg1pz       31Mg1py       31Mg1px       31Mg2pz       31Mg2py       31Mg2px       31Mg3pz       31Mg3py       31Mg3px       31Mg1d-2   
   53   31Mg1d-1      31Mg1d0       31Mg1d+1      31Mg1d+2      32Mg1s        32Mg2s        32Mg3s        32Mg4s        32Mg1pz       32Mg1py    
   54   32Mg1px       32Mg2pz       32Mg2py       32Mg2px       32Mg3pz       32Mg3py       32Mg3px       32Mg1d-2      32Mg1d-1      32Mg1d0    
   55   32Mg1d+1      32Mg1d+2      33Mg1s        33Mg2s        33Mg3s        33Mg4s        33Mg1pz       33Mg1py       33Mg1px       33Mg2pz    
   56   33Mg2py       33Mg2px       33Mg3pz       33Mg3py       33Mg3px       33Mg1d-2      33Mg1d-1      33Mg1d0       33Mg1d+1      33Mg1d+2   
   57   34Mg1s        34Mg2s        34Mg3s        34Mg4s        34Mg1pz       34Mg1py       34Mg1px       34Mg2pz       34Mg2py       34Mg2px    
   58   34Mg3pz       34Mg3py       34Mg3px       34Mg1d-2      34Mg1d-1      34Mg1d0       34Mg1d+1      34Mg1d+2      35Mg1s        35Mg2s     
   59   35Mg3s        35Mg4s        35Mg1pz       35Mg1py       35Mg1px       35Mg2pz       35Mg2py       35Mg2px       35Mg3pz       35Mg3py    
   60   35Mg3px       35Mg1d-2      35Mg1d-1      35Mg1d0       35Mg1d+1      35Mg1d+2      36Mg1s        36Mg2s        36Mg3s        36Mg4s     
   61   36Mg1pz       36Mg1py       36Mg1px       36Mg2pz       36Mg2py       36Mg2px       36Mg3pz       36Mg3py       36Mg3px       36Mg1d-2   
   62   36Mg1d-1      36Mg1d0       36Mg1d+1      36Mg1d+2      37O1s         37O2s         37O3s         37O1pz        37O1py        37O1px     
   63   37O2pz        37O2py        37O2px        37O1d-2       37O1d-1       37O1d0        37O1d+1       37O1d+2       38O1s         38O2s      
   64   38O3s         38O1pz        38O1py        38O1px        38O2pz        38O2py        38O2px        38O1d-2       38O1d-1       38O1d0     
   65   38O1d+1       38O1d+2       39O1s         39O2s         39O3s         39O1pz        39O1py        39O1px        39O2pz        39O2py     
   66   39O2px        39O1d-2       39O1d-1       39O1d0        39O1d+1       39O1d+2       40O1s         40O2s         40O3s         40O1pz     
   67   40O1py        40O1px        40O2pz        40O2py        40O2px        40O1d-2       40O1d-1       40O1d0        40O1d+1       40O1d+2    
   68   41O1s         41O2s         41O3s         41O1pz        41O1py        41O1px        41O2pz        41O2py        41O2px        41O1d-2    
   69   41O1d-1       41O1d0        41O1d+1       41O1d+2       42O1s         42O2s         42O3s         42O1pz        42O1py        42O1px     
   70   42O2pz        42O2py        42O2px        42O1d-2       42O1d-1       42O1d0        42O1d+1       42O1d+2       43O1s         43O2s      
   71   43O3s         43O1pz        43O1py        43O1px        43O2pz        43O2py        43O2px        43O1d-2       43O1d-1       43O1d0     
   72   43O1d+1       43O1d+2       44O1s         44O2s         44O3s         44O1pz        44O1py        44O1px        44O2pz        44O2py     
   73   44O2px        44O1d-2       44O1d-1       44O1d0        44O1d+1       44O1d+2       45O1s         45O2s         45O3s         45O1pz     
   74   45O1py        45O1px        45O2pz        45O2py        45O2px        45O1d-2       45O1d-1       45O1d0        45O1d+1       45O1d+2    
   75   46O1s         46O2s         46O3s         46O1pz        46O1py        46O1px        46O2pz        46O2py        46O2px        46O1d-2    
   76   46O1d-1       46O1d0        46O1d+1       46O1d+2       47O1s         47O2s         47O3s         47O1pz        47O1py        47O1px     
   77   47O2pz        47O2py        47O2px        47O1d-2       47O1d-1       47O1d0        47O1d+1       47O1d+2       48O1s         48O2s      
   78   48O3s         48O1pz        48O1py        48O1px        48O2pz        48O2py        48O2px        48O1d-2       48O1d-1       48O1d0     
   79   48O1d+1       48O1d+2       49Mg1s        49Mg2s        49Mg3s        49Mg4s        49Mg1pz       49Mg1py       49Mg1px       49Mg2pz    
   80   49Mg2py       49Mg2px       49Mg3pz       49Mg3py       49Mg3px       49Mg1d-2      49Mg1d-1      49Mg1d0       49Mg1d+1      49Mg1d+2   
   81   50Mg1s        50Mg2s        50Mg3s        50Mg4s        50Mg1pz       50Mg1py       50Mg1px       50Mg2pz       50Mg2py       50Mg2px    
   82   50Mg3pz       50Mg3py       50Mg3px       50Mg1d-2      50Mg1d-1      50Mg1d0       50Mg1d+1      50Mg1d+2      51Mg1s        51Mg2s     
   83   51Mg3s        51Mg4s        51Mg1pz       51Mg1py       51Mg1px       51Mg2pz       51Mg2py       51Mg2px       51Mg3pz       51Mg3py    
   84   51Mg3px       51Mg1d-2      51Mg1d-1      51Mg1d0       51Mg1d+1      51Mg1d+2      52Mg1s        52Mg2s        52Mg3s        52Mg4s     
   85   52Mg1pz       52Mg1py       52Mg1px       52Mg2pz       52Mg2py       52Mg2px       52Mg3pz       52Mg3py       52Mg3px       52Mg1d-2   
   86   52Mg1d-1      52Mg1d0       52Mg1d+1      52Mg1d+2      53Mg1s        53Mg2s        53Mg3s        53Mg4s        53Mg1pz       53Mg1py    
   87   53Mg1px       53Mg2pz       53Mg2py       53Mg2px       53Mg3pz       53Mg3py       53Mg3px       53Mg1d-2      53Mg1d-1      53Mg1d0    
   88   53Mg1d+1      53Mg1d+2      54O1s         54O2s         54O3s         54O1pz        54O1py        54O1px        54O2pz        54O2py     
   89   54O2px        54O1d-2       54O1d-1       54O1d0        54O1d+1       54O1d+2       55O1s         55O2s         55O3s         55O1pz     
   90   55O1py        55O1px        55O2pz        55O2py        55O2px        55O1d-2       55O1d-1       55O1d0        55O1d+1       55O1d+2    
   91   56O1s         56O2s         56O3s         56O1pz        56O1py        56O1px        56O2pz        56O2py        56O2px        56O1d-2    
   92   56O1d-1       56O1d0        56O1d+1       56O1d+2       57O1s         57O2s         57O3s         57O1pz        57O1py        57O1px     
   93   57O2pz        57O2py        57O2px        57O1d-2       57O1d-1       57O1d0        57O1d+1       57O1d+2       58O1s         58O2s      
   94   58O3s         58O1pz        58O1py        58O1px        58O2pz        58O2py        58O2px        58O1d-2       58O1d-1       58O1d0     
   95   58O1d+1       58O1d+2       59O1s         59O2s         59O3s         59O1pz        59O1py        59O1px        59O2pz        59O2py     
   96   59O2px        59O1d-2       59O1d-1       59O1d0        59O1d+1       59O1d+2       60O1s         60O2s         60O3s         60O1pz     
   97   60O1py        60O1px        60O2pz        60O2py        60O2px        60O1d-2       60O1d-1       60O1d0        60O1d+1       60O1d+2    
   98   61O1s         61O2s         61O3s         61O1pz        61O1py        61O1px        61O2pz        61O2py        61O2px        61O1d-2    
   99   61O1d-1       61O1d0        61O1d+1       61O1d+2       62O1s         62O2s         62O3s         62O1pz        62O1py        62O1px     
  100   62O2pz        62O2py        62O2px        62O1d-2       62O1d-1       62O1d0        62O1d+1       62O1d+2       63O1s         63O2s      
  101   63O3s         63O1pz        63O1py        63O1px        63O2pz        63O2py        63O2px        63O1d-2       63O1d-1       63O1d0     
  102   63O1d+1       63O1d+2       64O1s         64O2s         64O3s         64O1pz        64O1py        64O1px        64O2pz        64O2py     
  103   64O2px        64O1d-2       64O1d-1       64O1d0        64O1d+1       64O1d+2       65O1s         65O2s         65O3s         65O1pz     
  104   65O1py        65O1px        65O2pz        65O2py        65O2px        65O1d-2       65O1d-1       65O1d0        65O1d+1       65O1d+2    
  105   66Mg1s        66Mg2s        66Mg3s        66Mg4s        66Mg1pz       66Mg1py       66Mg1px       66Mg2pz       66Mg2py       66Mg2px    
  106   66Mg3pz       66Mg3py       66Mg3px       66Mg1d-2      66Mg1d-1      66Mg1d0       66Mg1d+1      66Mg1d+2      67Mg1s        67Mg2s     
  107   67Mg3s        67Mg4s        67Mg1pz       67Mg1py       67Mg1px       67Mg2pz       67Mg2py       67Mg2px       67Mg3pz       67Mg3py    
  108   67Mg3px       67Mg1d-2      67Mg1d-1      67Mg1d0       67Mg1d+1      67Mg1d+2      68Mg1s        68Mg2s        68Mg3s        68Mg4s     
  109   68Mg1pz       68Mg1py       68Mg1px       68Mg2pz       68Mg2py       68Mg2px       68Mg3pz       68Mg3py       68Mg3px       68Mg1d-2   
  110   68Mg1d-1      68Mg1d0       68Mg1d+1      68Mg1d+2      69Mg1s        69Mg2s        69Mg3s        69Mg4s        69Mg1pz       69Mg1py    
  111   69Mg1px       69Mg2pz       69Mg2py       69Mg2px       69Mg3pz       69Mg3py       69Mg3px       69Mg1d-2      69Mg1d-1      69Mg1d0    
  112   69Mg1d+1      69Mg1d+2      70Mg1s        70Mg2s        70Mg3s        70Mg4s        70Mg1pz       70Mg1py       70Mg1px       70Mg2pz    
  113   70Mg2py       70Mg2px       70Mg3pz       70Mg3py       70Mg3px       70Mg1d-2      70Mg1d-1      70Mg1d0       70Mg1d+1      70Mg1d+2   
  114   71Mg1s        71Mg2s        71Mg3s        71Mg4s        71Mg1pz       71Mg1py       71Mg1px       71Mg2pz       71Mg2py       71Mg2px    
  115   71Mg3pz       71Mg3py       71Mg3px       71Mg1d-2      71Mg1d-1      71Mg1d0       71Mg1d+1      71Mg1d+2      72Mg1s        72Mg2s     
  116   72Mg3s        72Mg4s        72Mg1pz       72Mg1py       72Mg1px       72Mg2pz       72Mg2py       72Mg2px       72Mg3pz       72Mg3py    
  117   72Mg3px       72Mg1d-2      72Mg1d-1      72Mg1d0       72Mg1d+1      72Mg1d+2      73Mg1s        73Mg2s        73Mg3s        73Mg4s     
  118   73Mg1pz       73Mg1py       73Mg1px       73Mg2pz       73Mg2py       73Mg2px       73Mg3pz       73Mg3py       73Mg3px       73Mg1d-2   
  119   73Mg1d-1      73Mg1d0       73Mg1d+1      73Mg1d+2      74O1s         74O2s         74O3s         74O1pz        74O1py        74O1px     
  120   74O2pz        74O2py        74O2px        74O1d-2       74O1d-1       74O1d0        74O1d+1       74O1d+2       75O1s         75O2s      
  121   75O3s         75O1pz        75O1py        75O1px        75O2pz        75O2py        75O2px        75O1d-2       75O1d-1       75O1d0     
  122   75O1d+1       75O1d+2       76O1s         76O2s         76O3s         76O1pz        76O1py        76O1px        76O2pz        76O2py     
  123   76O2px        76O1d-2       76O1d-1       76O1d0        76O1d+1       76O1d+2       77O1s         77O2s         77O3s         77O1pz     
  124   77O1py        77O1px        77O2pz        77O2py        77O2px        77O1d-2       77O1d-1       77O1d0        77O1d+1       77O1d+2    
  125   78O1s         78O2s         78O3s         78O1pz        78O1py        78O1px        78O2pz        78O2py        78O2px        78O1d-2    
  126   78O1d-1       78O1d0        78O1d+1       78O1d+2       79O1s         79O2s         79O3s         79O1pz        79O1py        79O1px     
  127   79O2pz        79O2py        79O2px        79O1d-2       79O1d-1       79O1d0        79O1d+1       79O1d+2       80O1s         80O2s      
  128   80O3s         80O1pz        80O1py        80O1px        80O2pz        80O2py        80O2px        80O1d-2       80O1d-1       80O1d0     
  129   80O1d+1       80O1d+2       81Mg1s        81Mg2s        81Mg3s        81Mg4s        81Mg1pz       81Mg1py       81Mg1px       81Mg2pz    
  130   81Mg2py       81Mg2px       81Mg3pz       81Mg3py       81Mg3px       81Mg1d-2      81Mg1d-1      81Mg1d0       81Mg1d+1      81Mg1d+2   
  131   82Mg1s        82Mg2s        82Mg3s        82Mg4s        82Mg1pz       82Mg1py       82Mg1px       82Mg2pz       82Mg2py       82Mg2px    
  132   82Mg3pz       82Mg3py       82Mg3px       82Mg1d-2      82Mg1d-1      82Mg1d0       82Mg1d+1      82Mg1d+2      83Mg1s        83Mg2s     
  133   83Mg3s        83Mg4s        83Mg1pz       83Mg1py       83Mg1px       83Mg2pz       83Mg2py       83Mg2px       83Mg3pz       83Mg3py    
  134   83Mg3px       83Mg1d-2      83Mg1d-1      83Mg1d0       83Mg1d+1      83Mg1d+2      84O1s         84O2s         84O3s         84O1pz     
  135   84O1py        84O1px        84O2pz        84O2py        84O2px        84O1d-2       84O1d-1       84O1d0        84O1d+1       84O1d+2    
  136   85O1s         85O2s         85O3s         85O1pz        85O1py        85O1px        85O2pz        85O2py        85O2px        85O1d-2    
  137   85O1d-1       85O1d0        85O1d+1       85O1d+2       86O1s         86O2s         86O3s         86O1pz        86O1py        86O1px     
  138   86O2pz        86O2py        86O2px        86O1d-2       86O1d-1       86O1d0        86O1d+1       86O1d+2       87O1s         87O2s      
  139   87O3s         87O1pz        87O1py        87O1px        87O2pz        87O2py        87O2px        87O1d-2       87O1d-1       87O1d0     
  140   87O1d+1       87O1d+2       88O1s         88O2s         88O3s         88O1pz        88O1py        88O1px        88O2pz        88O2py     
  141   88O2px        88O1d-2       88O1d-1       88O1d0        88O1d+1       88O1d+2       89O1s         89O2s         89O3s         89O1pz     
  142   89O1py        89O1px        89O2pz        89O2py        89O2px        89O1d-2       89O1d-1       89O1d0        89O1d+1       89O1d+2    
  143   90O1s         90O2s         90O3s         90O1pz        90O1py        90O1px        90O2pz        90O2py        90O2px        90O1d-2    
  144   90O1d-1       90O1d0        90O1d+1       90O1d+2       91O1s         91O2s         91O3s         91O1pz        91O1py        91O1px     
  145   91O2pz        91O2py        91O2px        91O1d-2       91O1d-1       91O1d0        91O1d+1       91O1d+2       92O1s         92O2s      
  146   92O3s         92O1pz        92O1py        92O1px        92O2pz        92O2py        92O2px        92O1d-2       92O1d-1       92O1d0     
  147   92O1d+1       92O1d+2       93O1s         93O2s         93O3s         93O1pz        93O1py        93O1px        93O2pz        93O2py     
  148   93O2px        93O1d-2       93O1d-1       93O1d0        93O1d+1       93O1d+2       94O1s         94O2s         94O3s         94O1pz     
  149   94O1py        94O1px        94O2pz        94O2py        94O2px        94O1d-2       94O1d-1       94O1d0        94O1d+1       94O1d+2    
  150   95O1s         95O2s         95O3s         95O1pz        95O1py        95O1px        95O2pz        95O2py        95O2px        95O1d-2    
  151   95O1d-1       95O1d0        95O1d+1       95O1d+2       96O1s         96O2s         96O3s         96O1pz        96O1py        96O1px     
  152   96O2pz        96O2py        96O2px        96O1d-2       96O1d-1       96O1d0        96O1d+1       96O1d+2    
 
 Maximum number of basis functions per shell:   10
 Total number of basis functions:   1528
 
 
 Fitting basis set for the SCF calculation:
 
   1  Au def2-qzvpp-ri-jk [ 13s 12p 11d 9f 5g 3h 2i | 13s 11p 10d 8f 4g 3h 2i ]
   2  Au def2-qzvpp-ri-jk [ 13s 12p 11d 9f 5g 3h 2i | 13s 11p 10d 8f 4g 3h 2i ]
   3  O  def2-qzvpp-ri-jk [ 14s 10p 6d 2f 1g | 10s 8p 4d 2f 1g ]
   4  Mg def2-qzvpp-ri-jk [ 16s 12p 9d 4f 1g | 13s 9p 7d 4f 1g ]
   5  Mg def2-qzvpp-ri-jk [ 16s 12p 9d 4f 1g | 13s 9p 7d 4f 1g ]
   6  Mg def2-qzvpp-ri-jk [ 16s 12p 9d 4f 1g | 13s 9p 7d 4f 1g ]
   7  Mg def2-qzvpp-ri-jk [ 16s 12p 9d 4f 1g | 13s 9p 7d 4f 1g ]
   8  Mg def2-qzvpp-ri-jk [ 16s 12p 9d 4f 1g | 13s 9p 7d 4f 1g ]
   9  O  def2-qzvpp-ri-jk [ 14s 10p 6d 2f 1g | 10s 8p 4d 2f 1g ]
  10  O  def2-qzvpp-ri-jk [ 14s 10p 6d 2f 1g | 10s 8p 4d 2f 1g ]
  11  O  def2-qzvpp-ri-jk [ 14s 10p 6d 2f 1g | 10s 8p 4d 2f 1g ]
  12  O  def2-qzvpp-ri-jk [ 14s 10p 6d 2f 1g | 10s 8p 4d 2f 1g ]
  13  O  def2-qzvpp-ri-jk [ 14s 10p 6d 2f 1g | 10s 8p 4d 2f 1g ]
  14  O  def2-qzvpp-ri-jk [ 14s 10p 6d 2f 1g | 10s 8p 4d 2f 1g ]
  15  O  def2-qzvpp-ri-jk [ 14s 10p 6d 2f 1g | 10s 8p 4d 2f 1g ]
  16  O  def2-qzvpp-ri-jk [ 14s 10p 6d 2f 1g | 10s 8p 4d 2f 1g ]
  17  Mg def2-qzvpp-ri-jk [ 16s 12p 9d 4f 1g | 13s 9p 7d 4f 1g ]
  18  Mg def2-qzvpp-ri-jk [ 16s 12p 9d 4f 1g | 13s 9p 7d 4f 1g ]
  19  Mg def2-qzvpp-ri-jk [ 16s 12p 9d 4f 1g | 13s 9p 7d 4f 1g ]
  20  Mg def2-qzvpp-ri-jk [ 16s 12p 9d 4f 1g | 13s 9p 7d 4f 1g ]
  21  O  def2-qzvpp-ri-jk [ 14s 10p 6d 2f 1g | 10s 8p 4d 2f 1g ]
  22  O  def2-qzvpp-ri-jk [ 14s 10p 6d 2f 1g | 10s 8p 4d 2f 1g ]
  23  O  def2-qzvpp-ri-jk [ 14s 10p 6d 2f 1g | 10s 8p 4d 2f 1g ]
  24  O  def2-qzvpp-ri-jk [ 14s 10p 6d 2f 1g | 10s 8p 4d 2f 1g ]
  25  Mg def2-qzvpp-ri-jk [ 16s 12p 9d 4f 1g | 13s 9p 7d 4f 1g ]
  26  Mg def2-qzvpp-ri-jk [ 16s 12p 9d 4f 1g | 13s 9p 7d 4f 1g ]
  27  Mg def2-qzvpp-ri-jk [ 16s 12p 9d 4f 1g | 13s 9p 7d 4f 1g ]
  28  Mg def2-qzvpp-ri-jk [ 16s 12p 9d 4f 1g | 13s 9p 7d 4f 1g ]
  29  Mg def2-qzvpp-ri-jk [ 16s 12p 9d 4f 1g | 13s 9p 7d 4f 1g ]
  30  Mg def2-qzvpp-ri-jk [ 16s 12p 9d 4f 1g | 13s 9p 7d 4f 1g ]
  31  Mg def2-qzvpp-ri-jk [ 16s 12p 9d 4f 1g | 13s 9p 7d 4f 1g ]
  32  Mg def2-qzvpp-ri-jk [ 16s 12p 9d 4f 1g | 13s 9p 7d 4f 1g ]
  33  Mg def2-qzvpp-ri-jk [ 16s 12p 9d 4f 1g | 13s 9p 7d 4f 1g ]
  34  Mg def2-qzvpp-ri-jk [ 16s 12p 9d 4f 1g | 13s 9p 7d 4f 1g ]
  35  Mg def2-qzvpp-ri-jk [ 16s 12p 9d 4f 1g | 13s 9p 7d 4f 1g ]
  36  Mg def2-qzvpp-ri-jk [ 16s 12p 9d 4f 1g | 13s 9p 7d 4f 1g ]
  37  O  def2-qzvpp-ri-jk [ 14s 10p 6d 2f 1g | 10s 8p 4d 2f 1g ]
  38  O  def2-qzvpp-ri-jk [ 14s 10p 6d 2f 1g | 10s 8p 4d 2f 1g ]
  39  O  def2-qzvpp-ri-jk [ 14s 10p 6d 2f 1g | 10s 8p 4d 2f 1g ]
  40  O  def2-qzvpp-ri-jk [ 14s 10p 6d 2f 1g | 10s 8p 4d 2f 1g ]
  41  O  def2-qzvpp-ri-jk [ 14s 10p 6d 2f 1g | 10s 8p 4d 2f 1g ]
  42  O  def2-qzvpp-ri-jk [ 14s 10p 6d 2f 1g | 10s 8p 4d 2f 1g ]
  43  O  def2-qzvpp-ri-jk [ 14s 10p 6d 2f 1g | 10s 8p 4d 2f 1g ]
  44  O  def2-qzvpp-ri-jk [ 14s 10p 6d 2f 1g | 10s 8p 4d 2f 1g ]
  45  O  def2-qzvpp-ri-jk [ 14s 10p 6d 2f 1g | 10s 8p 4d 2f 1g ]
  46  O  def2-qzvpp-ri-jk [ 14s 10p 6d 2f 1g | 10s 8p 4d 2f 1g ]
  47  O  def2-qzvpp-ri-jk [ 14s 10p 6d 2f 1g | 10s 8p 4d 2f 1g ]
  48  O  def2-qzvpp-ri-jk [ 14s 10p 6d 2f 1g | 10s 8p 4d 2f 1g ]
  49  Mg def2-qzvpp-ri-jk [ 16s 12p 9d 4f 1g | 13s 9p 7d 4f 1g ]
  50  Mg def2-qzvpp-ri-jk [ 16s 12p 9d 4f 1g | 13s 9p 7d 4f 1g ]
  51  Mg def2-qzvpp-ri-jk [ 16s 12p 9d 4f 1g | 13s 9p 7d 4f 1g ]
  52  Mg def2-qzvpp-ri-jk [ 16s 12p 9d 4f 1g | 13s 9p 7d 4f 1g ]
  53  Mg def2-qzvpp-ri-jk [ 16s 12p 9d 4f 1g | 13s 9p 7d 4f 1g ]
  54  O  def2-qzvpp-ri-jk [ 14s 10p 6d 2f 1g | 10s 8p 4d 2f 1g ]
  55  O  def2-qzvpp-ri-jk [ 14s 10p 6d 2f 1g | 10s 8p 4d 2f 1g ]
  56  O  def2-qzvpp-ri-jk [ 14s 10p 6d 2f 1g | 10s 8p 4d 2f 1g ]
  57  O  def2-qzvpp-ri-jk [ 14s 10p 6d 2f 1g | 10s 8p 4d 2f 1g ]
  58  O  def2-qzvpp-ri-jk [ 14s 10p 6d 2f 1g | 10s 8p 4d 2f 1g ]
  59  O  def2-qzvpp-ri-jk [ 14s 10p 6d 2f 1g | 10s 8p 4d 2f 1g ]
  60  O  def2-qzvpp-ri-jk [ 14s 10p 6d 2f 1g | 10s 8p 4d 2f 1g ]
  61  O  def2-qzvpp-ri-jk [ 14s 10p 6d 2f 1g | 10s 8p 4d 2f 1g ]
  62  O  def2-qzvpp-ri-jk [ 14s 10p 6d 2f 1g | 10s 8p 4d 2f 1g ]
  63  O  def2-qzvpp-ri-jk [ 14s 10p 6d 2f 1g | 10s 8p 4d 2f 1g ]
  64  O  def2-qzvpp-ri-jk [ 14s 10p 6d 2f 1g | 10s 8p 4d 2f 1g ]
  65  O  def2-qzvpp-ri-jk [ 14s 10p 6d 2f 1g | 10s 8p 4d 2f 1g ]
  66  Mg def2-qzvpp-ri-jk [ 16s 12p 9d 4f 1g | 13s 9p 7d 4f 1g ]
  67  Mg def2-qzvpp-ri-jk [ 16s 12p 9d 4f 1g | 13s 9p 7d 4f 1g ]
  68  Mg def2-qzvpp-ri-jk [ 16s 12p 9d 4f 1g | 13s 9p 7d 4f 1g ]
  69  Mg def2-qzvpp-ri-jk [ 16s 12p 9d 4f 1g | 13s 9p 7d 4f 1g ]
  70  Mg def2-qzvpp-ri-jk [ 16s 12p 9d 4f 1g | 13s 9p 7d 4f 1g ]
  71  Mg def2-qzvpp-ri-jk [ 16s 12p 9d 4f 1g | 13s 9p 7d 4f 1g ]
  72  Mg def2-qzvpp-ri-jk [ 16s 12p 9d 4f 1g | 13s 9p 7d 4f 1g ]
  73  Mg def2-qzvpp-ri-jk [ 16s 12p 9d 4f 1g | 13s 9p 7d 4f 1g ]
  74  O  def2-qzvpp-ri-jk [ 14s 10p 6d 2f 1g | 10s 8p 4d 2f 1g ]
  75  O  def2-qzvpp-ri-jk [ 14s 10p 6d 2f 1g | 10s 8p 4d 2f 1g ]
  76  O  def2-qzvpp-ri-jk [ 14s 10p 6d 2f 1g | 10s 8p 4d 2f 1g ]
  77  O  def2-qzvpp-ri-jk [ 14s 10p 6d 2f 1g | 10s 8p 4d 2f 1g ]
  78  O  def2-qzvpp-ri-jk [ 14s 10p 6d 2f 1g | 10s 8p 4d 2f 1g ]
  79  O  def2-qzvpp-ri-jk [ 14s 10p 6d 2f 1g | 10s 8p 4d 2f 1g ]
  80  O  def2-qzvpp-ri-jk [ 14s 10p 6d 2f 1g | 10s 8p 4d 2f 1g ]
  81  Mg def2-qzvpp-ri-jk [ 16s 12p 9d 4f 1g | 13s 9p 7d 4f 1g ]
  82  Mg def2-qzvpp-ri-jk [ 16s 12p 9d 4f 1g | 13s 9p 7d 4f 1g ]
  83  Mg def2-qzvpp-ri-jk [ 16s 12p 9d 4f 1g | 13s 9p 7d 4f 1g ]
  84  O  def2-qzvpp-ri-jk [ 14s 10p 6d 2f 1g | 10s 8p 4d 2f 1g ]
  85  O  def2-qzvpp-ri-jk [ 14s 10p 6d 2f 1g | 10s 8p 4d 2f 1g ]
  86  O  def2-qzvpp-ri-jk [ 14s 10p 6d 2f 1g | 10s 8p 4d 2f 1g ]
  87  O  def2-qzvpp-ri-jk [ 14s 10p 6d 2f 1g | 10s 8p 4d 2f 1g ]
  88  O  def2-qzvpp-ri-jk [ 14s 10p 6d 2f 1g | 10s 8p 4d 2f 1g ]
  89  O  def2-qzvpp-ri-jk [ 14s 10p 6d 2f 1g | 10s 8p 4d 2f 1g ]
  90  O  def2-qzvpp-ri-jk [ 14s 10p 6d 2f 1g | 10s 8p 4d 2f 1g ]
  91  O  def2-qzvpp-ri-jk [ 14s 10p 6d 2f 1g | 10s 8p 4d 2f 1g ]
  92  O  def2-qzvpp-ri-jk [ 14s 10p 6d 2f 1g | 10s 8p 4d 2f 1g ]
  93  O  def2-qzvpp-ri-jk [ 14s 10p 6d 2f 1g | 10s 8p 4d 2f 1g ]
  94  O  def2-qzvpp-ri-jk [ 14s 10p 6d 2f 1g | 10s 8p 4d 2f 1g ]
  95  O  def2-qzvpp-ri-jk [ 14s 10p 6d 2f 1g | 10s 8p 4d 2f 1g ]
  96  O  def2-qzvpp-ri-jk [ 14s 10p 6d 2f 1g | 10s 8p 4d 2f 1g ]
 
 Basis functions:
            1             2             3             4             5             6             7             8             9            10
    0    1Au1s         1Au2s         1Au3s         1Au4s         1Au5s         1Au6s         1Au7s         1Au8s         1Au9s         1Au10s    
    1    1Au11s        1Au12s        1Au13s        1Au1pz        1Au1py        1Au1px        1Au2pz        1Au2py        1Au2px        1Au3pz    
    2    1Au3py        1Au3px        1Au4pz        1Au4py        1Au4px        1Au5pz        1Au5py        1Au5px        1Au6pz        1Au6py    
    3    1Au6px        1Au7pz        1Au7py        1Au7px        1Au8pz        1Au8py        1Au8px        1Au9pz        1Au9py        1Au9px    
    4    1Au10pz       1Au10py       1Au10px       1Au11pz       1Au11py       1Au11px       1Au1d-2       1Au1d-1       1Au1d0        1Au1d+1   
    5    1Au1d+2       1Au2d-2       1Au2d-1       1Au2d0        1Au2d+1       1Au2d+2       1Au3d-2       1Au3d-1       1Au3d0        1Au3d+1   
    6    1Au3d+2       1Au4d-2       1Au4d-1       1Au4d0        1Au4d+1       1Au4d+2       1Au5d-2       1Au5d-1       1Au5d0        1Au5d+1   
    7    1Au5d+2       1Au6d-2       1Au6d-1       1Au6d0        1Au6d+1       1Au6d+2       1Au7d-2       1Au7d-1       1Au7d0        1Au7d+1   
    8    1Au7d+2       1Au8d-2       1Au8d-1       1Au8d0        1Au8d+1       1Au8d+2       1Au9d-2       1Au9d-1       1Au9d0        1Au9d+1   
    9    1Au9d+2       1Au10d-2      1Au10d-1      1Au10d0       1Au10d+1      1Au10d+2      1Au1f-3       1Au1f-2       1Au1f-1       1Au1f0    
   10    1Au1f+1       1Au1f+2       1Au1f+3       1Au2f-3       1Au2f-2       1Au2f-1       1Au2f0        1Au2f+1       1Au2f+2       1Au2f+3   
   11    1Au3f-3       1Au3f-2       1Au3f-1       1Au3f0        1Au3f+1       1Au3f+2       1Au3f+3       1Au4f-3       1Au4f-2       1Au4f-1   
   12    1Au4f0        1Au4f+1       1Au4f+2       1Au4f+3       1Au5f-3       1Au5f-2       1Au5f-1       1Au5f0        1Au5f+1       1Au5f+2   
   13    1Au5f+3       1Au6f-3       1Au6f-2       1Au6f-1       1Au6f0        1Au6f+1       1Au6f+2       1Au6f+3       1Au7f-3       1Au7f-2   
   14    1Au7f-1       1Au7f0        1Au7f+1       1Au7f+2       1Au7f+3       1Au8f-3       1Au8f-2       1Au8f-1       1Au8f0        1Au8f+1   
   15    1Au8f+2       1Au8f+3       1Au1g-4       1Au1g-3       1Au1g-2       1Au1g-1       1Au1g0        1Au1g+1       1Au1g+2       1Au1g+3   
   16    1Au1g+4       1Au2g-4       1Au2g-3       1Au2g-2       1Au2g-1       1Au2g0        1Au2g+1       1Au2g+2       1Au2g+3       1Au2g+4   
   17    1Au3g-4       1Au3g-3       1Au3g-2       1Au3g-1       1Au3g0        1Au3g+1       1Au3g+2       1Au3g+3       1Au3g+4       1Au4g-4   
   18    1Au4g-3       1Au4g-2       1Au4g-1       1Au4g0        1Au4g+1       1Au4g+2       1Au4g+3       1Au4g+4       1Au1h-5       1Au1h-4   
   19    1Au1h-3       1Au1h-2       1Au1h-1       1Au1h0        1Au1h+1       1Au1h+2       1Au1h+3       1Au1h+4       1Au1h+5       1Au2h-5   
   20    1Au2h-4       1Au2h-3       1Au2h-2       1Au2h-1       1Au2h0        1Au2h+1       1Au2h+2       1Au2h+3       1Au2h+4       1Au2h+5   
   21    1Au3h-5       1Au3h-4       1Au3h-3       1Au3h-2       1Au3h-1       1Au3h0        1Au3h+1       1Au3h+2       1Au3h+3       1Au3h+4   
   22    1Au3h+5       1Au1i-6       1Au1i-5       1Au1i-4       1Au1i-3       1Au1i-2       1Au1i-1       1Au1i0        1Au1i+1       1Au1i+2   
   23    1Au1i+3       1Au1i+4       1Au1i+5       1Au1i+6       1Au2i-6       1Au2i-5       1Au2i-4       1Au2i-3       1Au2i-2       1Au2i-1   
   24    1Au2i0        1Au2i+1       1Au2i+2       1Au2i+3       1Au2i+4       1Au2i+5       1Au2i+6       2Au1s         2Au2s         2Au3s     
   25    2Au4s         2Au5s         2Au6s         2Au7s         2Au8s         2Au9s         2Au10s        2Au11s        2Au12s        2Au13s    
   26    2Au1pz        2Au1py        2Au1px        2Au2pz        2Au2py        2Au2px        2Au3pz        2Au3py        2Au3px        2Au4pz    
   27    2Au4py        2Au4px        2Au5pz        2Au5py        2Au5px        2Au6pz        2Au6py        2Au6px        2Au7pz        2Au7py    
   28    2Au7px        2Au8pz        2Au8py        2Au8px        2Au9pz        2Au9py        2Au9px        2Au10pz       2Au10py       2Au10px   
   29    2Au11pz       2Au11py       2Au11px       2Au1d-2       2Au1d-1       2Au1d0        2Au1d+1       2Au1d+2       2Au2d-2       2Au2d-1   
   30    2Au2d0        2Au2d+1       2Au2d+2       2Au3d-2       2Au3d-1       2Au3d0        2Au3d+1       2Au3d+2       2Au4d-2       2Au4d-1   
   31    2Au4d0        2Au4d+1       2Au4d+2       2Au5d-2       2Au5d-1       2Au5d0        2Au5d+1       2Au5d+2       2Au6d-2       2Au6d-1   
   32    2Au6d0        2Au6d+1       2Au6d+2       2Au7d-2       2Au7d-1       2Au7d0        2Au7d+1       2Au7d+2       2Au8d-2       2Au8d-1   
   33    2Au8d0        2Au8d+1       2Au8d+2       2Au9d-2       2Au9d-1       2Au9d0        2Au9d+1       2Au9d+2       2Au10d-2      2Au10d-1  
   34    2Au10d0       2Au10d+1      2Au10d+2      2Au1f-3       2Au1f-2       2Au1f-1       2Au1f0        2Au1f+1       2Au1f+2       2Au1f+3   
   35    2Au2f-3       2Au2f-2       2Au2f-1       2Au2f0        2Au2f+1       2Au2f+2       2Au2f+3       2Au3f-3       2Au3f-2       2Au3f-1   
   36    2Au3f0        2Au3f+1       2Au3f+2       2Au3f+3       2Au4f-3       2Au4f-2       2Au4f-1       2Au4f0        2Au4f+1       2Au4f+2   
   37    2Au4f+3       2Au5f-3       2Au5f-2       2Au5f-1       2Au5f0        2Au5f+1       2Au5f+2       2Au5f+3       2Au6f-3       2Au6f-2   
   38    2Au6f-1       2Au6f0        2Au6f+1       2Au6f+2       2Au6f+3       2Au7f-3       2Au7f-2       2Au7f-1       2Au7f0        2Au7f+1   
   39    2Au7f+2       2Au7f+3       2Au8f-3       2Au8f-2       2Au8f-1       2Au8f0        2Au8f+1       2Au8f+2       2Au8f+3       2Au1g-4   
   40    2Au1g-3       2Au1g-2       2Au1g-1       2Au1g0        2Au1g+1       2Au1g+2       2Au1g+3       2Au1g+4       2Au2g-4       2Au2g-3   
   41    2Au2g-2       2Au2g-1       2Au2g0        2Au2g+1       2Au2g+2       2Au2g+3       2Au2g+4       2Au3g-4       2Au3g-3       2Au3g-2   
   42    2Au3g-1       2Au3g0        2Au3g+1       2Au3g+2       2Au3g+3       2Au3g+4       2Au4g-4       2Au4g-3       2Au4g-2       2Au4g-1   
   43    2Au4g0        2Au4g+1       2Au4g+2       2Au4g+3       2Au4g+4       2Au1h-5       2Au1h-4       2Au1h-3       2Au1h-2       2Au1h-1   
   44    2Au1h0        2Au1h+1       2Au1h+2       2Au1h+3       2Au1h+4       2Au1h+5       2Au2h-5       2Au2h-4       2Au2h-3       2Au2h-2   
   45    2Au2h-1       2Au2h0        2Au2h+1       2Au2h+2       2Au2h+3       2Au2h+4       2Au2h+5       2Au3h-5       2Au3h-4       2Au3h-3   
   46    2Au3h-2       2Au3h-1       2Au3h0        2Au3h+1       2Au3h+2       2Au3h+3       2Au3h+4       2Au3h+5       2Au1i-6       2Au1i-5   
   47    2Au1i-4       2Au1i-3       2Au1i-2       2Au1i-1       2Au1i0        2Au1i+1       2Au1i+2       2Au1i+3       2Au1i+4       2Au1i+5   
   48    2Au1i+6       2Au2i-6       2Au2i-5       2Au2i-4       2Au2i-3       2Au2i-2       2Au2i-1       2Au2i0        2Au2i+1       2Au2i+2   
   49    2Au2i+3       2Au2i+4       2Au2i+5       2Au2i+6       3O1s          3O2s          3O3s          3O4s          3O5s          3O6s      
   50    3O7s          3O8s          3O9s          3O10s         3O1pz         3O1py         3O1px         3O2pz         3O2py         3O2px     
   51    3O3pz         3O3py         3O3px         3O4pz         3O4py         3O4px         3O5pz         3O5py         3O5px         3O6pz     
   52    3O6py         3O6px         3O7pz         3O7py         3O7px         3O8pz         3O8py         3O8px         3O1d-2        3O1d-1    
   53    3O1d0         3O1d+1        3O1d+2        3O2d-2        3O2d-1        3O2d0         3O2d+1        3O2d+2        3O3d-2        3O3d-1    
   54    3O3d0         3O3d+1        3O3d+2        3O4d-2        3O4d-1        3O4d0         3O4d+1        3O4d+2        3O1f-3        3O1f-2    
   55    3O1f-1        3O1f0         3O1f+1        3O1f+2        3O1f+3        3O2f-3        3O2f-2        3O2f-1        3O2f0         3O2f+1    
   56    3O2f+2        3O2f+3        3O1g-4        3O1g-3        3O1g-2        3O1g-1        3O1g0         3O1g+1        3O1g+2        3O1g+3    
   57    3O1g+4        4Mg1s         4Mg2s         4Mg3s         4Mg4s         4Mg5s         4Mg6s         4Mg7s         4Mg8s         4Mg9s     
   58    4Mg10s        4Mg11s        4Mg12s        4Mg13s        4Mg1pz        4Mg1py        4Mg1px        4Mg2pz        4Mg2py        4Mg2px    
   59    4Mg3pz        4Mg3py        4Mg3px        4Mg4pz        4Mg4py        4Mg4px        4Mg5pz        4Mg5py        4Mg5px        4Mg6pz    
   60    4Mg6py        4Mg6px        4Mg7pz        4Mg7py        4Mg7px        4Mg8pz        4Mg8py        4Mg8px        4Mg9pz        4Mg9py    
   61    4Mg9px        4Mg1d-2       4Mg1d-1       4Mg1d0        4Mg1d+1       4Mg1d+2       4Mg2d-2       4Mg2d-1       4Mg2d0        4Mg2d+1   
   62    4Mg2d+2       4Mg3d-2       4Mg3d-1       4Mg3d0        4Mg3d+1       4Mg3d+2       4Mg4d-2       4Mg4d-1       4Mg4d0        4Mg4d+1   
   63    4Mg4d+2       4Mg5d-2       4Mg5d-1       4Mg5d0        4Mg5d+1       4Mg5d+2       4Mg6d-2       4Mg6d-1       4Mg6d0        4Mg6d+1   
   64    4Mg6d+2       4Mg7d-2       4Mg7d-1       4Mg7d0        4Mg7d+1       4Mg7d+2       4Mg1f-3       4Mg1f-2       4Mg1f-1       4Mg1f0    
   65    4Mg1f+1       4Mg1f+2       4Mg1f+3       4Mg2f-3       4Mg2f-2       4Mg2f-1       4Mg2f0        4Mg2f+1       4Mg2f+2       4Mg2f+3   
   66    4Mg3f-3       4Mg3f-2       4Mg3f-1       4Mg3f0        4Mg3f+1       4Mg3f+2       4Mg3f+3       4Mg4f-3       4Mg4f-2       4Mg4f-1   
   67    4Mg4f0        4Mg4f+1       4Mg4f+2       4Mg4f+3       4Mg1g-4       4Mg1g-3       4Mg1g-2       4Mg1g-1       4Mg1g0        4Mg1g+1   
   68    4Mg1g+2       4Mg1g+3       4Mg1g+4       5Mg1s         5Mg2s         5Mg3s         5Mg4s         5Mg5s         5Mg6s         5Mg7s     
   69    5Mg8s         5Mg9s         5Mg10s        5Mg11s        5Mg12s        5Mg13s        5Mg1pz        5Mg1py        5Mg1px        5Mg2pz    
   70    5Mg2py        5Mg2px        5Mg3pz        5Mg3py        5Mg3px        5Mg4pz        5Mg4py        5Mg4px        5Mg5pz        5Mg5py    
   71    5Mg5px        5Mg6pz        5Mg6py        5Mg6px        5Mg7pz        5Mg7py        5Mg7px        5Mg8pz        5Mg8py        5Mg8px    
   72    5Mg9pz        5Mg9py        5Mg9px        5Mg1d-2       5Mg1d-1       5Mg1d0        5Mg1d+1       5Mg1d+2       5Mg2d-2       5Mg2d-1   
   73    5Mg2d0        5Mg2d+1       5Mg2d+2       5Mg3d-2       5Mg3d-1       5Mg3d0        5Mg3d+1       5Mg3d+2       5Mg4d-2       5Mg4d-1   
   74    5Mg4d0        5Mg4d+1       5Mg4d+2       5Mg5d-2       5Mg5d-1       5Mg5d0        5Mg5d+1       5Mg5d+2       5Mg6d-2       5Mg6d-1   
   75    5Mg6d0        5Mg6d+1       5Mg6d+2       5Mg7d-2       5Mg7d-1       5Mg7d0        5Mg7d+1       5Mg7d+2       5Mg1f-3       5Mg1f-2   
   76    5Mg1f-1       5Mg1f0        5Mg1f+1       5Mg1f+2       5Mg1f+3       5Mg2f-3       5Mg2f-2       5Mg2f-1       5Mg2f0        5Mg2f+1   
   77    5Mg2f+2       5Mg2f+3       5Mg3f-3       5Mg3f-2       5Mg3f-1       5Mg3f0        5Mg3f+1       5Mg3f+2       5Mg3f+3       5Mg4f-3   
   78    5Mg4f-2       5Mg4f-1       5Mg4f0        5Mg4f+1       5Mg4f+2       5Mg4f+3       5Mg1g-4       5Mg1g-3       5Mg1g-2       5Mg1g-1   
   79    5Mg1g0        5Mg1g+1       5Mg1g+2       5Mg1g+3       5Mg1g+4       6Mg1s         6Mg2s         6Mg3s         6Mg4s         6Mg5s     
   80    6Mg6s         6Mg7s         6Mg8s         6Mg9s         6Mg10s        6Mg11s        6Mg12s        6Mg13s        6Mg1pz        6Mg1py    
   81    6Mg1px        6Mg2pz        6Mg2py        6Mg2px        6Mg3pz        6Mg3py        6Mg3px        6Mg4pz        6Mg4py        6Mg4px    
   82    6Mg5pz        6Mg5py        6Mg5px        6Mg6pz        6Mg6py        6Mg6px        6Mg7pz        6Mg7py        6Mg7px        6Mg8pz    
   83    6Mg8py        6Mg8px        6Mg9pz        6Mg9py        6Mg9px        6Mg1d-2       6Mg1d-1       6Mg1d0        6Mg1d+1       6Mg1d+2   
   84    6Mg2d-2       6Mg2d-1       6Mg2d0        6Mg2d+1       6Mg2d+2       6Mg3d-2       6Mg3d-1       6Mg3d0        6Mg3d+1       6Mg3d+2   
   85    6Mg4d-2       6Mg4d-1       6Mg4d0        6Mg4d+1       6Mg4d+2       6Mg5d-2       6Mg5d-1       6Mg5d0        6Mg5d+1       6Mg5d+2   
   86    6Mg6d-2       6Mg6d-1       6Mg6d0        6Mg6d+1       6Mg6d+2       6Mg7d-2       6Mg7d-1       6Mg7d0        6Mg7d+1       6Mg7d+2   
   87    6Mg1f-3       6Mg1f-2       6Mg1f-1       6Mg1f0        6Mg1f+1       6Mg1f+2       6Mg1f+3       6Mg2f-3       6Mg2f-2       6Mg2f-1   
   88    6Mg2f0        6Mg2f+1       6Mg2f+2       6Mg2f+3       6Mg3f-3       6Mg3f-2       6Mg3f-1       6Mg3f0        6Mg3f+1       6Mg3f+2   
   89    6Mg3f+3       6Mg4f-3       6Mg4f-2       6Mg4f-1       6Mg4f0        6Mg4f+1       6Mg4f+2       6Mg4f+3       6Mg1g-4       6Mg1g-3   
   90    6Mg1g-2       6Mg1g-1       6Mg1g0        6Mg1g+1       6Mg1g+2       6Mg1g+3       6Mg1g+4       7Mg1s         7Mg2s         7Mg3s     
   91    7Mg4s         7Mg5s         7Mg6s         7Mg7s         7Mg8s         7Mg9s         7Mg10s        7Mg11s        7Mg12s        7Mg13s    
   92    7Mg1pz        7Mg1py        7Mg1px        7Mg2pz        7Mg2py        7Mg2px        7Mg3pz        7Mg3py        7Mg3px        7Mg4pz    
   93    7Mg4py        7Mg4px        7Mg5pz        7Mg5py        7Mg5px        7Mg6pz        7Mg6py        7Mg6px        7Mg7pz        7Mg7py    
   94    7Mg7px        7Mg8pz        7Mg8py        7Mg8px        7Mg9pz        7Mg9py        7Mg9px        7Mg1d-2       7Mg1d-1       7Mg1d0    
   95    7Mg1d+1       7Mg1d+2       7Mg2d-2       7Mg2d-1       7Mg2d0        7Mg2d+1       7Mg2d+2       7Mg3d-2       7Mg3d-1       7Mg3d0    
   96    7Mg3d+1       7Mg3d+2       7Mg4d-2       7Mg4d-1       7Mg4d0        7Mg4d+1       7Mg4d+2       7Mg5d-2       7Mg5d-1       7Mg5d0    
   97    7Mg5d+1       7Mg5d+2       7Mg6d-2       7Mg6d-1       7Mg6d0        7Mg6d+1       7Mg6d+2       7Mg7d-2       7Mg7d-1       7Mg7d0    
   98    7Mg7d+1       7Mg7d+2       7Mg1f-3       7Mg1f-2       7Mg1f-1       7Mg1f0        7Mg1f+1       7Mg1f+2       7Mg1f+3       7Mg2f-3   
   99    7Mg2f-2       7Mg2f-1       7Mg2f0        7Mg2f+1       7Mg2f+2       7Mg2f+3       7Mg3f-3       7Mg3f-2       7Mg3f-1       7Mg3f0    
  100    7Mg3f+1       7Mg3f+2       7Mg3f+3       7Mg4f-3       7Mg4f-2       7Mg4f-1       7Mg4f0        7Mg4f+1       7Mg4f+2       7Mg4f+3   
  101    7Mg1g-4       7Mg1g-3       7Mg1g-2       7Mg1g-1       7Mg1g0        7Mg1g+1       7Mg1g+2       7Mg1g+3       7Mg1g+4       8Mg1s     
  102    8Mg2s         8Mg3s         8Mg4s         8Mg5s         8Mg6s         8Mg7s         8Mg8s         8Mg9s         8Mg10s        8Mg11s    
  103    8Mg12s        8Mg13s        8Mg1pz        8Mg1py        8Mg1px        8Mg2pz        8Mg2py        8Mg2px        8Mg3pz        8Mg3py    
  104    8Mg3px        8Mg4pz        8Mg4py        8Mg4px        8Mg5pz        8Mg5py        8Mg5px        8Mg6pz        8Mg6py        8Mg6px    
  105    8Mg7pz        8Mg7py        8Mg7px        8Mg8pz        8Mg8py        8Mg8px        8Mg9pz        8Mg9py        8Mg9px        8Mg1d-2   
  106    8Mg1d-1       8Mg1d0        8Mg1d+1       8Mg1d+2       8Mg2d-2       8Mg2d-1       8Mg2d0        8Mg2d+1       8Mg2d+2       8Mg3d-2   
  107    8Mg3d-1       8Mg3d0        8Mg3d+1       8Mg3d+2       8Mg4d-2       8Mg4d-1       8Mg4d0        8Mg4d+1       8Mg4d+2       8Mg5d-2   
  108    8Mg5d-1       8Mg5d0        8Mg5d+1       8Mg5d+2       8Mg6d-2       8Mg6d-1       8Mg6d0        8Mg6d+1       8Mg6d+2       8Mg7d-2   
  109    8Mg7d-1       8Mg7d0        8Mg7d+1       8Mg7d+2       8Mg1f-3       8Mg1f-2       8Mg1f-1       8Mg1f0        8Mg1f+1       8Mg1f+2   
  110    8Mg1f+3       8Mg2f-3       8Mg2f-2       8Mg2f-1       8Mg2f0        8Mg2f+1       8Mg2f+2       8Mg2f+3       8Mg3f-3       8Mg3f-2   
  111    8Mg3f-1       8Mg3f0        8Mg3f+1       8Mg3f+2       8Mg3f+3       8Mg4f-3       8Mg4f-2       8Mg4f-1       8Mg4f0        8Mg4f+1   
  112    8Mg4f+2       8Mg4f+3       8Mg1g-4       8Mg1g-3       8Mg1g-2       8Mg1g-1       8Mg1g0        8Mg1g+1       8Mg1g+2       8Mg1g+3   
  113    8Mg1g+4       9O1s          9O2s          9O3s          9O4s          9O5s          9O6s          9O7s          9O8s          9O9s      
  114    9O10s         9O1pz         9O1py         9O1px         9O2pz         9O2py         9O2px         9O3pz         9O3py         9O3px     
  115    9O4pz         9O4py         9O4px         9O5pz         9O5py         9O5px         9O6pz         9O6py         9O6px         9O7pz     
  116    9O7py         9O7px         9O8pz         9O8py         9O8px         9O1d-2        9O1d-1        9O1d0         9O1d+1        9O1d+2    
  117    9O2d-2        9O2d-1        9O2d0         9O2d+1        9O2d+2        9O3d-2        9O3d-1        9O3d0         9O3d+1        9O3d+2    
  118    9O4d-2        9O4d-1        9O4d0         9O4d+1        9O4d+2        9O1f-3        9O1f-2        9O1f-1        9O1f0         9O1f+1    
  119    9O1f+2        9O1f+3        9O2f-3        9O2f-2        9O2f-1        9O2f0         9O2f+1        9O2f+2        9O2f+3        9O1g-4    
  120    9O1g-3        9O1g-2        9O1g-1        9O1g0         9O1g+1        9O1g+2        9O1g+3        9O1g+4       10O1s         10O2s      
  121   10O3s         10O4s         10O5s         10O6s         10O7s         10O8s         10O9s         10O10s        10O1pz        10O1py     
  122   10O1px        10O2pz        10O2py        10O2px        10O3pz        10O3py        10O3px        10O4pz        10O4py        10O4px     
  123   10O5pz        10O5py        10O5px        10O6pz        10O6py        10O6px        10O7pz        10O7py        10O7px        10O8pz     
  124   10O8py        10O8px        10O1d-2       10O1d-1       10O1d0        10O1d+1       10O1d+2       10O2d-2       10O2d-1       10O2d0     
  125   10O2d+1       10O2d+2       10O3d-2       10O3d-1       10O3d0        10O3d+1       10O3d+2       10O4d-2       10O4d-1       10O4d0     
  126   10O4d+1       10O4d+2       10O1f-3       10O1f-2       10O1f-1       10O1f0        10O1f+1       10O1f+2       10O1f+3       10O2f-3    
  127   10O2f-2       10O2f-1       10O2f0        10O2f+1       10O2f+2       10O2f+3       10O1g-4       10O1g-3       10O1g-2       10O1g-1    
  128   10O1g0        10O1g+1       10O1g+2       10O1g+3       10O1g+4       11O1s         11O2s         11O3s         11O4s         11O5s      
  129   11O6s         11O7s         11O8s         11O9s         11O10s        11O1pz        11O1py        11O1px        11O2pz        11O2py     
  130   11O2px        11O3pz        11O3py        11O3px        11O4pz        11O4py        11O4px        11O5pz        11O5py        11O5px     
  131   11O6pz        11O6py        11O6px        11O7pz        11O7py        11O7px        11O8pz        11O8py        11O8px        11O1d-2    
[...]
 
 Calculation of (T) correction...
 
 Laplace threshold, nquadmin:  1.00E-03   4
 Number of quadrature points:    4
 
      178.70 MB memory is utilized for (T)

 0%       25%       50%       75%       100%
 |---------|---------|---------|---------| 
 
 (T) correction [au]:                   -0.002028847816
 CCSD(T) correlation energy [au]:       -0.059655104995
 
 CPU time [min]:   200.916                   Wall time [min]:    12.112
 
 MO:     7
 Number of atoms in domain:      58
 Number of atomic orbitals:    1241
 Number of atoms for local DF:   58
 Number of fitting functions:  4552 (100.00%)
 Number of occupied orbitals:    11
 Number of virtual  orbitals:  1222
 Number of Cholesky vectors:      9
 MP2 energy in ED [au]:          -0.062956279870
 Number of occupied LNOs:        11 (100.00%)
 Number of virtual  LNOs:        70   (5.73%)
 tol*100>norm                    22  4.458341368181032E-004
 tol*100>norm                    76  4.458341655008099E-004
 Number of Cholesky vectors:      6
 MP2 energy in LIS [au]:         -0.062923178415
 Correction for frozen LNO [au]: -0.000033101454     (0.053%)
 Number of NAFs:                249   (5.47%)
 CPU time [min]:   231.564                   Wall time [min]:    13.964
 

 Direct DF-CCSD(T) calculation
 
 Convergence criterion:  1.0E-05
 
 Number of occupied/virtual/auxiliary orbitals:    11    70   249
    164.74 MB is the minimal memory requirement for (T)
    137.19 MB is the minimal memory requirement for CCSD
 
 MP2 correlation energy [au]:       -0.633000137407
 
 LMP2 domain correlation energy contribution [au]:       -0.062933941462
 
 CPU time [min]:   231.636                   Wall time [min]:    13.968
 
 
 Starting CCSD iterations...
 
                     Residual norm       Correlation Energy
 Iteration  1        0.183962197370       -0.562909622757
 Iteration  2        0.057288870117       -0.582232357676
 Iteration  3        0.017669007718       -0.585534889554
 Iteration  4        0.007175654367       -0.584655373220
 Iteration  5        0.003869076931       -0.584577869330
 Iteration  6        0.002028120239       -0.584821673016
 Iteration  7        0.000986465542       -0.584822120618
 Iteration  8        0.000349199641       -0.584788132162
 Iteration  9        0.000149118150       -0.584791807953
 Iteration 10        0.000049509989       -0.584793463312
 
 CCSD iteration has converged in 10 steps.
      225.28 MB memory was utilized by CCSD
 
 T1 diagnostic:      2.141E-02            D1 diagnostic:      6.644E-02
 
 T1 contribution [au]:                         0.000000000000
 CCSD correlation energy [au]:                -0.057643907227
 
 CPU time [min]:   232.329                   Wall time [min]:    14.005
 
 Calculation of (T) correction...
 
 Laplace threshold, nquadmin:  1.00E-03   4
 Number of quadrature points:    4
 
      181.87 MB memory is utilized for (T)

 0%       25%       50%       75%       100%
 |---------|---------|---------|---------| 
 
 (T) correction [au]:                   -0.002031455464
 CCSD(T) correlation energy [au]:       -0.059675362691
 
 CPU time [min]:   232.570                   Wall time [min]:    14.019
 
 MO:     8
 Number of atoms in domain:      58
 Number of atomic orbitals:    1241
 Number of atoms for local DF:   58
 Number of fitting functions:  4552 (100.00%)
 Number of occupied orbitals:    11
 Number of virtual  orbitals:  1222
 Number of Cholesky vectors:      9
 MP2 energy in ED [au]:          -0.062989714382
 Number of occupied LNOs:        11 (100.00%)
 Number of virtual  LNOs:        71   (5.81%)
 tol*100>norm                    22  4.458341368181038E-004
 tol*100>norm                    76  4.458341655008096E-004
 Number of Cholesky vectors:      6
 MP2 energy in LIS [au]:         -0.062957291818
 Correction for frozen LNO [au]: -0.000032422564     (0.051%)
 Number of NAFs:                250   (5.49%)
 CPU time [min]:   262.781                   Wall time [min]:    15.854
 

 Direct DF-CCSD(T) calculation
 
 Convergence criterion:  1.0E-05
 
 Number of occupied/virtual/auxiliary orbitals:    11    71   250
    166.96 MB is the minimal memory requirement for (T)
    138.09 MB is the minimal memory requirement for CCSD
 
 MP2 correlation energy [au]:       -0.634163191211
 
 LMP2 domain correlation energy contribution [au]:       -0.062968735373
 
 CPU time [min]:   262.819                   Wall time [min]:    15.856
 
 
 Starting CCSD iterations...
 
                     Residual norm       Correlation Energy
 Iteration  1        0.184195164143       -0.563835117952
 Iteration  2        0.057367859636       -0.583227046674
 Iteration  3        0.017771927499       -0.586528523165
 Iteration  4        0.007293030058       -0.585648614595
 Iteration  5        0.003958287960       -0.585570956341
 Iteration  6        0.002062488721       -0.585822584617
 Iteration  7        0.000990919915       -0.585824203308
 Iteration  8        0.000348482858       -0.585789626540
 Iteration  9        0.000148374844       -0.585793155479
 Iteration 10        0.000048359783       -0.585794710114
 
 CCSD iteration has converged in 10 steps.
      231.52 MB memory was utilized by CCSD
 
 T1 diagnostic:      2.160E-02            D1 diagnostic:      6.661E-02
 
 T1 contribution [au]:                         0.000000000000
 CCSD correlation energy [au]:                -0.057670105304
 
 CPU time [min]:   263.391                   Wall time [min]:    15.887
 
 Calculation of (T) correction...
 
 Laplace threshold, nquadmin:  1.00E-03   4
 Number of quadrature points:    4
 
      184.89 MB memory is utilized for (T)

 0%       25%       50%       75%       100%
 |---------|---------|---------|---------| 
 
 (T) correction [au]:                   -0.002038103232
 CCSD(T) correlation energy [au]:       -0.059708208536
 
 CPU time [min]:   263.659                   Wall time [min]:    15.902
 
 MO:     9
 Number of atoms in domain:      58
 Number of atomic orbitals:    1241
 Number of atoms for local DF:   58
 Number of fitting functions:  4552 (100.00%)
 Number of occupied orbitals:    11
 Number of virtual  orbitals:  1222
 Number of Cholesky vectors:      9
 MP2 energy in ED [au]:          -0.062989713520
 Number of occupied LNOs:        11 (100.00%)
 Number of virtual  LNOs:        71   (5.81%)
 tol*100>norm                    22  4.458341368181039E-004
 tol*100>norm                    76  4.458341655008090E-004
 Number of Cholesky vectors:      6
 MP2 energy in LIS [au]:         -0.062957291003
 Correction for frozen LNO [au]: -0.000032422516     (0.051%)
 Number of NAFs:                250   (5.49%)
 CPU time [min]:   293.843                   Wall time [min]:    17.730
 

 Direct DF-CCSD(T) calculation
 
 Convergence criterion:  1.0E-05
 
 Number of occupied/virtual/auxiliary orbitals:    11    71   250
    166.96 MB is the minimal memory requirement for (T)
    138.09 MB is the minimal memory requirement for CCSD
 
 MP2 correlation energy [au]:       -0.634163724927
 
 LMP2 domain correlation energy contribution [au]:       -0.062968733019
 
 CPU time [min]:   293.880                   Wall time [min]:    17.732
 
 
 Starting CCSD iterations...
 
                     Residual norm       Correlation Energy
 Iteration  1        0.184195192493       -0.563835555508
 Iteration  2        0.057367901409       -0.583227502936
 Iteration  3        0.017771930426       -0.586528986405
 Iteration  4        0.007293021796       -0.585649074808
 Iteration  5        0.003958282311       -0.585571415234
 Iteration  6        0.002062489472       -0.585823044722
 Iteration  7        0.000990920137       -0.585824663623
 Iteration  8        0.000348483035       -0.585790086449
 Iteration  9        0.000148374786       -0.585793615464
 Iteration 10        0.000048359858       -0.585795170100
 
 CCSD iteration has converged in 10 steps.
      231.52 MB memory was utilized by CCSD
 
 T1 diagnostic:      2.160E-02            D1 diagnostic:      6.661E-02
 
 T1 contribution [au]:                         0.000000000000
 CCSD correlation energy [au]:                -0.057670102949
 
 CPU time [min]:   294.455                   Wall time [min]:    17.763
 
 Calculation of (T) correction...
 
 Laplace threshold, nquadmin:  1.00E-03   4
 Number of quadrature points:    4
 
      184.89 MB memory is utilized for (T)

 0%       25%       50%       75%       100%
 |---------|---------|---------|---------| 
 
 (T) correction [au]:                   -0.002038103630
 CCSD(T) correlation energy [au]:       -0.059708206579
 
 CPU time [min]:   294.730                   Wall time [min]:    17.779
 
 MO:    10
 Number of atoms in domain:      58
 Number of atomic orbitals:    1241
 Number of atoms for local DF:   58
 Number of fitting functions:  4552 (100.00%)
 Number of occupied orbitals:    11
 Number of virtual  orbitals:  1222
 Number of Cholesky vectors:      9
 MP2 energy in ED [au]:          -0.062937601805
 Number of occupied LNOs:        11 (100.00%)
 Number of virtual  LNOs:        69   (5.65%)
 tol*100>norm                    22  4.458341368181034E-004
 tol*100>norm                    76  4.458341655008093E-004
 Number of Cholesky vectors:      6
 MP2 energy in LIS [au]:         -0.062903287619
 Correction for frozen LNO [au]: -0.000034314186     (0.055%)
 Number of NAFs:                245   (5.38%)
 CPU time [min]:   324.169                   Wall time [min]:    19.576
 

 Direct DF-CCSD(T) calculation
 
 Convergence criterion:  1.0E-05
 
 Number of occupied/virtual/auxiliary orbitals:    11    69   245
    162.23 MB is the minimal memory requirement for (T)
    136.09 MB is the minimal memory requirement for CCSD
 
 MP2 correlation energy [au]:       -0.631866315421
 
 LMP2 domain correlation energy contribution [au]:       -0.062915416248
 
 CPU time [min]:   324.205                   Wall time [min]:    19.578
 
 
 Starting CCSD iterations...
 
                     Residual norm       Correlation Energy
 Iteration  1        0.184248116688       -0.561916209088
 Iteration  2        0.057199856207       -0.581255577022
 Iteration  3        0.017698217783       -0.584512505520
 Iteration  4        0.007321960921       -0.583652065449
 Iteration  5        0.003993406392       -0.583582141089
 Iteration  6        0.002073096095       -0.583833994793
 Iteration  7        0.000990405739       -0.583831166346
 Iteration  8        0.000347306525       -0.583798095450
 Iteration  9        0.000147777475       -0.583801695804
 Iteration 10        0.000048349783       -0.583803167576
 
 CCSD iteration has converged in 10 steps.
      219.04 MB memory was utilized by CCSD
 
 T1 diagnostic:      2.156E-02            D1 diagnostic:      6.698E-02
 
 T1 contribution [au]:                         0.000000000000
 CCSD correlation energy [au]:                -0.057626209197
 
 CPU time [min]:   324.740                   Wall time [min]:    19.606
 
 Calculation of (T) correction...
 
 Laplace threshold, nquadmin:  1.00E-03   4
 Number of quadrature points:    4
 
      178.70 MB memory is utilized for (T)

 0%       25%       50%       75%       100%
 |---------|---------|---------|---------| 
 
 (T) correction [au]:                   -0.002028840161
 CCSD(T) correlation energy [au]:       -0.059655049358
 
 CPU time [min]:   324.986                   Wall time [min]:    19.621
 
 MO:    11
 Number of atoms in domain:      58
 Number of atomic orbitals:    1241
 Number of atoms for local DF:   58
 Number of fitting functions:  4552 (100.00%)
 Number of occupied orbitals:    11
 Number of virtual  orbitals:  1222
 Number of Cholesky vectors:      9
 MP2 energy in ED [au]:          -0.062937603860
 Number of occupied LNOs:        11 (100.00%)
 Number of virtual  LNOs:        69   (5.65%)
 tol*100>norm                    22  4.458341368181045E-004
 tol*100>norm                    76  4.458341655008091E-004
 Number of Cholesky vectors:      6
 MP2 energy in LIS [au]:         -0.062903289389
 Correction for frozen LNO [au]: -0.000034314471     (0.055%)
 Number of NAFs:                245   (5.38%)
 CPU time [min]:   354.415                   Wall time [min]:    21.411
 

 Direct DF-CCSD(T) calculation
 
 Convergence criterion:  1.0E-05
 
 Number of occupied/virtual/auxiliary orbitals:    11    69   245
    162.23 MB is the minimal memory requirement for (T)
    136.09 MB is the minimal memory requirement for CCSD
 
 MP2 correlation energy [au]:       -0.631865557686
 
 LMP2 domain correlation energy contribution [au]:       -0.062915418214
 
 CPU time [min]:   354.452                   Wall time [min]:    21.413
 
 
 Starting CCSD iterations...
 
                     Residual norm       Correlation Energy
 Iteration  1        0.184248068768       -0.561915580479
 Iteration  2        0.057199846895       -0.581254932184
 Iteration  3        0.017698218167       -0.584511857601
 Iteration  4        0.007321958114       -0.583651422180
 Iteration  5        0.003993403744       -0.583581497966
 Iteration  6        0.002073093002       -0.583833349432
 Iteration  7        0.000990405866       -0.583830521018
 Iteration  8        0.000347306629       -0.583797450505
 Iteration  9        0.000147777671       -0.583801050865
 Iteration 10        0.000048349963       -0.583802522625
 
 CCSD iteration has converged in 10 steps.
      219.04 MB memory was utilized by CCSD
 
 T1 diagnostic:      2.156E-02            D1 diagnostic:      6.698E-02
 
 T1 contribution [au]:                         0.000000000000
 CCSD correlation energy [au]:                -0.057626210734
 
 CPU time [min]:   355.022                   Wall time [min]:    21.444
 
 Calculation of (T) correction...
 
 Laplace threshold, nquadmin:  1.00E-03   4
 Number of quadrature points:    4
 
      178.70 MB memory is utilized for (T)

 0%       25%       50%       75%       100%
 |---------|---------|---------|---------| 
 
 (T) correction [au]:                   -0.002028840458
 CCSD(T) correlation energy [au]:       -0.059655051192
 
 CPU time [min]:   355.278                   Wall time [min]:    21.459
 
 **********************************************************************
 Dimensions of the extended domains:    Minimum / Average / Maximum
 
 Number of atoms in domain:                  58      58.0        58
 Number of atomic orbitals:                1241    1241.0      1241
 Number of fitting functions:              4552    4552.0      4552
 Number of occupied localized MOs:           11      11.0        11
 Number of PAOs:                           1222    1222.0      1222
 Number of occupied LNOs:                    11      11.0        11
 Number of virtual  LNOs:                    69      73.5       108
 Number of NAFs:                            245     256.1       339
 
 **********************************************************************
 Distant (and weak) pair contributions, corrections
 
 Sum of pair energies [au]:                     0.000000000000    (0.000%)
 Sum of energy corrections [au]:               -0.000368921636    (0.052%)
 Pair energies + LNO corrections [au]:         -0.000368921636
 Sum of LMP2 contributions [au]:               -0.707904462147
 
 **********************************************************************
  Time of manipulations in the EDs:      max CPU/Wall [s]  all CPU/Wall [min]
 
 PD construction & multipole pair E      70.16     3.80     1.17     0.06
 Construct MO basis of the ED            18.52     1.04     3.33     0.18
 (mu,nu|P) evaluation & trf 2 (ai|P)    249.03    12.45    45.29     2.26
 Evaluate MP2 energy of the ED           96.89     4.85    17.49     0.87
 Transformations to the LNO basis        31.40     1.60     5.56     0.28
 Build W_PQ (Jai or Jpi part)             6.02     2.98     1.04     0.32
 Evaluate MP2 energy of the LIS           1.29     0.06     0.12     0.01
 (mu,nu|P) evaluation & trf 2 J(abQ)   1977.06   119.80   258.84    16.27
 Total of the above for all EDs        2380.22   142.78   331.66    20.19
 
 **********************************************************************
 Maximum memory requirement [MB]:       
 
 PD construction & multipole pair E        236.3
 AO integral evaluation in the EDs         764.5
 (mu,nu|P) evaluation & trf 2 (aI|P)      2037.5
 Evaluate MP2 energy in the EDs           1778.0
 Transformation to the LNO basis           469.0
 (mu,nu|P) to Jab transformation          1129.4
 Evaluate MP2 energy in the LIS            781.9
 Minimum requirement for LIS CCSD          190.6
 Actually allocated  for LIS CCSD          705.0
 Minimum requirement for LIS (T)           303.2
 Actually allocated  for LIS (T)           366.4
 
 ======================================================================
 ======================================================================
 
 
 
 ======================================================================
 ======================================================================
 
 Final local CC results:
 
 Minimum number of correlated electrons:        22       (100.0%)
 Maximum number of correlated electrons:        22       (100.0%)
 Average number of correlated electrons:        22.0     (100.0%)
 Minimum number of correlated orbitals:         80       (  3.9%)
 Maximum number of correlated orbitals:        119       (  5.7%)
 Average number of correlated orbitals:         84.5     (  4.1%)
 
 CPU time for integral calculations [min]:                 18.498
 Wall time for integral calculations [min]:                 3.414
 
 CPU time for SCF calculation [min]:                      343.934
 Wall time for SCF calculation [min]:                      17.643
 
 CPU time for orbital localization [min]:                   0.310
 Wall time for orbital localization [min]:                  0.213
 
 CPU time for integral transformations [min]:             343.282
 Wall time for integral transformations [min]:             20.795
 
 Reference energy [au]:                                  -269.590508411888
 
 LMP2 correlation energy [au]:                             -0.707904462147
 Total LMP2 energy [au]:                                 -270.298412874035
 
 Total MP2 correction for dropped NAFs [au]:                0.000125588025
 Total MP2 correction [au]:                                -0.000243333612
 
 CPU time for CCSD calculations [min]:                      8.244
 Total CPU time for CCSD [min]:                           714.268
 Wall time for CCSD calculations [min]:                     0.446
 Total wall time for CCSD [min]:                           42.512
 
 CCSD correlation energy [au]:                             -0.648892812996
 Total CCSD energy [au]:                                 -270.239401224883
 CCSD correlation energy + 0.5 MP2 corrections [au]:       -0.649014479801
 Total LNO-CCSD energy with MP2 corrections [au]:        -270.239522891689
 
 CPU time for (T) corrections [min]:                        3.776
 Total CPU time for CCSD(T) [min]:                        718.044
 Wall time for (T) corrections [min]:                       0.219
 Total wall time for CCSD(T) [min]:                        42.731
 
 Total (T) correlation energy contribution [au]:           -0.024869245889
 Total (T) correlation energy+0.5 MP2 correction [au]:     -0.024990912694
 CCSD(T) correlation energy [au]:                          -0.673762058884
 Total CCSD(T) energy [au]:                              -270.264270470772
 CCSD(T) correlation energy + MP2 corrections [au]:        -0.674005392496
 Total LNO-CCSD(T) energy with MP2 corrections [au]:     -270.264513804384
 
 ======================================================================
 ======================================================================
 
 ************************ 2022-09-04 12:13:52 *************************
                      Normal termination of mrcc.
 **********************************************************************
