 vasp.6.3.0 20Jan22 (build Apr  1 2022 16:44:48) complex                         
 executed on        HPECrayEX_GCC date 2022.10.20  08:47:03
 running 1024 mpi-ranks, with    1 threads/rank
 distrk:  each k-point on  512 cores,    2 groups
 distr:  one band on NCORE=   4 cores,  128 groups


--------------------------------------------------------------------------------------------------------


 INCAR:
   SYSTEM = MgO-rocksalt
   ISMEAR = 0
   SIGMA = 0.05
   EDIFF = 1E-6
   ALGO = ALL
   ISTART = 0
   IBRION = -1
   NSW = 0
   ISYM = 2
   DIPOL = 0.5 0.5 0.5
   IDIPOL = 3
   LDIPOL = .TRUE.
   GGA = MK
   LUSE_VDW = .TRUE.
   PARAM1 = 0.1234
   PARAM2 = 0.711357
   ZAB_VDW = -1.8867
   AGGAC = 0.0
   ENCUT = 520
   PREC = Accurate
   LASPH = .TRUE.
   LREAL = Auto
   ISPIN = 1
   NELM = 200
   NELMIN = 8
   NCORE = 4
   KPAR = 2
   LWAVE = .FALSE.
   LCHARG = .FALSE.

 POTCAR:    PAW_PBE Au 04Oct2007                  
 -----------------------------------------------------------------------------
|                                                                             |
|               ----> ADVICE to this user running VASP <----                  |
|                                                                             |
|     You have switched on vdW-DFT.                                           |
|     This routine was written and supplied by Jiri Klimes. We recommend      |
|     that you carefully read and cite the following publications:            |
|       J. Klimes, D.R. Bowler, A. Michelides                                 |
|          J. Phys.: Cond Matt. 22 022201 (2010)                              |
|       J. Klimes, D.R. Bowler, A. Michelides                                 |
|          Phys. Rev. B. 83, 195131 (2011)                                    |
|     and references therein.                                                 |
|                                                                             |
 -----------------------------------------------------------------------------

 POTCAR:    PAW_PBE Au 04Oct2007                  
   SHA256 =  d0044ae04e2bdce24051b198fc5c053d722a5bc6fe3c3b100514a13fc5d2db88 Au/POTCAR             
   COPYR  = (c) Copyright 04Oct2007 Georg Kresse                                                    
   COPYR  = This file is part of the software VASP. Any use, copying, and all other rights are regul
   COPYR  = If you do not have a valid VASP license, you may not use, copy or distribute this file. 
   VRHFIN =Au: s1d10                                                                                
   LEXCH  = PE                                                                                      
   EATOM  =   926.0867 eV,   68.0654 Ry                                                             
                                                                                                    
   TITEL  = PAW_PBE Au 04Oct2007                                                                    
   LULTRA =        F    use ultrasoft PP ?                                                          
   IUNSCR =        1    unscreen: 0-lin 1-nonlin 2-no                                               
   RPACOR =    2.330    partial core radius                                                         
   POMASS =  196.966; ZVAL   =   11.000    mass and valenz                                          
   RCORE  =    2.500    outmost cutoff radius                                                       
   RWIGS  =    2.840; RWIGS  =    1.503    wigner-seitz radius (au A)                               
   ENMAX  =  229.943; ENMIN  =  172.457 eV                                                          
   ICORE  =        3    local potential                                                             
   LCOR   =        T    correct aug charges                                                         
   LPAW   =        T    paw PP                                                                      
   EAUG   =  356.670                                                                                
   DEXC   =    0.000                                                                                
   RMAX   =    2.562    core radius for proj-oper                                                   
   RAUG   =    1.300    factor for augmentation sphere                                              
   RDEP   =    2.598    radius for radial grids                                                     
   RDEPT  =    2.193    core radius for aug-charge                                                  
                                                                                                    
   Atomic configuration                                                                             
   16 entries                                                                                       
     n  l   j            E        occ.                                                              
     1  0  0.50    -80748.5001   2.0000                                                             
     2  0  0.50    -14244.7466   2.0000                                                             
     2  1  1.50    -12310.9591   6.0000                                                             
     3  0  0.50     -3362.1768   2.0000                                                             
     3  1  1.50     -2801.5463   6.0000                                                             
     3  2  2.50     -2203.8206  10.0000                                                             
     4  0  0.50      -729.8168   2.0000                                                             
     4  1  1.50      -546.0527   6.0000                                                             
     4  2  2.50      -325.7302  10.0000                                                             
     4  3  3.50       -81.1472  14.0000                                                             
     5  0  0.50      -108.3201   2.0000                                                             
     5  1  1.50       -59.7479   6.0000                                                             
     5  2  2.50        -6.8783  10.0000                                                             
     6  0  0.50        -5.7602   1.0000                                                             
     6  1  1.50        -6.8029   0.0000                                                             
     5  3  2.50        -1.3606   0.0000                                                             
   Description                                                                                      
     l       E           TYP  RCUT    TYP  RCUT                                                     
     2     -6.8782861     23  2.500                                                                 
     2     -8.2388687     23  2.500                                                                 
     0     -5.7601759     23  2.500                                                                 
     0     -0.8493231     23  2.500                                                                 
     1     -2.7211652     23  2.500                                                                 
     1     27.2116520     23  2.500                                                                 
     3     -1.3605826     23  2.500                                                                 
  local pseudopotential read in
  partial core-charges read in
  partial kinetic energy density read in
  atomic valenz-charges read in
  non local Contribution for L=           2  read in
    real space projection operators read in
  non local Contribution for L=           2  read in
    real space projection operators read in
  non local Contribution for L=           0  read in
    real space projection operators read in
  non local Contribution for L=           0  read in
    real space projection operators read in
  non local Contribution for L=           1  read in
    real space projection operators read in
  non local Contribution for L=           1  read in
    real space projection operators read in
    PAW grid and wavefunctions read in

   number of l-projection  operators is LMAX  =           6
   number of lm-projection operators is LMMAX =          18

 -----------------------------------------------------------------------------
|                                                                             |
|               ----> ADVICE to this user running VASP <----                  |
|                                                                             |
|     You have a (more or less) 'small supercell' and for smaller cells       |
|     it is recommended to use the reciprocal-space projection scheme!        |
|     The real-space optimization is not efficient for small cells and it     |
|     is also less accurate ...                                               |
|     Therefore, set LREAL=.FALSE. in the INCAR file.                         |
|                                                                             |
 -----------------------------------------------------------------------------

 Optimization of the real space projectors (new method)

 maximal supplied QI-value         = 15.12
 optimisation between [QCUT,QGAM] = [ 11.64, 23.28] = [ 37.95,151.78] Ry 
 Optimized for a Real-space Cutoff    1.49 Angstroem

   l    n(q)    QCUT    max X(q) W(low)/X(q) W(high)/X(q)  e(spline) 
   2      9    11.641    60.898    0.24E-03    0.10E-03    0.19E-06
   2      9    11.641    58.894    0.25E-03    0.10E-03    0.19E-06
   0     10    11.641   109.617    0.73E-04    0.33E-04    0.11E-06
   0     10    11.641    75.026    0.71E-04    0.32E-04    0.11E-06
   1     10    11.641    16.344    0.27E-04    0.97E-04    0.16E-06
   1     10    11.641    10.160    0.23E-04    0.77E-04    0.13E-06
 -----------------------------------------------------------------------------
|                                                                             |
|               ----> ADVICE to this user running VASP <----                  |
|                                                                             |
|     You enforced a specific xc type in the INCAR file but a different       |
|     type was found in the POTCAR file.                                      |
|     I HOPE YOU KNOW WHAT YOU ARE DOING!                                     |
|                                                                             |
 -----------------------------------------------------------------------------

  PAW_PBE Au 04Oct2007                  :
 energy of atom  1       EATOM= -926.0867
 kinetic energy error for atom=    0.0034 (will be added to EATOM!!)


 POSCAR: Au
  positions in direct lattice
  No initial velocities read in
 exchange correlation table for  LEXCH =       43
   RHO(1)=    0.500       N(1)  =     2000
   RHO(2)=  100.500       N(2)  =     4000



--------------------------------------------------------------------------------------------------------


 ion  position               nearest neighbor table
   1  0.492  0.408  0.630-   2 2.53
   2  0.408  0.492  0.630-   1 2.53

  LATTYP: Found a simple tetragonal cell.
 ALAT       =    21.1388521970
 C/A-ratio  =     1.0461251639
  
  Lattice vectors:
  
 A1 = (  21.1388521970,   0.0000000000,   0.0000000000)
 A2 = (   0.0000000000,  21.1388521970,   0.0000000000)
 A3 = (   0.0000000000,   0.0000000000,  22.1138852197)


Analysis of symmetry for initial positions (statically):
=====================================================================
 Subroutine PRICEL returns:
 Original cell was already a primitive cell.
 

 Routine SETGRP: Setting up the symmetry group for a 
 simple tetragonal supercell.


 Subroutine GETGRP returns: Found  8 space group operations
 (whereof  2 operations were pure point group operations)
 out of a pool of 16 trial point group operations.


The static configuration has the point symmetry C_1h.
 The point group associated with its full space group is D_2h.


Analysis of symmetry for dynamics (positions and initial velocities):
=====================================================================
 Subroutine PRICEL returns:
 Original cell was already a primitive cell.
 

 Routine SETGRP: Setting up the symmetry group for a 
 simple tetragonal supercell.


 Subroutine GETGRP returns: Found  8 space group operations
 (whereof  2 operations were pure point group operations)
 out of a pool of 16 trial point group operations.


The dynamic configuration has the point symmetry C_1h.
 The point group associated with its full space group is D_2h.


 Subroutine INISYM returns: Found  8 space group operations
 (whereof  2 operations are pure point group operations),
 and found     1 'primitive' translations


----------------------------------------------------------------------------------------

                                     Primitive cell                                     

  volume of cell :    9881.6133

  direct lattice vectors                    reciprocal lattice vectors
    21.138852197  0.000000000  0.000000000     0.047306258  0.000000000  0.000000000
     0.000000000 21.138852197  0.000000000     0.000000000  0.047306258  0.000000000
     0.000000000  0.000000000 22.113885220     0.000000000  0.000000000  0.045220457

  length of vectors
    21.138852197 21.138852197 22.113885220     0.047306258  0.047306258  0.045220457

  position of ions in fractional coordinates (direct lattice)
     0.492280992  0.407719014  0.629662437
     0.407718984  0.492281023  0.629662437

  ion indices of the primitive-cell ions
   primitive index   ion index
                 1           1
                 2           2

----------------------------------------------------------------------------------------



 KPOINTS: KPOINTS created by Atomic Simulation Env

Automatic generation of k-mesh.
 Grid dimensions read from file:
 generate k-points for:    1    1    1

 Generating k-lattice:

  Cartesian coordinates                     Fractional coordinates (reciprocal lattice)
     0.047306258  0.000000000  0.000000000     1.000000000  0.000000000  0.000000000
     0.000000000  0.047306258  0.000000000     0.000000000  1.000000000  0.000000000
     0.000000000  0.000000000  0.045220457     0.000000000  0.000000000  1.000000000

  Length of vectors
     0.047306258  0.047306258  0.045220457

  Shift w.r.t. Gamma in fractional coordinates (k-lattice)
     0.000000000  0.000000000  0.000000000

 
 Subroutine IBZKPT returns following result:
 ===========================================
 
 Found      1 irreducible k-points:
 
 Following reciprocal coordinates:
            Coordinates               Weight
  0.000000  0.000000  0.000000      1.000000
 
 Following cartesian coordinates:
            Coordinates               Weight
  0.000000  0.000000  0.000000      1.000000
 


--------------------------------------------------------------------------------------------------------




 Dimension of arrays:
   k-points           NKPTS =      1   k-points in BZ     NKDIM =      1   number of bands    NBANDS=    128
   number of dos      NEDOS =    301   number of ions     NIONS =      2
   non local maximal  LDIM  =      6   non local SUM 2l+1 LMDIM =     18
   total plane-waves  NPLWV = ******
   max r-space proj   IRMAX =   6070   max aug-charges    IRDMAX=  26812
   dimension x,y,z NGX =   160 NGY =  160 NGZ =  168
   dimension x,y,z NGXF=   320 NGYF=  320 NGZF=  336
   support grid    NGXF=   320 NGYF=  320 NGZF=  336
   ions per type =               2
   NGX,Y,Z   is equivalent  to a cutoff of  12.58, 12.58, 12.63 a.u.
   NGXF,Y,Z  is equivalent  to a cutoff of  25.17, 25.17, 25.26 a.u.

 SYSTEM =  MgO-rocksalt                            
 POSCAR =  Au                                      

 Startparameter for this run:
   NWRITE =      2    write-flag & timer
   PREC   = accura    normal or accurate (medium, high low for compatibility)
   ISTART =      0    job   : 0-new  1-cont  2-samecut
   ICHARG =      2    charge: 1-file 2-atom 10-const
   ISPIN  =      1    spin polarized calculation?
   LNONCOLLINEAR =      F non collinear calculations
   LSORBIT =      F    spin-orbit coupling
   INIWAV =      1    electr: 0-lowe 1-rand  2-diag
   LASPH  =      T    aspherical Exc in radial PAW
 Electronic Relaxation 1
   ENCUT  =  520.0 eV  38.22 Ry    6.18 a.u.  39.30 39.30 41.12*2*pi/ulx,y,z
   ENINI  =  520.0     initial cutoff
   ENAUG  =  356.7 eV  augmentation charge cutoff
   NELM   =    200;   NELMIN=  8; NELMDL= -5     # of ELM steps 
   EDIFF  = 0.1E-05   stopping-criterion for ELM
   LREAL  =      T    real-space projection
   NLSPLINE    = F    spline interpolate recip. space projectors
   LCOMPAT=      F    compatible to vasp.4.4
   GGA_COMPAT  = T    GGA compatible to vasp.4.4-vasp.4.6
   LMAXPAW     = -100 max onsite density
   LMAXMIX     =    2 max onsite mixed and CHGCAR
   VOSKOWN=      0    Vosko Wilk Nusair interpolation
   ROPT   =   -0.00025
 Ionic relaxation
   EDIFFG = 0.1E-04   stopping-criterion for IOM
   NSW    =      0    number of steps for IOM
   NBLOCK =      1;   KBLOCK =      1    inner block; outer block 
   IBRION =     -1    ionic relax: 0-MD 1-quasi-New 2-CG
   NFREE  =      0    steps in history (QN), initial steepest desc. (CG)
   ISIF   =      2    stress and relaxation
   IWAVPR =     10    prediction:  0-non 1-charg 2-wave 3-comb
   ISYM   =      2    0-nonsym 1-usesym 2-fastsym
   LCORR  =      T    Harris-Foulkes like correction to forces

   POTIM  = 0.5000    time-step for ionic-motion
   TEIN   =    0.0    initial temperature
   TEBEG  =    0.0;   TEEND  =   0.0 temperature during run
   SMASS  =  -3.00    Nose mass-parameter (am)
   estimated Nose-frequenzy (Omega)   =  0.10E-29 period in steps = 0.13E+47 mass=  -0.102E-25a.u.
   SCALEE = 1.0000    scale energy and forces
   NPACO  =    256;   APACO  = 10.0  distance and # of slots for P.C.
   PSTRESS=    0.0 pullay stress

  Mass of Ions in am
   POMASS = 196.97
  Ionic Valenz
   ZVAL   =  11.00
  Atomic Wigner-Seitz radii
   RWIGS  =  -1.00
  virtual crystal weights 
   VCA    =   1.00
   NELECT =      22.0000    total number of electrons
   NUPDOWN=      -1.0000    fix difference up-down

 DOS related values:
   EMIN   =  10.00;   EMAX   =-10.00  energy-range for DOS
   EFERMI =   0.00
   ISMEAR =     0;   SIGMA  =   0.05  broadening in eV -4-tet -1-fermi 0-gaus

 Electronic relaxation 2 (details)
   IALGO  =     58    algorithm
   LDIAG  =      T    sub-space diagonalisation (order eigenvalues)
   LSUBROT=      F    optimize rotation matrix (better conditioning)
   TURBO    =      0    0=normal 1=particle mesh
   IRESTART =      0    0=no restart 2=restart with 2 vectors
   NREBOOT  =      0    no. of reboots
   NMIN     =      0    reboot dimension
   EREF     =   0.00    reference energy to select bands
   IMIX   =      4    mixing-type and parameters
     AMIX     =   0.40;   BMIX     =  1.00
     AMIX_MAG =   1.60;   BMIX_MAG =  1.00
     AMIN     =   0.10
     WC   =   100.;   INIMIX=   1;  MIXPRE=   1;  MAXMIX= -45

 Intra band minimization:
   WEIMIN = 0.0000     energy-eigenvalue tresh-hold
   EBREAK =  0.20E-08  absolut break condition
   DEPER  =   0.30     relativ break condition  

   TIME   =   0.40     timestep for ELM

  volume/ion in A,a.u.               =    4940.81     33342.21
  Fermi-wavevector in a.u.,A,eV,Ry     =   0.213767  0.403960  0.621734  0.045696
  Thomas-Fermi vector in A             =   0.985879

 Write flags
   LWAVE        =      F    write WAVECAR
   LDOWNSAMPLE  =      F    k-point downsampling of WAVECAR
   LCHARG       =      F    write CHGCAR
   LVTOT        =      F    write LOCPOT, total local potential
   LVHAR        =      F    write LOCPOT, Hartree potential only
   LELF         =      F    write electronic localiz. function (ELF)
   LORBIT       =      0    0 simple, 1 ext, 2 COOP (PROOUT), +10 PAW based schemes


 Dipole corrections
   LMONO  =      F    monopole corrections only (constant potential shift)
   LDIPOL =      T    correct potential (dipole corrections)
   IDIPOL =      3    1-x, 2-y, 3-z, 4-all directions 
   EPSILON=  1.0000000 bulk dielectric constant

 Exchange correlation treatment:
   GGA     =    MK    GGA type
   LEXCH   =    43    internal setting for exchange type
   LIBXC   =     F    Libxc                    
   VOSKOWN =     0    Vosko Wilk Nusair interpolation
   LHFCALC =     F    Hartree Fock is set to
   LHFONE  =     F    Hartree Fock one center treatment
   AEXX    =    0.0000 exact exchange contribution

 vdW DFT:
   LUSE_VDW   =     T    switch on vdW DFT
   Zab_VDW    =******    correlation parameter
   PARAM1     =0.1234
   PARAM2     =0.7114
   PARAM3     =0.0000
   -- rVV10 --
   BPARAM     = 6.3000
   CPARAM     = 0.0093

 Linear response parameters
   LEPSILON=     F    determine dielectric tensor
   LRPA    =     F    only Hartree local field effects (RPA)
   LNABLA  =     F    use nabla operator in PAW spheres
   LVEL    =     F    velocity operator in full k-point grid
   CSHIFT  =0.1000    complex shift for real part using Kramers Kronig
   OMEGAMAX=  -1.0    maximum frequency
   DEG_THRESHOLD= 0.2000000E-02 threshold for treating states as degnerate
   RTIME   =   -0.100 relaxation time in fs
  (WPLASMAI=    0.000 imaginary part of plasma frequency in eV, 0.658/RTIME)
   DFIELD  = 0.0000000 0.0000000 0.0000000 field for delta impulse in time

  Optional k-point grid parameters
   LKPOINTS_OPT  =     F    use optional k-point grid
   KPOINTS_OPT_MODE=     1    mode for optional k-point grid

 Orbital magnetization related:
   ORBITALMAG=     F  switch on orbital magnetization
   LCHIMAG   =     F  perturbation theory with respect to B field
   DQ        =  0.001000  dq finite difference perturbation B field
   LLRAUG    =     F  two centre corrections for induced B field



--------------------------------------------------------------------------------------------------------


 Static calculation
 charge density and potential will be updated during run
 non-spin polarized calculation
 Conjugate gradient for all bands (Freysoldt, et al. PRB 79, 241103 (2009))
 preconditioned conjugated gradient                                        
 perform sub-space diagonalisation
    before iterative eigenvector-optimisation
 modified Broyden-mixing scheme, WC =      100.0
 initial mixing is a Kerker type mixing with AMIX =  0.4000 and BMIX =      1.0000
 Hartree-type preconditioning will be used
 using additional bands          117
 real space projection scheme for non local part
 use partial core corrections
 no Harris-corrections to forces 
 use gradient corrections 
 use of overlap-Matrix (Vanderbilt PP)
 Gauss-broadening in eV      SIGMA  =   0.05


--------------------------------------------------------------------------------------------------------


  energy-cutoff  :      520.00
  volume of cell :     9881.61
      direct lattice vectors                 reciprocal lattice vectors
    21.138852197  0.000000000  0.000000000     0.047306258  0.000000000  0.000000000
     0.000000000 21.138852197  0.000000000     0.000000000  0.047306258  0.000000000
     0.000000000  0.000000000 22.113885220     0.000000000  0.000000000  0.045220457

  length of vectors
    21.138852197 21.138852197 22.113885220     0.047306258  0.047306258  0.045220457



 k-points in units of 2pi/SCALE and weight: KPOINTS created by Atomic Simulation Env
   0.00000000  0.00000000  0.00000000       1.000

 k-points in reciprocal lattice and weights: KPOINTS created by Atomic Simulation Env
   0.00000000  0.00000000  0.00000000       1.000

 position of ions in fractional coordinates (direct lattice) 
   0.49228099  0.40771901  0.62966244
   0.40771898  0.49228102  0.62966244

 position of ions in cartesian coordinates  (Angst):
  10.40625514  8.61871197 13.92428285
   8.61871133 10.40625577 13.92428285



--------------------------------------------------------------------------------------------------------


 k-point   1 :   0.0000 0.0000 0.0000  plane waves:  265979

 maximum and minimum number of plane-waves per node :     66495    66494

 maximum number of plane-waves:    265979
 maximum index in each direction: 
   IXMAX=   39   IYMAX=   39   IZMAX=   41
   IXMIN=  -39   IYMIN=  -39   IZMIN=  -41


 real space projection operators:
  total allocation   :       1647.84 KBytes
  max/ min on nodes  :        414.14        408.38


 parallel 3D FFT for wavefunctions:
    minimum data exchange during FFTs selected (reduces bandwidth)
 parallel 3D FFT for charge:
    minimum data exchange during FFTs selected (reduces bandwidth)


 total amount of memory used by VASP MPI-rank0   117535. kBytes
=======================================================================

   base      :      30000. kBytes
   nonlr-proj:        711. kBytes
   fftplans  :      35317. kBytes
   grid      :      48291. kBytes
   one-center:         15. kBytes
   wavefun   :       3201. kBytes

     INWAV:  cpu time      0.0001: real time      0.0001
 Broyden mixing: mesh for mixing (old mesh)
   NGX = 79   NGY = 79   NGZ = 83
  (NGX  =320   NGY  =320   NGZ  =336)
  gives a total of 518003 points

 initial charge density was supplied:
 charge density of overlapping atoms calculated
 number of electron      22.0000000 magnetization 
 keeping initial charge density in first step


--------------------------------------------------------------------------------------------------------


 Maximum index for non-local projection operator         1462
 Maximum index for augmentation-charges            0 (set IRDMAX)


--------------------------------------------------------------------------------------------------------


 First call to EWALD:  gamma=   0.083
 Maximum number of real-space cells 3x 3x 3
 Maximum number of reciprocal cells 3x 3x 3

    FEWALD:  cpu time      0.0013: real time      0.0013


--------------------------------------- Iteration      1(   1)  ---------------------------------------


vdW kernel read from vdw_kernel.bindat
  0.0000  0.2424  0.5071  0.7962  1.1119  1.4567  1.8333  2.2446  2.6937  3.1842
  3.7199  4.3049  4.9438  5.6415  6.4036  7.2358  8.1446  9.1372 10.2212 11.4050
 12.6979 14.1099 15.6519 17.3360 19.1751 21.1837 23.3773 25.7729 28.3892 31.2465
 34.3669 37.7748 41.4965 45.5611 50.0000

    POTLOK:  cpu time      1.5183: real time      1.5205
    SETDIJ:  cpu time      0.1758: real time      0.1762
    TRIAL :  cpu time      0.7328: real time      0.7332
    CORREC:  cpu time      0.0012: real time      0.0012
    --------------------------------------------
      LOOP:  cpu time      2.4297: real time      2.4330

 eigenvalue-minimisations  :   256
 total energy-change (2. order) : 0.1479820E+03  (-0.4738797E+03)
 number of electron      22.0000000 magnetization 
 augmentation part       22.0000000 magnetization 

 DIPCOR: dipole corrections for dipol
 direction  3 min pos     1,
 dipolmoment           0.000000      0.000000     -0.000014 electrons x Angstroem
 Tr[quadrupol]     -4015.982801

 energy correction for charged system         0.000000 eV
 dipol+quadrupol energy correction           -0.000000 eV
 added-field ion interaction          0.000018 eV  (added to PSCEN)


 Free energy of the ion-electron system (eV)
  ---------------------------------------------------
  alpha Z        PSCENC =         0.47151809
  Ewald energy   TEWEN  =       231.30967022
  -Hartree energ DENC   =     -2005.18220958
  -exchange      EXHF   =         0.00000000
  -V(xc)+E(xc)   XCENC  =        28.02277059
  PAW double counting   =      1749.89395244    -1703.37359285
  entropy T*S    EENTRO =        -0.00624410
  eigenvalues    EBANDS =       -12.01654672
  atomic energy  EATOM  =      1858.86266374
  ---------------------------------------------------
  free energy    TOTEN  =       147.98198183 eV

  energy without entropy =      147.98822593  energy(sigma->0) =      147.98510388


--------------------------------------------------------------------------------------------------------




--------------------------------------- Iteration      1(   2)  ---------------------------------------


    TRIAL :  cpu time      2.6410: real time      2.6417
    CORREC:  cpu time      0.0003: real time      0.0003
    --------------------------------------------
      LOOP:  cpu time      2.6481: real time      2.6572

 eigenvalue-minimisations  :   512
 total energy-change (2. order) :-0.1439838E+03  (-0.1439198E+03)
 number of electron      22.0000000 magnetization 
 augmentation part       22.0000000 magnetization 

 DIPCOR: dipole corrections for dipol
 direction  3 min pos     1,
 dipolmoment           0.000000      0.000000     -0.000014 electrons x Angstroem
 Tr[quadrupol]     -4015.982801

 energy correction for charged system         0.000000 eV
 dipol+quadrupol energy correction           -0.000000 eV
 added-field ion interaction          0.000018 eV  (added to PSCEN)


 Free energy of the ion-electron system (eV)
  ---------------------------------------------------
  alpha Z        PSCENC =         0.47151809
  Ewald energy   TEWEN  =       231.30967022
  -Hartree energ DENC   =     -2005.18220958
  -exchange      EXHF   =         0.00000000
  -V(xc)+E(xc)   XCENC  =        28.02277059
  PAW double counting   =      1749.89395244    -1703.37359285
  entropy T*S    EENTRO =        -0.00000000
  eigenvalues    EBANDS =      -156.00661924
  atomic energy  EATOM  =      1858.86266374
  ---------------------------------------------------
  free energy    TOTEN  =         3.99815342 eV

  energy without entropy =        3.99815342  energy(sigma->0) =        3.99815342


--------------------------------------------------------------------------------------------------------




--------------------------------------- Iteration      1(   3)  ---------------------------------------


    TRIAL :  cpu time      0.7218: real time      0.7220
    CORREC:  cpu time      0.0003: real time      0.0003
    --------------------------------------------
      LOOP:  cpu time      0.7277: real time      0.7364

 eigenvalue-minimisations  :   256
 total energy-change (2. order) :-0.1836799E+01  (-0.1836799E+01)
 number of electron      22.0000000 magnetization 
 augmentation part       22.0000000 magnetization 

 DIPCOR: dipole corrections for dipol
 direction  3 min pos     1,
 dipolmoment           0.000000      0.000000     -0.000014 electrons x Angstroem
 Tr[quadrupol]     -4015.982801

 energy correction for charged system         0.000000 eV
 dipol+quadrupol energy correction           -0.000000 eV
 added-field ion interaction          0.000018 eV  (added to PSCEN)


 Free energy of the ion-electron system (eV)
  ---------------------------------------------------
  alpha Z        PSCENC =         0.47151809
  Ewald energy   TEWEN  =       231.30967022
  -Hartree energ DENC   =     -2005.18220958
  -exchange      EXHF   =         0.00000000
  -V(xc)+E(xc)   XCENC  =        28.02277059
  PAW double counting   =      1749.89395244    -1703.37359285
  entropy T*S    EENTRO =        -0.00000000
  eigenvalues    EBANDS =      -157.84341814
  atomic energy  EATOM  =      1858.86266374
  ---------------------------------------------------
  free energy    TOTEN  =         2.16135451 eV

  energy without entropy =        2.16135451  energy(sigma->0) =        2.16135451


--------------------------------------------------------------------------------------------------------




--------------------------------------- Iteration      1(   4)  ---------------------------------------


    TRIAL :  cpu time      2.5446: real time      2.5454
    CORREC:  cpu time      0.0003: real time      0.0003
    --------------------------------------------
      LOOP:  cpu time      2.5493: real time      2.5599

 eigenvalue-minimisations  :   512
 total energy-change (2. order) :-0.7804316E-02  (-0.7804316E-02)
 number of electron      22.0000000 magnetization 
 augmentation part       22.0000000 magnetization 

 DIPCOR: dipole corrections for dipol
 direction  3 min pos     1,
 dipolmoment           0.000000      0.000000     -0.000014 electrons x Angstroem
 Tr[quadrupol]     -4015.982801

 energy correction for charged system         0.000000 eV
 dipol+quadrupol energy correction           -0.000000 eV
 added-field ion interaction          0.000018 eV  (added to PSCEN)


 Free energy of the ion-electron system (eV)
  ---------------------------------------------------
  alpha Z        PSCENC =         0.47151809
  Ewald energy   TEWEN  =       231.30967022
  -Hartree energ DENC   =     -2005.18220958
  -exchange      EXHF   =         0.00000000
  -V(xc)+E(xc)   XCENC  =        28.02277059
  PAW double counting   =      1749.89395244    -1703.37359285
  entropy T*S    EENTRO =        -0.00000000
  eigenvalues    EBANDS =      -157.85122246
  atomic energy  EATOM  =      1858.86266374
  ---------------------------------------------------
  free energy    TOTEN  =         2.15355019 eV

  energy without entropy =        2.15355019  energy(sigma->0) =        2.15355019


--------------------------------------------------------------------------------------------------------




--------------------------------------- Iteration      1(   5)  ---------------------------------------


    TRIAL :  cpu time      0.7209: real time      0.7213
    CORREC:  cpu time      0.0004: real time      0.0004
    CHARGE:  cpu time      0.5793: real time      0.5804
    --------------------------------------------
      LOOP:  cpu time      1.3052: real time      1.3158

 eigenvalue-minimisations  :   256
 total energy-change (2. order) :-0.2323609E-06  (-0.2321905E-06)
 number of electron      21.9999992 magnetization 
 augmentation part        8.0120399 magnetization 

 DIPCOR: dipole corrections for dipol
 direction  3 min pos     1,
 dipolmoment           0.000000      0.000000     -0.000014 electrons x Angstroem
 Tr[quadrupol]     -4015.982801

 energy correction for charged system         0.000000 eV
 dipol+quadrupol energy correction           -0.000000 eV
 added-field ion interaction          0.000018 eV  (added to PSCEN)


 Free energy of the ion-electron system (eV)
  ---------------------------------------------------
  alpha Z        PSCENC =         0.47151809
  Ewald energy   TEWEN  =       231.30967022
  -Hartree energ DENC   =     -2005.18220958
  -exchange      EXHF   =         0.00000000
  -V(xc)+E(xc)   XCENC  =        28.02277059
  PAW double counting   =      1749.89395244    -1703.37359285
  entropy T*S    EENTRO =        -0.00000000
  eigenvalues    EBANDS =      -157.85122269
  atomic energy  EATOM  =      1858.86266374
  ---------------------------------------------------
  free energy    TOTEN  =         2.15354996 eV

  energy without entropy =        2.15354996  energy(sigma->0) =        2.15354996


--------------------------------------------------------------------------------------------------------




--------------------------------------- Iteration      1(   6)  ---------------------------------------


    POTLOK:  cpu time      1.0338: real time      1.0340
    SETDIJ:  cpu time      0.1520: real time      0.1520
    TRIAL :  cpu time      5.3769: real time      5.3784
    CORREC:  cpu time      1.8751: real time      1.8759
    CHARGE:  cpu time      0.5738: real time      0.5740
    --------------------------------------------
      LOOP:  cpu time      9.0257: real time      9.0286

 eigenvalue-minimisations  :     0
 total energy-change (2. order) : 0.8833395E+00  (-0.4026621E+00)
 number of electron      21.9999992 magnetization 
 augmentation part        8.1595621 magnetization 

 DIPCOR: dipole corrections for dipol
 direction  3 min pos     1,
 dipolmoment           0.000000      0.000000     -0.000706 electrons x Angstroem
 Tr[quadrupol]     -4015.731084

 energy correction for charged system         0.000000 eV
 dipol+quadrupol energy correction           -0.000000 eV
 added-field ion interaction          0.000881 eV  (added to PSCEN)


 Free energy of the ion-electron system (eV)
  ---------------------------------------------------
  alpha Z        PSCENC =         0.47150490
  Ewald energy   TEWEN  =       231.30967022
  -Hartree energ DENC   =     -1996.76717541
  -exchange      EXHF   =         0.00000000
  -V(xc)+E(xc)   XCENC  =        27.44540078
  PAW double counting   =      1837.47954099    -1793.47140944
  entropy T*S    EENTRO =        -0.00000000
  eigenvalues    EBANDS =      -162.29330633
  atomic energy  EATOM  =      1858.86266374
  ---------------------------------------------------
  free energy    TOTEN  =         3.03688946 eV

  energy without entropy =        3.03688946  energy(sigma->0) =        3.03688946


--------------------------------------------------------------------------------------------------------




--------------------------------------- Iteration      1(   7)  ---------------------------------------


    POTLOK:  cpu time      1.0581: real time      1.0583
    SETDIJ:  cpu time      0.1488: real time      0.1488
    TRIAL :  cpu time      0.2658: real time      0.2658
    CORREC:  cpu time      1.8425: real time      1.8429
    CHARGE:  cpu time      0.5731: real time      0.5732
    --------------------------------------------
      LOOP:  cpu time      3.8945: real time      3.9039

 eigenvalue-minimisations  :     0
 total energy-change (2. order) :-0.4028561E+00  (-0.6875163E-01)
 number of electron      21.9999992 magnetization 
 augmentation part        8.1378549 magnetization 

 DIPCOR: dipole corrections for dipol
 direction  3 min pos     1,
 dipolmoment           0.000000      0.000000     -0.000436 electrons x Angstroem
 Tr[quadrupol]     -4015.724021

 energy correction for charged system         0.000000 eV
 dipol+quadrupol energy correction           -0.000000 eV
 added-field ion interaction          0.000544 eV  (added to PSCEN)


 Free energy of the ion-electron system (eV)
  ---------------------------------------------------
  alpha Z        PSCENC =         0.47248292
  Ewald energy   TEWEN  =       231.30967022
  -Hartree energ DENC   =     -2007.11787807
  -exchange      EXHF   =         0.00000000
  -V(xc)+E(xc)   XCENC  =        27.94827607
  PAW double counting   =      1854.72760891    -1810.30402206
  entropy T*S    EENTRO =        -0.00000000
  eigenvalues    EBANDS =      -153.26476839
  atomic energy  EATOM  =      1858.86266374
  ---------------------------------------------------
  free energy    TOTEN  =         2.63403335 eV

  energy without entropy =        2.63403335  energy(sigma->0) =        2.63403335


--------------------------------------------------------------------------------------------------------




--------------------------------------- Iteration      1(   8)  ---------------------------------------


    POTLOK:  cpu time      1.0498: real time      1.0500
    SETDIJ:  cpu time      0.1569: real time      0.1569
    TRIAL :  cpu time      0.2632: real time      0.2632
    CORREC:  cpu time      1.8370: real time      1.8375
    CHARGE:  cpu time      0.5745: real time      0.5745
    --------------------------------------------
      LOOP:  cpu time      3.8967: real time      3.8979

 eigenvalue-minimisations  :     0
 total energy-change (2. order) :-0.6773914E-01  (-0.2242301E-01)
 number of electron      21.9999992 magnetization 
 augmentation part        8.1711793 magnetization 

 DIPCOR: dipole corrections for dipol
 direction  3 min pos     1,
 dipolmoment           0.000000      0.000000     -0.000032 electrons x Angstroem
 Tr[quadrupol]     -4015.762970

 energy correction for charged system         0.000000 eV
 dipol+quadrupol energy correction           -0.000000 eV
 added-field ion interaction          0.000040 eV  (added to PSCEN)


 Free energy of the ion-electron system (eV)
  ---------------------------------------------------
  alpha Z        PSCENC =         0.47182244
  Ewald energy   TEWEN  =       231.30967022
  -Hartree energ DENC   =     -1999.24691021
  -exchange      EXHF   =         0.00000000
  -V(xc)+E(xc)   XCENC  =        27.71420252
  PAW double counting   =      1840.48554505    -1795.94681820
  entropy T*S    EENTRO =        -0.00000000
  eigenvalues    EBANDS =      -161.08388136
  atomic energy  EATOM  =      1858.86266374
  ---------------------------------------------------
  free energy    TOTEN  =         2.56629421 eV

  energy without entropy =        2.56629421  energy(sigma->0) =        2.56629421


--------------------------------------------------------------------------------------------------------




--------------------------------------- Iteration      1(   9)  ---------------------------------------


    POTLOK:  cpu time      1.0513: real time      1.0517
    SETDIJ:  cpu time      0.1436: real time      0.1436
    TRIAL :  cpu time      0.2644: real time      0.2644
    CORREC:  cpu time      1.8208: real time      1.8213
    CHARGE:  cpu time      0.5760: real time      0.5761
    --------------------------------------------
      LOOP:  cpu time      3.8623: real time      3.8723

 eigenvalue-minimisations  :     0
 total energy-change (2. order) :-0.2245502E-01  (-0.5557751E-02)
 number of electron      21.9999992 magnetization 
 augmentation part        8.1724621 magnetization 

 DIPCOR: dipole corrections for dipol
 direction  3 min pos     1,
 dipolmoment           0.000000      0.000000     -0.000006 electrons x Angstroem
 Tr[quadrupol]     -4015.785449

 energy correction for charged system         0.000000 eV
 dipol+quadrupol energy correction           -0.000000 eV
 added-field ion interaction          0.000008 eV  (added to PSCEN)


 Free energy of the ion-electron system (eV)
  ---------------------------------------------------
  alpha Z        PSCENC =         0.47151918
  Ewald energy   TEWEN  =       231.30967022
  -Hartree energ DENC   =     -2003.94833601
  -exchange      EXHF   =         0.00000000
  -V(xc)+E(xc)   XCENC  =        27.85832112
  PAW double counting   =      1847.64425864    -1802.96838297
  entropy T*S    EENTRO =        -0.00000000
  eigenvalues    EBANDS =      -156.68587472
  atomic energy  EATOM  =      1858.86266374
  ---------------------------------------------------
  free energy    TOTEN  =         2.54383919 eV

  energy without entropy =        2.54383919  energy(sigma->0) =        2.54383919


--------------------------------------------------------------------------------------------------------




--------------------------------------- Iteration      1(  10)  ---------------------------------------


    POTLOK:  cpu time      1.0382: real time      1.0384
    SETDIJ:  cpu time      0.1434: real time      0.1436
    TRIAL :  cpu time      0.2632: real time      0.2632
    CORREC:  cpu time      1.8204: real time      1.8209
    CHARGE:  cpu time      0.5752: real time      0.5752
    --------------------------------------------
      LOOP:  cpu time      3.8541: real time      3.8555

 eigenvalue-minimisations  :     0
 total energy-change (2. order) :-0.5558009E-02  (-0.9438637E-03)
 number of electron      21.9999992 magnetization 
 augmentation part        8.1701111 magnetization 

 DIPCOR: dipole corrections for dipol
 direction  3 min pos     1,
 dipolmoment           0.000000      0.000000     -0.000004 electrons x Angstroem
 Tr[quadrupol]     -4015.786324

 energy correction for charged system         0.000000 eV
 dipol+quadrupol energy correction           -0.000000 eV
 added-field ion interaction          0.000005 eV  (added to PSCEN)


 Free energy of the ion-electron system (eV)
  ---------------------------------------------------
  alpha Z        PSCENC =         0.47150949
  Ewald energy   TEWEN  =       231.30967022
  -Hartree energ DENC   =     -2003.81207019
  -exchange      EXHF   =         0.00000000
  -V(xc)+E(xc)   XCENC  =        27.85340321
  PAW double counting   =      1846.69752542    -1801.95967614
  entropy T*S    EENTRO =        -0.00000000
  eigenvalues    EBANDS =      -156.88474457
  atomic energy  EATOM  =      1858.86266374
  ---------------------------------------------------
  free energy    TOTEN  =         2.53828118 eV

  energy without entropy =        2.53828118  energy(sigma->0) =        2.53828118


--------------------------------------------------------------------------------------------------------




--------------------------------------- Iteration      1(  11)  ---------------------------------------


    POTLOK:  cpu time      1.0404: real time      1.0407
    SETDIJ:  cpu time      0.1480: real time      0.1480
    TRIAL :  cpu time      0.2621: real time      0.2624
    CORREC:  cpu time      1.8272: real time      1.8276
    CHARGE:  cpu time      0.5739: real time      0.5739
    --------------------------------------------
      LOOP:  cpu time      3.8556: real time      3.8669

 eigenvalue-minimisations  :     0
 total energy-change (2. order) :-0.9448867E-03  (-0.1843585E-03)
 number of electron      21.9999992 magnetization 
 augmentation part        8.1731657 magnetization 

 DIPCOR: dipole corrections for dipol
 direction  3 min pos     1,
 dipolmoment           0.000000      0.000000     -0.000004 electrons x Angstroem
 Tr[quadrupol]     -4015.788126

 energy correction for charged system         0.000000 eV
 dipol+quadrupol energy correction           -0.000000 eV
 added-field ion interaction          0.000005 eV  (added to PSCEN)


 Free energy of the ion-electron system (eV)
  ---------------------------------------------------
  alpha Z        PSCENC =         0.47150647
  Ewald energy   TEWEN  =       231.30967022
  -Hartree energ DENC   =     -2003.26778633
  -exchange      EXHF   =         0.00000000
  -V(xc)+E(xc)   XCENC  =        27.83671617
  PAW double counting   =      1845.15489466    -1800.40878027
  entropy T*S    EENTRO =        -0.00000000
  eigenvalues    EBANDS =      -157.42154837
  atomic energy  EATOM  =      1858.86266374
  ---------------------------------------------------
  free energy    TOTEN  =         2.53733630 eV

  energy without entropy =        2.53733630  energy(sigma->0) =        2.53733630


--------------------------------------------------------------------------------------------------------




--------------------------------------- Iteration      1(  12)  ---------------------------------------


    POTLOK:  cpu time      1.0375: real time      1.0381
    SETDIJ:  cpu time      0.1370: real time      0.1370
    TRIAL :  cpu time      0.2630: real time      0.2631
    CORREC:  cpu time      1.8376: real time      1.8379
    CHARGE:  cpu time      0.5750: real time      0.5753
    --------------------------------------------
      LOOP:  cpu time      3.8549: real time      3.8671

 eigenvalue-minimisations  :     0
 total energy-change (2. order) :-0.1840857E-03  (-0.4542055E-04)
 number of electron      21.9999992 magnetization 
 augmentation part        8.1724811 magnetization 

 DIPCOR: dipole corrections for dipol
 direction  3 min pos     1,
 dipolmoment           0.000000      0.000000     -0.000004 electrons x Angstroem
 Tr[quadrupol]     -4015.787583

 energy correction for charged system         0.000000 eV
 dipol+quadrupol energy correction           -0.000000 eV
 added-field ion interaction          0.000005 eV  (added to PSCEN)


 Free energy of the ion-electron system (eV)
  ---------------------------------------------------
  alpha Z        PSCENC =         0.47150534
  Ewald energy   TEWEN  =       231.30967022
  -Hartree energ DENC   =     -2003.73341346
  -exchange      EXHF   =         0.00000000
  -V(xc)+E(xc)   XCENC  =        27.85174085
  PAW double counting   =      1845.73602781    -1800.98476155
  entropy T*S    EENTRO =        -0.00000000
  eigenvalues    EBANDS =      -156.97628075
  atomic energy  EATOM  =      1858.86266374
  ---------------------------------------------------
  free energy    TOTEN  =         2.53715221 eV

  energy without entropy =        2.53715221  energy(sigma->0) =        2.53715221


--------------------------------------------------------------------------------------------------------




--------------------------------------- Iteration      1(  13)  ---------------------------------------


    POTLOK:  cpu time      1.0352: real time      1.0354
    SETDIJ:  cpu time      0.1463: real time      0.1463
    TRIAL :  cpu time      0.2630: real time      0.2631
    CORREC:  cpu time      1.8365: real time      1.8370
    CHARGE:  cpu time      0.5714: real time      0.5717
    --------------------------------------------
      LOOP:  cpu time      3.8578: real time      3.8682

 eigenvalue-minimisations  :     0
 total energy-change (2. order) :-0.4561414E-04  (-0.7770341E-05)
 number of electron      21.9999992 magnetization 
 augmentation part        8.1724391 magnetization 

 DIPCOR: dipole corrections for dipol
 direction  3 min pos     1,
 dipolmoment           0.000000      0.000000     -0.000004 electrons x Angstroem
 Tr[quadrupol]     -4015.786863

 energy correction for charged system         0.000000 eV
 dipol+quadrupol energy correction           -0.000000 eV
 added-field ion interaction          0.000005 eV  (added to PSCEN)


 Free energy of the ion-electron system (eV)
  ---------------------------------------------------
  alpha Z        PSCENC =         0.47150504
  Ewald energy   TEWEN  =       231.30967022
  -Hartree energ DENC   =     -2003.59031954
  -exchange      EXHF   =         0.00000000
  -V(xc)+E(xc)   XCENC  =        27.84682507
  PAW double counting   =      1845.45420718    -1800.70395782
  entropy T*S    EENTRO =        -0.00000000
  eigenvalues    EBANDS =      -157.11348729
  atomic energy  EATOM  =      1858.86266374
  ---------------------------------------------------
  free energy    TOTEN  =         2.53710660 eV

  energy without entropy =        2.53710660  energy(sigma->0) =        2.53710660


--------------------------------------------------------------------------------------------------------




--------------------------------------- Iteration      1(  14)  ---------------------------------------


    POTLOK:  cpu time      1.0361: real time      1.0363
    SETDIJ:  cpu time      0.1464: real time      0.1472
    TRIAL :  cpu time      0.2655: real time      0.2655
    CORREC:  cpu time      1.8162: real time      1.8255
    CHARGE:  cpu time      0.5783: real time      0.5785
    --------------------------------------------
      LOOP:  cpu time      3.8478: real time      3.8677

 eigenvalue-minimisations  :     0
 total energy-change (2. order) :-0.7799412E-05  (-0.1291434E-05)
 number of electron      21.9999992 magnetization 
 augmentation part        8.1725514 magnetization 

 DIPCOR: dipole corrections for dipol
 direction  3 min pos     1,
 dipolmoment           0.000000      0.000000     -0.000004 electrons x Angstroem
 Tr[quadrupol]     -4015.786813

 energy correction for charged system         0.000000 eV
 dipol+quadrupol energy correction           -0.000000 eV
 added-field ion interaction          0.000005 eV  (added to PSCEN)


 Free energy of the ion-electron system (eV)
  ---------------------------------------------------
  alpha Z        PSCENC =         0.47150496
  Ewald energy   TEWEN  =       231.30967022
  -Hartree energ DENC   =     -2003.56828251
  -exchange      EXHF   =         0.00000000
  -V(xc)+E(xc)   XCENC  =        27.84624467
  PAW double counting   =      1845.46015157    -1800.71012717
  entropy T*S    EENTRO =        -0.00000000
  eigenvalues    EBANDS =      -157.13472667
  atomic energy  EATOM  =      1858.86266374
  ---------------------------------------------------
  free energy    TOTEN  =         2.53709880 eV

  energy without entropy =        2.53709880  energy(sigma->0) =        2.53709880


--------------------------------------------------------------------------------------------------------




--------------------------------------- Iteration      1(  15)  ---------------------------------------


    POTLOK:  cpu time      1.0421: real time      1.0424
    SETDIJ:  cpu time      0.1353: real time      0.1353
    TRIAL :  cpu time      0.2604: real time      0.2604
    CORREC:  cpu time      1.8222: real time      1.8226
    CHARGE:  cpu time      0.5729: real time      0.5731
    --------------------------------------------
      LOOP:  cpu time      3.8368: real time      3.8482

 eigenvalue-minimisations  :     0
 total energy-change (2. order) :-0.1237440E-05  (-0.2205943E-06)
 number of electron      21.9999992 magnetization 
 augmentation part        8.1724391 magnetization 

 DIPCOR: dipole corrections for dipol
 direction  3 min pos     1,
 dipolmoment           0.000000      0.000000     -0.000004 electrons x Angstroem
 Tr[quadrupol]     -4015.786610

 energy correction for charged system         0.000000 eV
 dipol+quadrupol energy correction           -0.000000 eV
 added-field ion interaction          0.000005 eV  (added to PSCEN)


 Free energy of the ion-electron system (eV)
  ---------------------------------------------------
  alpha Z        PSCENC =         0.47150493
  Ewald energy   TEWEN  =       231.30967022
  -Hartree energ DENC   =     -2003.59170885
  -exchange      EXHF   =         0.00000000
  -V(xc)+E(xc)   XCENC  =        27.84701084
  PAW double counting   =      1845.52376844    -1800.77397189
  entropy T*S    EENTRO =        -0.00000000
  eigenvalues    EBANDS =      -157.11183988
  atomic energy  EATOM  =      1858.86266374
  ---------------------------------------------------
  free energy    TOTEN  =         2.53709756 eV

  energy without entropy =        2.53709756  energy(sigma->0) =        2.53709756


--------------------------------------------------------------------------------------------------------




--------------------------------------- Iteration      1(  16)  ---------------------------------------


    POTLOK:  cpu time      1.0417: real time      1.0418
    SETDIJ:  cpu time      0.1346: real time      0.1346
    TRIAL :  cpu time      0.2625: real time      0.2625
    CORREC:  cpu time      1.8237: real time      1.8240
    EDDIAG:  cpu time      0.1166: real time      0.1172
    CHARGE:  cpu time      0.5721: real time      0.5723
    --------------------------------------------
      LOOP:  cpu time      3.9560: real time      3.9675

 eigenvalue-minimisations  :     0
 total energy-change (2. order) :-0.2135705E-06  (-0.6062719E-07)
 number of electron      21.9999992 magnetization 
 augmentation part        8.1724014 magnetization 

 DIPCOR: dipole corrections for dipol
 direction  3 min pos     1,
 dipolmoment           0.000000      0.000000     -0.000004 electrons x Angstroem
 Tr[quadrupol]     -4015.786556

 energy correction for charged system         0.000000 eV
 dipol+quadrupol energy correction           -0.000000 eV
 added-field ion interaction          0.000005 eV  (added to PSCEN)


 Free energy of the ion-electron system (eV)
  ---------------------------------------------------
  alpha Z        PSCENC =         0.47150493
  Ewald energy   TEWEN  =       231.30967022
  -Hartree energ DENC   =     -2003.57462144
  -exchange      EXHF   =         0.00000000
  -V(xc)+E(xc)   XCENC  =        27.84645750
  PAW double counting   =      1845.49981581    -1800.75032808
  entropy T*S    EENTRO =        -0.00000000
  eigenvalues    EBANDS =      -157.12806533
  atomic energy  EATOM  =      1858.86266374
  ---------------------------------------------------
  free energy    TOTEN  =         2.53709735 eV

  energy without entropy =        2.53709735  energy(sigma->0) =        2.53709735


--------------------------------------------------------------------------------------------------------


  average scaling for gradient   1.3856


 average (electrostatic) potential at core
  the test charge radii are     1.2098
  (the norm of the test charge is              1.0000)
       1 -76.6429       2 -76.6429



 E-fermi :  -6.1611     XC(G=0):  -0.2026     alpha+bet : -0.0481

 Fermi energy:        -6.1611032847

 k-point     1 :       0.0000    0.0000    0.0000
  band No.  band energies     occupation 
      1      -9.1356      2.00000
      2      -7.9778      2.00000
      3      -7.9778      2.00000
      4      -7.0362      2.00000
      5      -7.0362      2.00000
      6      -6.7192      2.00000
      7      -6.7192      2.00000
      8      -6.5940      2.00000
      9      -6.4768      2.00000
     10      -6.4768      2.00000
     11      -6.4174      2.00000
     12      -4.5099      0.00000
     13      -1.4205      0.00000
     14      -1.4203      0.00000
     15      -1.0722      0.00000
     16      -0.0369      0.00000
     17       0.1041      0.00000
     18       0.1516      0.00000
     19       0.1842      0.00000
     20       0.2469      0.00000
     21       0.2851      0.00000
     22       0.3088      0.00000
     23       0.3475      0.00000
     24       0.4202      0.00000
     25       0.5284      0.00000
     26       0.5667      0.00000
     27       0.5760      0.00000
     28       0.6104      0.00000
     29       0.6395      0.00000
     30       0.6439      0.00000
     31       0.6497      0.00000
     32       0.6526      0.00000
     33       0.6675      0.00000
     34       0.6765      0.00000
     35       0.6808      0.00000
     36       0.7270      0.00000
     37       0.8968      0.00000
     38       0.9278      0.00000
     39       0.9316      0.00000
     40       0.9446      0.00000
     41       0.9504      0.00000
     42       0.9659      0.00000
     43       0.9708      0.00000
     44       1.0586      0.00000
     45       1.1104      0.00000
     46       1.2194      0.00000
     47       1.2422      0.00000
     48       1.2859      0.00000
     49       1.3056      0.00000
     50       1.3694      0.00000
     51       1.4052      0.00000
     52       1.4182      0.00000
     53       1.4200      0.00000
     54       1.4901      0.00000
     55       1.5241      0.00000
     56       1.5327      0.00000
     57       1.5387      0.00000
     58       1.5397      0.00000
     59       1.5561      0.00000
     60       1.5697      0.00000
     61       1.5982      0.00000
     62       1.6094      0.00000
     63       1.6103      0.00000
     64       1.6143      0.00000
     65       1.6301      0.00000
     66       1.6514      0.00000
     67       1.6606      0.00000
     68       1.6634      0.00000
     69       1.6703      0.00000
     70       1.6733      0.00000
     71       1.6869      0.00000
     72       1.7108      0.00000
     73       1.7150      0.00000
     74       1.7580      0.00000
     75       1.7676      0.00000
     76       1.7937      0.00000
     77       1.8299      0.00000
     78       1.8341      0.00000
     79       1.8742      0.00000
     80       1.8923      0.00000
     81       1.9055      0.00000
     82       1.9112      0.00000
     83       1.9127      0.00000
     84       1.9356      0.00000
     85       1.9364      0.00000
     86       1.9427      0.00000
     87       1.9489      0.00000
     88       1.9547      0.00000
     89       1.9587      0.00000
     90       1.9613      0.00000
     91       1.9654      0.00000
     92       1.9815      0.00000
     93       1.9933      0.00000
     94       1.9998      0.00000
     95       2.0659      0.00000
     96       2.0729      0.00000
     97       2.0802      0.00000
     98       2.0923      0.00000
     99       2.3918      0.00000
    100       2.3985      0.00000
    101       2.4048      0.00000
    102       2.4360      0.00000
    103       2.4753      0.00000
    104       2.4765      0.00000
    105       2.5343      0.00000
    106       2.5350      0.00000
    107       2.5958      0.00000
    108       2.5971      0.00000
    109       2.6011      0.00000
    110       2.6405      0.00000
    111       2.6547      0.00000
    112       2.6979      0.00000
    113       2.7000      0.00000
    114       2.7058      0.00000
    115       2.7082      0.00000
    116       2.7231      0.00000
    117       2.7694      0.00000
    118       2.8250      0.00000
    119       2.8256      0.00000
    120       2.8537      0.00000
    121       2.8557      0.00000
    122       2.8733      0.00000
    123       2.8778      0.00000
    124       2.8787      0.00000
    125       2.8817      0.00000
    126       2.8912      0.00000
    127       2.8979      0.00000
    128       2.9031      0.00000


--------------------------------------------------------------------------------------------------------


 soft charge-density along one line, spin component           1
         0         1         2         3         4         5         6         7         8         9
 total charge-density along one line

 pseudopotential strength for first ion, spin component:           1
 -9.317   0.000  -0.068  -0.000  -0.000  -9.439   0.000  -0.067
  0.000  -9.247   0.000   0.049   0.000   0.000  -9.371   0.000
 -0.068   0.000  -9.238  -0.000   0.000  -0.067   0.000  -9.362
 -0.000   0.049  -0.000  -9.247  -0.000  -0.000   0.048  -0.000
 -0.000   0.000   0.000  -0.000  -9.296  -0.000   0.000   0.000
 -9.439   0.000  -0.067  -0.000  -0.000  -9.546   0.000  -0.065
  0.000  -9.371   0.000   0.048   0.000   0.000  -9.479   0.000
 -0.067   0.000  -9.362  -0.000   0.000  -0.065   0.000  -9.470
 -0.000   0.048  -0.000  -9.371  -0.000  -0.000   0.047  -0.000
 -0.000   0.000   0.000  -0.000  -9.419  -0.000   0.000   0.000
 -0.039   0.000  -0.023  -0.000   0.000  -0.039   0.000  -0.023
 -0.057   0.000  -0.033  -0.000   0.000  -0.057   0.000  -0.033
  0.025  -0.000   0.014   0.000   0.026   0.024  -0.000   0.014
  0.000  -0.026   0.000   0.026  -0.000   0.000  -0.025   0.000
 -0.025   0.000  -0.014  -0.000   0.026  -0.024   0.000  -0.014
  0.029  -0.000   0.017   0.000   0.029   0.029  -0.000   0.016
  0.000  -0.029   0.000   0.029  -0.000   0.000  -0.029   0.000
 -0.029   0.000  -0.017  -0.000   0.029  -0.029   0.000  -0.016
 total augmentation occupancy for first ion, spin component:           1
  2.969   0.000   0.393   0.000  -0.000  -1.154   0.000  -0.574   0.000   0.000   1.350  -0.166   0.120   0.000  -0.120   0.013
  0.000   2.504   0.000  -0.215   0.000   0.000  -0.419  -0.000   0.258  -0.000   0.000   0.000  -0.000  -0.032  -0.000   0.000
  0.393   0.000   2.515   0.000  -0.000  -0.574   0.000  -0.492   0.000   0.000   0.779  -0.096   0.069   0.000  -0.069   0.008
  0.000  -0.215   0.000   2.504   0.000   0.000   0.258   0.000  -0.419   0.000   0.000   0.000  -0.000   0.032   0.000   0.000
 -0.000   0.000  -0.000   0.000   2.719   0.000   0.000   0.000   0.000  -0.676  -0.000   0.000   0.032   0.000   0.032   0.026
 -1.154   0.000  -0.574   0.000   0.000   1.276   0.000   0.716   0.000  -0.000  -1.107   0.147  -0.179   0.000   0.179   0.011
  0.000  -0.419   0.000   0.258   0.000   0.000   0.329   0.000  -0.293   0.000   0.000   0.000   0.000   0.056   0.000   0.000
 -0.574   0.000  -0.492   0.000   0.000   0.716   0.000   0.449   0.000  -0.000  -0.639   0.085  -0.103  -0.000   0.103   0.006
  0.000   0.258   0.000  -0.419   0.000   0.000  -0.293   0.000   0.329   0.000   0.000   0.000  -0.000  -0.056  -0.000   0.000
  0.000  -0.000   0.000   0.000  -0.676  -0.000   0.000  -0.000   0.000   0.623   0.000  -0.000  -0.056   0.000  -0.056   0.000
  1.350   0.000   0.779   0.000  -0.000  -1.107   0.000  -0.639   0.000   0.000   1.575  -0.143   0.167  -0.000  -0.167  -0.007
 -0.166   0.000  -0.096  -0.000   0.000   0.147   0.000   0.085   0.000  -0.000  -0.143   0.018  -0.020   0.000   0.020   0.001
  0.120  -0.000   0.069   0.000   0.032  -0.179   0.000  -0.103  -0.000  -0.056   0.167  -0.020   0.033   0.000  -0.022  -0.003
  0.000  -0.032   0.000   0.032   0.000   0.000   0.056  -0.000  -0.056   0.000  -0.000   0.000   0.000   0.011   0.000   0.000
 -0.120  -0.000  -0.069   0.000   0.032   0.179   0.000   0.103  -0.000  -0.056  -0.167   0.020  -0.022   0.000   0.033   0.002
  0.013   0.000   0.008   0.000   0.026   0.011   0.000   0.006   0.000   0.000  -0.007   0.001  -0.003   0.000   0.002   0.001
 -0.000  -0.026  -0.000   0.026   0.000   0.000  -0.000  -0.000   0.000  -0.000   0.000  -0.000   0.000  -0.001   0.000   0.000
 -0.013   0.000  -0.008   0.000   0.026  -0.011   0.000  -0.006   0.000   0.000   0.007  -0.001   0.002  -0.000  -0.003  -0.000


------------------------ aborting loop because EDIFF is reached ----------------------------------------


    FORLOC:  cpu time      0.0013: real time      0.0013
    FORNL :  cpu time      0.1176: real time      0.1178
    STRESS:  cpu time      0.3532: real time      0.3535
    FORCOR:  cpu time      0.9959: real time      0.9961
    OFIELD:  cpu time      0.0002: real time      0.0002

  FORCE on cell =-STRESS in cart. coord.  units (eV):
  Direction    XX          YY          ZZ          XY          YZ          ZX
  --------------------------------------------------------------------------------------
  Alpha Z     0.47150     0.47150     0.47150
  Ewald     199.94002   199.94002  -168.57042  -340.87387     0.00000    -0.00000
  Hartree   752.27044   752.27044   499.02788  -226.19059     0.00000     0.00000
  E(xc)     -98.33439   -98.33439   -98.65995    -0.32556     0.00000    -0.00000
  Local   -1283.33114 -1283.33114  -676.44494   552.19905    -0.00000     0.00000
  n-local   -15.59187   -15.59187    -6.99839     8.59681    -0.00000     0.00000
  augment   135.05829   135.05830   136.92821     1.86972     0.00000     0.00001
  Kinetic   309.15473   309.15473   314.21685     5.06099    -0.00000    -0.00000
  Fock        0.00000     0.00000     0.00000     0.00000     0.00000     0.00000
  -------------------------------------------------------------------------------------
  Total      -0.36242    -0.36242    -0.02927     0.33656     0.00000     0.00000
  in kB      -0.05876    -0.05876    -0.00475     0.05457     0.00000     0.00000
  external pressure =       -0.04 kB  Pullay stress =        0.00 kB


 VOLUME and BASIS-vectors are now :
 -----------------------------------------------------------------------------
  energy-cutoff  :      520.00
  volume of cell :     9881.61
      direct lattice vectors                 reciprocal lattice vectors
    21.138852197  0.000000000  0.000000000     0.047306258  0.000000000  0.000000000
     0.000000000 21.138852197  0.000000000     0.000000000  0.047306258  0.000000000
     0.000000000  0.000000000 22.113885220     0.000000000  0.000000000  0.045220457

  length of vectors
    21.138852197 21.138852197 22.113885220     0.047306258  0.047306258  0.045220457


 FORCES acting on ions:
    Electron-Ion                     Ewald-Force                    Non-Local-Force
 -----------------------------------------------------------------------------------------------
   -.196E+03 0.196E+03 0.252E-04   0.191E+03 -.191E+03 0.316E-17   0.506E+01 -.506E+01 -.321E-19
   0.196E+03 -.196E+03 0.252E-04   -.191E+03 0.191E+03 -.371E-16   -.506E+01 0.506E+01 0.322E-19
 -----------------------------------------------------------------------------------------------
   0.527E-04 -.240E-03 0.487E-04   0.000E+00 0.000E+00 -.339E-16   0.000E+00 0.888E-15 0.107E-21


 POSITION                                       TOTAL-FORCE (eV/Angst)
 -----------------------------------------------------------------------------------
     10.40626      8.61871     13.92428        -0.189118      0.189118      0.000000
      8.61871     10.40626     13.92428         0.189118     -0.189118     -0.000000
 -----------------------------------------------------------------------------------
    total drift:                                0.000053     -0.000240      0.000049


--------------------------------------------------------------------------------------------------------



  FREE ENERGIE OF THE ION-ELECTRON SYSTEM (eV)
  ---------------------------------------------------
  free  energy   TOTEN  =         2.53709735 eV

  energy  without entropy=        2.53709735  energy(sigma->0) =        2.53709735



--------------------------------------------------------------------------------------------------------


    POTLOK:  cpu time      1.1998: real time      1.2004


--------------------------------------------------------------------------------------------------------


     LOOP+:  cpu time     60.2068: real time     60.3561
    4ORBIT:  cpu time      0.0000: real time      0.0000

 total amount of memory used by VASP MPI-rank0   117535. kBytes
=======================================================================

   base      :      30000. kBytes
   nonlr-proj:        711. kBytes
   fftplans  :      35317. kBytes
   grid      :      48291. kBytes
   one-center:         15. kBytes
   wavefun   :       3201. kBytes

  
  
 General timing and accounting informations for this job:
 ========================================================
  
                  Total CPU time used (sec):       91.669
                            User time (sec):       89.341
                          System time (sec):        2.328
                         Elapsed time (sec):      103.146
  
                   Maximum memory used (kb):      386016.
                   Average memory used (kb):          N/A
  
                          Minor page faults:        70360
                          Major page faults:            0
                 Voluntary context switches:        12431
