 vasp.6.3.0 20Jan22 (build Apr  1 2022 16:44:48) complex                         
 executed on        HPECrayEX_GCC date 2023.01.06  21:32:25
 running  768 mpi-ranks, with    1 threads/rank
 distrk:  each k-point on  384 cores,    2 groups
 distr:  one band on NCORE=   4 cores,   96 groups


--------------------------------------------------------------------------------------------------------


 INCAR:
   SYSTEM = MgO-rocksalt
   ISMEAR = 0
   SIGMA = 0.05
   EDIFF = 1E-6
   ALGO = ALL
   ISTART = 0
   IBRION = -1
   NSW = 0
   ISYM = 2
   GGA = RE
   IVDW = 20
   VDW_SR = 0.6
   ENCUT = 520
   PREC = Accurate
   LASPH = .TRUE.
   LREAL = Auto
   ISPIN = 1
   NELM = 200
   NELMIN = 8
   NCORE = 4
   KPAR = 2
   LWAVE = .FALSE.
   LCHARG = .FALSE.

 POTCAR:    PAW_PBE Cu 22Jun2005                  
 POTCAR:    PAW_PBE Cu 22Jun2005                  
   SHA256 =  0e71e558f37a4e8407882b4609ceaae59938afaad9ced71dfe8490308a0ab630 Cu/POTCAR             
   COPYR  = (c) Copyright 22Jun2005 Georg Kresse                                                    
   COPYR  = This file is part of the software VASP. Any use, copying, and all other rights are regul
   COPYR  = If you do not have a valid VASP license, you may not use, copy or distribute this file. 
   VRHFIN =Cu: d10 p1                                                                               
   LEXCH  = PE                                                                                      
   EATOM  =  1390.9808 eV,  102.2342 Ry                                                             
                                                                                                    
   TITEL  = PAW_PBE Cu 22Jun2005                                                                    
   LULTRA =        F    use ultrasoft PP ?                                                          
   IUNSCR =        1    unscreen: 0-lin 1-nonlin 2-no                                               
   RPACOR =    2.000    partial core radius                                                         
   POMASS =   63.546; ZVAL   =   11.000    mass and valenz                                          
   RCORE  =    2.300    outmost cutoff radius                                                       
   RWIGS  =    2.200; RWIGS  =    1.164    wigner-seitz radius (au A)                               
   ENMAX  =  295.446; ENMIN  =  221.585 eV                                                          
   ICORE  =        3    local potential                                                             
   LCOR   =        T    correct aug charges                                                         
   LPAW   =        T    paw PP                                                                      
   EAUG   =  586.980                                                                                
   DEXC   =    0.000                                                                                
   RMAX   =    2.344    core radius for proj-oper                                                   
   RAUG   =    1.300    factor for augmentation sphere                                              
   RDEP   =    2.302    radius for radial grids                                                     
   RDEPT  =    1.771    core radius for aug-charge                                                  
                                                                                                    
   Atomic configuration                                                                             
    9 entries                                                                                       
     n  l   j            E        occ.                                                              
     1  0  0.50     -8850.2468   2.0000                                                             
     2  0  0.50     -1062.3498   2.0000                                                             
     2  1  1.50      -916.8226   6.0000                                                             
     3  0  0.50      -114.6929   2.0000                                                             
     3  1  1.50       -72.1325   6.0000                                                             
     3  2  2.50        -5.0394  10.0000                                                             
     4  0  0.50        -4.6097   1.0000                                                             
     4  1  0.50        -4.0817   0.0000                                                             
     4  3  2.50        -1.3606   0.0000                                                             
   Description                                                                                      
     l       E           TYP  RCUT    TYP  RCUT                                                     
     2     -5.0393973     23  2.200                                                                 
     2     10.8846608     23  2.200                                                                 
     0     -4.6097109     23  2.200                                                                 
     0      8.2520465     23  2.200                                                                 
     1     -2.7211652     23  2.200                                                                 
     1     21.7055443     23  2.200                                                                 
     3      2.7211652     23  2.300                                                                 
  local pseudopotential read in
  partial core-charges read in
  partial kinetic energy density read in
  atomic valenz-charges read in
  non local Contribution for L=           2  read in
    real space projection operators read in
  non local Contribution for L=           2  read in
    real space projection operators read in
  non local Contribution for L=           0  read in
    real space projection operators read in
  non local Contribution for L=           0  read in
    real space projection operators read in
  non local Contribution for L=           1  read in
    real space projection operators read in
  non local Contribution for L=           1  read in
    real space projection operators read in
    PAW grid and wavefunctions read in

   number of l-projection  operators is LMAX  =           6
   number of lm-projection operators is LMMAX =          18

 -----------------------------------------------------------------------------
|                                                                             |
|               ----> ADVICE to this user running VASP <----                  |
|                                                                             |
|     You have a (more or less) 'small supercell' and for smaller cells       |
|     it is recommended to use the reciprocal-space projection scheme!        |
|     The real-space optimization is not efficient for small cells and it     |
|     is also less accurate ...                                               |
|     Therefore, set LREAL=.FALSE. in the INCAR file.                         |
|                                                                             |
 -----------------------------------------------------------------------------

 Optimization of the real space projectors (new method)

 maximal supplied QI-value         = 16.25
 optimisation between [QCUT,QGAM] = [ 11.54, 23.24] = [ 37.28,151.24] Ry 
 Optimized for a Real-space Cutoff    1.53 Angstroem

   l    n(q)    QCUT    max X(q) W(low)/X(q) W(high)/X(q)  e(spline) 
   2     10    11.539     4.610    0.96E-04    0.13E-03    0.19E-06
   2     10    11.539     8.522    0.16E-03    0.21E-03    0.28E-06
   0     11    11.539    51.609    0.45E-04    0.31E-04    0.11E-06
   0     11    11.539    27.747    0.39E-04    0.29E-04    0.10E-06
   1     10    11.539    20.408    0.70E-05    0.38E-04    0.18E-06
   1     10    11.539    13.425    0.66E-05    0.34E-04    0.17E-06
 -----------------------------------------------------------------------------
|                                                                             |
|               ----> ADVICE to this user running VASP <----                  |
|                                                                             |
|     You enforced a specific xc type in the INCAR file but a different       |
|     type was found in the POTCAR file.                                      |
|     I HOPE YOU KNOW WHAT YOU ARE DOING!                                     |
|                                                                             |
 -----------------------------------------------------------------------------

  PAW_PBE Cu 22Jun2005                  :
 energy of atom  1       EATOM=-1390.9808
 kinetic energy error for atom=    0.0037 (will be added to EATOM!!)


 POSCAR: Cu
  positions in direct lattice
  velocities in cartesian coordinates
 exchange correlation table for  LEXCH =       40
   RHO(1)=    0.500       N(1)  =     2000
   RHO(2)=  100.500       N(2)  =     4000



--------------------------------------------------------------------------------------------------------


 ion  position               nearest neighbor table
   1  0.406  0.500  0.513-   6 2.32   2 2.42   5 2.42
   2  0.472  0.588  0.462-   6 2.32   1 2.42   3 2.42
   3  0.588  0.555  0.465-   6 2.32   4 2.42   2 2.42
   4  0.594  0.446  0.518-   6 2.32   3 2.42   5 2.42
   5  0.482  0.412  0.547-   6 2.32   1 2.42   4 2.42
   6  0.503  0.476  0.453-   4 2.32   3 2.32   2 2.32   1 2.32   5 2.32

  LATTYP: Found a simple cubic cell.
 ALAT       =    20.0000000000
  
  Lattice vectors:
  
 A1 = (  20.0000000000,   0.0000000000,   0.0000000000)
 A2 = (   0.0000000000,  20.0000000000,   0.0000000000)
 A3 = (   0.0000000000,   0.0000000000,  20.0000000000)


Analysis of symmetry for initial positions (statically):
=====================================================================
 Subroutine PRICEL returns:
 Original cell was already a primitive cell.
 

 Routine SETGRP: Setting up the symmetry group for a 
 simple cubic supercell.


 Subroutine GETGRP returns: Found  1 space group operations
 (whereof  1 operations were pure point group operations)
 out of a pool of 48 trial point group operations.


The static configuration has the point symmetry C_1 .


Analysis of symmetry for dynamics (positions and initial velocities):
=====================================================================
 Subroutine PRICEL returns:
 Original cell was already a primitive cell.
 

 Routine SETGRP: Setting up the symmetry group for a 
 simple cubic supercell.


 Subroutine GETGRP returns: Found  1 space group operations
 (whereof  1 operations were pure point group operations)
 out of a pool of 48 trial point group operations.


The dynamic configuration has the point symmetry C_1 .


 Subroutine INISYM returns: Found  1 space group operations
 (whereof  1 operations are pure point group operations),
 and found     1 'primitive' translations


----------------------------------------------------------------------------------------

                                     Primitive cell                                     

  volume of cell :    8000.0000

  direct lattice vectors                    reciprocal lattice vectors
    20.000000000  0.000000000  0.000000000     0.050000000  0.000000000  0.000000000
     0.000000000 20.000000000  0.000000000     0.000000000  0.050000000  0.000000000
     0.000000000  0.000000000 20.000000000     0.000000000  0.000000000  0.050000000

  length of vectors
    20.000000000 20.000000000 20.000000000     0.050000000  0.050000000  0.050000000

  position of ions in fractional coordinates (direct lattice)
     0.405864885  0.499792820  0.512818480
     0.471543603  0.587963665  0.461783868
     0.588043671  0.554508022  0.464813523
     0.594240613  0.445740599  0.518004839
     0.481644225  0.411733022  0.547396217
     0.502838989  0.476457830  0.453320812

  ion indices of the primitive-cell ions
   primitive index   ion index
                 1           1
                 2           2
                 3           3
                 4           4
                 5           5
                 6           6

----------------------------------------------------------------------------------------



 KPOINTS: KPOINTS created by Atomic Simulation Env

Automatic generation of k-mesh.
 Grid dimensions read from file:
 generate k-points for:    1    1    1

 Generating k-lattice:

  Cartesian coordinates                     Fractional coordinates (reciprocal lattice)
     0.050000000  0.000000000  0.000000000     1.000000000  0.000000000  0.000000000
     0.000000000  0.050000000  0.000000000     0.000000000  1.000000000  0.000000000
     0.000000000  0.000000000  0.050000000     0.000000000  0.000000000  1.000000000

  Length of vectors
     0.050000000  0.050000000  0.050000000

  Shift w.r.t. Gamma in fractional coordinates (k-lattice)
     0.000000000  0.000000000  0.000000000

 
 Subroutine IBZKPT returns following result:
 ===========================================
 
 Found      1 irreducible k-points:
 
 Following reciprocal coordinates:
            Coordinates               Weight
  0.000000  0.000000  0.000000      1.000000
 
 Following cartesian coordinates:
            Coordinates               Weight
  0.000000  0.000000  0.000000      1.000000
 


--------------------------------------------------------------------------------------------------------




 Dimension of arrays:
   k-points           NKPTS =      1   k-points in BZ     NKDIM =      1   number of bands    NBANDS=     96
   number of dos      NEDOS =    301   number of ions     NIONS =      6
   non local maximal  LDIM  =      6   non local SUM 2l+1 LMDIM =     18
   total plane-waves  NPLWV = ******
   max r-space proj   IRMAX =   6426   max aug-charges    IRDMAX=  12418
   dimension x,y,z NGX =   150 NGY =  150 NGZ =  150
   dimension x,y,z NGXF=   300 NGYF=  300 NGZF=  300
   support grid    NGXF=   300 NGYF=  300 NGZF=  300
   ions per type =               6
   NGX,Y,Z   is equivalent  to a cutoff of  12.47, 12.47, 12.47 a.u.
   NGXF,Y,Z  is equivalent  to a cutoff of  24.94, 24.94, 24.94 a.u.

 SYSTEM =  MgO-rocksalt                            
 POSCAR =  Cu                                      

 Startparameter for this run:
   NWRITE =      2    write-flag & timer
   PREC   = accura    normal or accurate (medium, high low for compatibility)
   ISTART =      0    job   : 0-new  1-cont  2-samecut
   ICHARG =      2    charge: 1-file 2-atom 10-const
   ISPIN  =      1    spin polarized calculation?
   LNONCOLLINEAR =      F non collinear calculations
   LSORBIT =      F    spin-orbit coupling
   INIWAV =      1    electr: 0-lowe 1-rand  2-diag
   LASPH  =      T    aspherical Exc in radial PAW
 Electronic Relaxation 1
   ENCUT  =  520.0 eV  38.22 Ry    6.18 a.u.  37.19 37.19 37.19*2*pi/ulx,y,z
   ENINI  =  520.0     initial cutoff
   ENAUG  =  587.0 eV  augmentation charge cutoff
   NELM   =    200;   NELMIN=  8; NELMDL= -5     # of ELM steps 
   EDIFF  = 0.1E-05   stopping-criterion for ELM
   LREAL  =      T    real-space projection
   NLSPLINE    = F    spline interpolate recip. space projectors
   LCOMPAT=      F    compatible to vasp.4.4
   GGA_COMPAT  = T    GGA compatible to vasp.4.4-vasp.4.6
   LMAXPAW     = -100 max onsite density
   LMAXMIX     =    2 max onsite mixed and CHGCAR
   VOSKOWN=      0    Vosko Wilk Nusair interpolation
   ROPT   =   -0.00025
 Ionic relaxation
   EDIFFG = 0.1E-04   stopping-criterion for IOM
   NSW    =      0    number of steps for IOM
   NBLOCK =      1;   KBLOCK =      1    inner block; outer block 
   IBRION =     -1    ionic relax: 0-MD 1-quasi-New 2-CG
   NFREE  =      0    steps in history (QN), initial steepest desc. (CG)
   ISIF   =      2    stress and relaxation
   IWAVPR =     10    prediction:  0-non 1-charg 2-wave 3-comb
   ISYM   =      2    0-nonsym 1-usesym 2-fastsym
   LCORR  =      T    Harris-Foulkes like correction to forces

   POTIM  = 0.5000    time-step for ionic-motion
   TEIN   =    0.0    initial temperature
   TEBEG  =    0.0;   TEEND  =   0.0 temperature during run
   SMASS  =  -3.00    Nose mass-parameter (am)
   estimated Nose-frequenzy (Omega)   =  0.10E-29 period in steps = 0.13E+47 mass=  -0.914E-26a.u.
   SCALEE = 1.0000    scale energy and forces
   NPACO  =    256;   APACO  = 10.0  distance and # of slots for P.C.
   PSTRESS=    0.0 pullay stress

  Mass of Ions in am
   POMASS =  63.55
  Ionic Valenz
   ZVAL   =  11.00
  Atomic Wigner-Seitz radii
   RWIGS  =  -1.00
  virtual crystal weights 
   VCA    =   1.00
   NELECT =      66.0000    total number of electrons
   NUPDOWN=      -1.0000    fix difference up-down

 DOS related values:
   EMIN   =  10.00;   EMAX   =-10.00  energy-range for DOS
   EFERMI =   0.00
   ISMEAR =     0;   SIGMA  =   0.05  broadening in eV -4-tet -1-fermi 0-gaus

 Electronic relaxation 2 (details)
   IALGO  =     58    algorithm
   LDIAG  =      T    sub-space diagonalisation (order eigenvalues)
   LSUBROT=      F    optimize rotation matrix (better conditioning)
   TURBO    =      0    0=normal 1=particle mesh
   IRESTART =      0    0=no restart 2=restart with 2 vectors
   NREBOOT  =      0    no. of reboots
   NMIN     =      0    reboot dimension
   EREF     =   0.00    reference energy to select bands
   IMIX   =      4    mixing-type and parameters
     AMIX     =   0.40;   BMIX     =  1.00
     AMIX_MAG =   1.60;   BMIX_MAG =  1.00
     AMIN     =   0.10
     WC   =   100.;   INIMIX=   1;  MIXPRE=   1;  MAXMIX= -45

 Intra band minimization:
   WEIMIN = 0.0000     energy-eigenvalue tresh-hold
   EBREAK =  0.26E-08  absolut break condition
   DEPER  =   0.30     relativ break condition  

   TIME   =   0.40     timestep for ELM

  volume/ion in A,a.u.               =    1333.33      8997.78
  Fermi-wavevector in a.u.,A,eV,Ry     =   0.330795  0.625113  1.488826  0.109426
  Thomas-Fermi vector in A             =   1.226404

 Write flags
   LWAVE        =      F    write WAVECAR
   LDOWNSAMPLE  =      F    k-point downsampling of WAVECAR
   LCHARG       =      F    write CHGCAR
   LVTOT        =      F    write LOCPOT, total local potential
   LVHAR        =      F    write LOCPOT, Hartree potential only
   LELF         =      F    write electronic localiz. function (ELF)
   LORBIT       =      0    0 simple, 1 ext, 2 COOP (PROOUT), +10 PAW based schemes


 Dipole corrections
   LMONO  =      F    monopole corrections only (constant potential shift)
   LDIPOL =      F    correct potential (dipole corrections)
   IDIPOL =      0    1-x, 2-y, 3-z, 4-all directions 
   EPSILON=  1.0000000 bulk dielectric constant

 Exchange correlation treatment:
   GGA     =    RE    GGA type
   LEXCH   =    40    internal setting for exchange type
   LIBXC   =     F    Libxc                    
   VOSKOWN =     0    Vosko Wilk Nusair interpolation
   LHFCALC =     F    Hartree Fock is set to
   LHFONE  =     F    Hartree Fock one center treatment
   AEXX    =    0.0000 exact exchange contribution

 Linear response parameters
   LEPSILON=     F    determine dielectric tensor
   LRPA    =     F    only Hartree local field effects (RPA)
   LNABLA  =     F    use nabla operator in PAW spheres
   LVEL    =     F    velocity operator in full k-point grid
   CSHIFT  =0.1000    complex shift for real part using Kramers Kronig
   OMEGAMAX=  -1.0    maximum frequency
   DEG_THRESHOLD= 0.2000000E-02 threshold for treating states as degnerate
   RTIME   =   -0.100 relaxation time in fs
  (WPLASMAI=    0.000 imaginary part of plasma frequency in eV, 0.658/RTIME)
   DFIELD  = 0.0000000 0.0000000 0.0000000 field for delta impulse in time

  Optional k-point grid parameters
   LKPOINTS_OPT  =     F    use optional k-point grid
   KPOINTS_OPT_MODE=     1    mode for optional k-point grid

 Orbital magnetization related:
   ORBITALMAG=     F  switch on orbital magnetization
   LCHIMAG   =     F  perturbation theory with respect to B field
   DQ        =  0.001000  dq finite difference perturbation B field
   LLRAUG    =     F  two centre corrections for induced B field



--------------------------------------------------------------------------------------------------------


 Static calculation
 charge density and potential will be updated during run
 non-spin polarized calculation
 Conjugate gradient for all bands (Freysoldt, et al. PRB 79, 241103 (2009))
 preconditioned conjugated gradient                                        
 perform sub-space diagonalisation
    before iterative eigenvector-optimisation
 modified Broyden-mixing scheme, WC =      100.0
 initial mixing is a Kerker type mixing with AMIX =  0.4000 and BMIX =      1.0000
 Hartree-type preconditioning will be used
 using additional bands           63
 real space projection scheme for non local part
 use partial core corrections
 no Harris-corrections to forces 
 use gradient corrections 
 use of overlap-Matrix (Vanderbilt PP)
 Gauss-broadening in eV      SIGMA  =   0.05


--------------------------------------------------------------------------------------------------------


  energy-cutoff  :      520.00
  volume of cell :     8000.00
      direct lattice vectors                 reciprocal lattice vectors
    20.000000000  0.000000000  0.000000000     0.050000000  0.000000000  0.000000000
     0.000000000 20.000000000  0.000000000     0.000000000  0.050000000  0.000000000
     0.000000000  0.000000000 20.000000000     0.000000000  0.000000000  0.050000000

  length of vectors
    20.000000000 20.000000000 20.000000000     0.050000000  0.050000000  0.050000000



 k-points in units of 2pi/SCALE and weight: KPOINTS created by Atomic Simulation Env
   0.00000000  0.00000000  0.00000000       1.000

 k-points in reciprocal lattice and weights: KPOINTS created by Atomic Simulation Env
   0.00000000  0.00000000  0.00000000       1.000

 position of ions in fractional coordinates (direct lattice) 
   0.40586489  0.49979282  0.51281848
   0.47154360  0.58796366  0.46178387
   0.58804367  0.55450802  0.46481352
   0.59424061  0.44574060  0.51800484
   0.48164423  0.41173302  0.54739622
   0.50283899  0.47645783  0.45332081

 position of ions in cartesian coordinates  (Angst):
   8.11729770  9.99585641 10.25636960
   9.43087206 11.75927329  9.23567736
  11.76087341 11.09016044  9.29627047
  11.88481226  8.91481199 10.36009678
   9.63288451  8.23466043 10.94792435
  10.05677977  9.52915661  9.06641624



--------------------------------------------------------------------------------------------------------


 k-point   1 :   0.0000 0.0000 0.0000  plane waves:  215503

 maximum and minimum number of plane-waves per node :     53900    53857

 maximum number of plane-waves:    215503
 maximum index in each direction: 
   IXMAX=   37   IYMAX=   37   IZMAX=   37
   IXMIN=  -37   IYMIN=  -37   IZMIN=  -37


 real space projection operators:
  total allocation   :       5221.41 KBytes
  max/ min on nodes  :       1310.34       1299.23


 parallel 3D FFT for wavefunctions:
    minimum data exchange during FFTs selected (reduces bandwidth)
 parallel 3D FFT for charge:
    minimum data exchange during FFTs selected (reduces bandwidth)


 total amount of memory used by VASP MPI-rank0   101856. kBytes
=======================================================================

   base      :      30000. kBytes
   nonlr-proj:       2249. kBytes
   fftplans  :      28354. kBytes
   grid      :      38630. kBytes
   one-center:         31. kBytes
   wavefun   :       2592. kBytes

     INWAV:  cpu time      0.0001: real time      0.0001
 Broyden mixing: mesh for mixing (old mesh)
   NGX = 75   NGY = 75   NGZ = 75
  (NGX  =300   NGY  =300   NGZ  =300)
  gives a total of 421875 points

 initial charge density was supplied:
 charge density of overlapping atoms calculated
 number of electron      66.0000000 magnetization 
 keeping initial charge density in first step


--------------------------------------------------------------------------------------------------------


 Maximum index for non-local projection operator         1551
 Maximum index for augmentation-charges            0 (set IRDMAX)


--------------------------------------------------------------------------------------------------------


 First call to EWALD:  gamma=   0.089
 Maximum number of real-space cells 3x 3x 3
 Maximum number of reciprocal cells 3x 3x 3

    FEWALD:  cpu time      0.0013: real time      0.0013


--------------------------------------- Iteration      1(   1)  ---------------------------------------


    POTLOK:  cpu time      0.1144: real time      0.1145
    SETDIJ:  cpu time      0.1830: real time      0.1830
    TRIAL :  cpu time      0.5452: real time      0.5455
    CORREC:  cpu time      0.0010: real time      0.0010
    --------------------------------------------
      LOOP:  cpu time      0.8447: real time      0.8452

 eigenvalue-minimisations  :   192
 total energy-change (2. order) : 0.3774558E+03  (-0.1498437E+04)
 number of electron      66.0000000 magnetization 
 augmentation part       66.0000000 magnetization 

 Free energy of the ion-electron system (eV)
  ---------------------------------------------------
  alpha Z        PSCENC =         3.29097617
  Ewald energy   TEWEN  =      5176.54465828
  -Hartree energ DENC   =    -12784.61905773
  -exchange      EXHF   =         0.00000000
  -V(xc)+E(xc)   XCENC  =       264.33908900
  PAW double counting   =      7372.84152338    -8002.15338828
  entropy T*S    EENTRO =        -0.09968707
  eigenvalues    EBANDS =         7.09336885
  atomic energy  EATOM  =      8340.21827745
  ---------------------------------------------------
  free energy    TOTEN  =       377.45576005 eV

  energy without entropy =      377.55544712  energy(sigma->0) =      377.50560359


--------------------------------------------------------------------------------------------------------




--------------------------------------- Iteration      1(   2)  ---------------------------------------


    TRIAL :  cpu time      0.5268: real time      0.5268
    CORREC:  cpu time      0.0003: real time      0.0003
    --------------------------------------------
      LOOP:  cpu time      0.5304: real time      0.5344

 eigenvalue-minimisations  :   192
 total energy-change (2. order) :-0.3817572E+03  (-0.3800747E+03)
 number of electron      66.0000000 magnetization 
 augmentation part       66.0000000 magnetization 

 Free energy of the ion-electron system (eV)
  ---------------------------------------------------
  alpha Z        PSCENC =         3.29097617
  Ewald energy   TEWEN  =      5176.54465828
  -Hartree energ DENC   =    -12784.61905773
  -exchange      EXHF   =         0.00000000
  -V(xc)+E(xc)   XCENC  =       264.33908900
  PAW double counting   =      7372.84152338    -8002.15338828
  entropy T*S    EENTRO =        -0.00000000
  eigenvalues    EBANDS =      -374.76348944
  atomic energy  EATOM  =      8340.21827745
  ---------------------------------------------------
  free energy    TOTEN  =        -4.30141117 eV

  energy without entropy =       -4.30141117  energy(sigma->0) =       -4.30141117


--------------------------------------------------------------------------------------------------------




--------------------------------------- Iteration      1(   3)  ---------------------------------------


    TRIAL :  cpu time      0.5452: real time      0.5454
    CORREC:  cpu time      0.0003: real time      0.0003
    --------------------------------------------
      LOOP:  cpu time      0.5493: real time      0.5528

 eigenvalue-minimisations  :   192
 total energy-change (2. order) :-0.9089816E+01  (-0.9089816E+01)
 number of electron      66.0000000 magnetization 
 augmentation part       66.0000000 magnetization 

 Free energy of the ion-electron system (eV)
  ---------------------------------------------------
  alpha Z        PSCENC =         3.29097617
  Ewald energy   TEWEN  =      5176.54465828
  -Hartree energ DENC   =    -12784.61905773
  -exchange      EXHF   =         0.00000000
  -V(xc)+E(xc)   XCENC  =       264.33908900
  PAW double counting   =      7372.84152338    -8002.15338828
  entropy T*S    EENTRO =        -0.00000000
  eigenvalues    EBANDS =      -383.85330568
  atomic energy  EATOM  =      8340.21827745
  ---------------------------------------------------
  free energy    TOTEN  =       -13.39122741 eV

  energy without entropy =      -13.39122741  energy(sigma->0) =      -13.39122741


--------------------------------------------------------------------------------------------------------




--------------------------------------- Iteration      1(   4)  ---------------------------------------


    TRIAL :  cpu time      1.8673: real time      1.8684
    CORREC:  cpu time      0.0003: real time      0.0003
    --------------------------------------------
      LOOP:  cpu time      1.8744: real time      1.8758

 eigenvalue-minimisations  :   384
 total energy-change (2. order) :-0.1945666E+00  (-0.1945666E+00)
 number of electron      66.0000000 magnetization 
 augmentation part       66.0000000 magnetization 

 Free energy of the ion-electron system (eV)
  ---------------------------------------------------
  alpha Z        PSCENC =         3.29097617
  Ewald energy   TEWEN  =      5176.54465828
  -Hartree energ DENC   =    -12784.61905773
  -exchange      EXHF   =         0.00000000
  -V(xc)+E(xc)   XCENC  =       264.33908900
  PAW double counting   =      7372.84152338    -8002.15338828
  entropy T*S    EENTRO =        -0.00000000
  eigenvalues    EBANDS =      -384.04787230
  atomic energy  EATOM  =      8340.21827745
  ---------------------------------------------------
  free energy    TOTEN  =       -13.58579403 eV

  energy without entropy =      -13.58579403  energy(sigma->0) =      -13.58579403


--------------------------------------------------------------------------------------------------------




--------------------------------------- Iteration      1(   5)  ---------------------------------------


    TRIAL :  cpu time      0.5479: real time      0.5479
    CORREC:  cpu time      0.0003: real time      0.0003
    CHARGE:  cpu time      0.0977: real time      0.0980
    --------------------------------------------
      LOOP:  cpu time      0.6525: real time      0.6534

 eigenvalue-minimisations  :   192
 total energy-change (2. order) :-0.2403920E-04  (-0.2403895E-04)
 number of electron      65.9999973 magnetization 
 augmentation part       41.3542484 magnetization 

 Free energy of the ion-electron system (eV)
  ---------------------------------------------------
  alpha Z        PSCENC =         3.29097617
  Ewald energy   TEWEN  =      5176.54465828
  -Hartree energ DENC   =    -12784.61905773
  -exchange      EXHF   =         0.00000000
  -V(xc)+E(xc)   XCENC  =       264.33908900
  PAW double counting   =      7372.84152338    -8002.15338828
  entropy T*S    EENTRO =        -0.00000000
  eigenvalues    EBANDS =      -384.04789634
  atomic energy  EATOM  =      8340.21827745
  ---------------------------------------------------
  free energy    TOTEN  =       -13.58581807 eV

  energy without entropy =      -13.58581807  energy(sigma->0) =      -13.58581807


--------------------------------------------------------------------------------------------------------




--------------------------------------- Iteration      1(   6)  ---------------------------------------


    POTLOK:  cpu time      0.1046: real time      0.1046
    SETDIJ:  cpu time      0.1768: real time      0.1771
    TRIAL :  cpu time      1.3762: real time      1.3766
    CORREC:  cpu time      0.4540: real time      0.4541
    CHARGE:  cpu time      0.0956: real time      0.0958
    --------------------------------------------
      LOOP:  cpu time      2.2141: real time      2.2155

 eigenvalue-minimisations  :     0
 total energy-change (2. order) : 0.6088332E+01  (-0.3168783E+01)
 number of electron      65.9999973 magnetization 
 augmentation part       42.5415380 magnetization 

 Free energy of the ion-electron system (eV)
  ---------------------------------------------------
  alpha Z        PSCENC =         3.29097617
  Ewald energy   TEWEN  =      5176.54465828
  -Hartree energ DENC   =    -12714.63379983
  -exchange      EXHF   =         0.00000000
  -V(xc)+E(xc)   XCENC  =       256.29046848
  PAW double counting   =      7639.71717487    -8241.25765961
  entropy T*S    EENTRO =        -0.00000000
  eigenvalues    EBANDS =      -467.66758229
  atomic energy  EATOM  =      8340.21827745
  ---------------------------------------------------
  free energy    TOTEN  =        -7.49748647 eV

  energy without entropy =       -7.49748647  energy(sigma->0) =       -7.49748647


--------------------------------------------------------------------------------------------------------




--------------------------------------- Iteration      1(   7)  ---------------------------------------


    POTLOK:  cpu time      0.0994: real time      0.0994
    SETDIJ:  cpu time      0.1794: real time      0.1794
    TRIAL :  cpu time      0.2040: real time      0.2040
    CORREC:  cpu time      0.4522: real time      0.4523
    CHARGE:  cpu time      0.0962: real time      0.0964
    --------------------------------------------
      LOOP:  cpu time      1.0383: real time      1.0387

 eigenvalue-minimisations  :     0
 total energy-change (2. order) :-0.2988236E+01  (-0.8098221E+00)
 number of electron      65.9999973 magnetization 
 augmentation part       42.3763279 magnetization 

 Free energy of the ion-electron system (eV)
  ---------------------------------------------------
  alpha Z        PSCENC =         3.29097617
  Ewald energy   TEWEN  =      5176.54465828
  -Hartree energ DENC   =    -12847.93480799
  -exchange      EXHF   =         0.00000000
  -V(xc)+E(xc)   XCENC  =       262.19337143
  PAW double counting   =      7717.35771188    -8363.44382003
  entropy T*S    EENTRO =        -0.00000000
  eigenvalues    EBANDS =      -298.71208933
  atomic energy  EATOM  =      8340.21827745
  ---------------------------------------------------
  free energy    TOTEN  =       -10.48572214 eV

  energy without entropy =      -10.48572214  energy(sigma->0) =      -10.48572214


--------------------------------------------------------------------------------------------------------




--------------------------------------- Iteration      1(   8)  ---------------------------------------


    POTLOK:  cpu time      0.0985: real time      0.0985
    SETDIJ:  cpu time      0.1796: real time      0.1796
    TRIAL :  cpu time      0.2043: real time      0.2043
    CORREC:  cpu time      0.4489: real time      0.4490
    CHARGE:  cpu time      0.0949: real time      0.0951
    --------------------------------------------
      LOOP:  cpu time      1.0329: real time      1.0337

 eigenvalue-minimisations  :     0
 total energy-change (2. order) :-0.8097778E+00  (-0.1877373E+00)
 number of electron      65.9999973 magnetization 
 augmentation part       42.5826322 magnetization 

 Free energy of the ion-electron system (eV)
  ---------------------------------------------------
  alpha Z        PSCENC =         3.29097617
  Ewald energy   TEWEN  =      5176.54465828
  -Hartree energ DENC   =    -12764.21722500
  -exchange      EXHF   =         0.00000000
  -V(xc)+E(xc)   XCENC  =       260.85858161
  PAW double counting   =      7675.56252208    -8311.85870823
  entropy T*S    EENTRO =        -0.00000000
  eigenvalues    EBANDS =      -391.69458225
  atomic energy  EATOM  =      8340.21827745
  ---------------------------------------------------
  free energy    TOTEN  =       -11.29549989 eV

  energy without entropy =      -11.29549989  energy(sigma->0) =      -11.29549989


--------------------------------------------------------------------------------------------------------




--------------------------------------- Iteration      1(   9)  ---------------------------------------


    POTLOK:  cpu time      0.0984: real time      0.0984
    SETDIJ:  cpu time      0.1807: real time      0.1807
    TRIAL :  cpu time      0.2037: real time      0.2037
    CORREC:  cpu time      0.4494: real time      0.4496
    CHARGE:  cpu time      0.0957: real time      0.0957
    --------------------------------------------
      LOOP:  cpu time      1.0359: real time      1.0363

 eigenvalue-minimisations  :     0
 total energy-change (2. order) :-0.1870486E+00  (-0.1099419E+00)
 number of electron      65.9999973 magnetization 
 augmentation part       42.4925302 magnetization 

 Free energy of the ion-electron system (eV)
  ---------------------------------------------------
  alpha Z        PSCENC =         3.29097617
  Ewald energy   TEWEN  =      5176.54465828
  -Hartree energ DENC   =    -12789.82299198
  -exchange      EXHF   =         0.00000000
  -V(xc)+E(xc)   XCENC  =       261.98405838
  PAW double counting   =      7699.04022533    -8341.92214341
  entropy T*S    EENTRO =        -0.00000000
  eigenvalues    EBANDS =      -360.81560869
  atomic energy  EATOM  =      8340.21827745
  ---------------------------------------------------
  free energy    TOTEN  =       -11.48254847 eV

  energy without entropy =      -11.48254847  energy(sigma->0) =      -11.48254847


--------------------------------------------------------------------------------------------------------




--------------------------------------- Iteration      1(  10)  ---------------------------------------


    POTLOK:  cpu time      0.0982: real time      0.0982
    SETDIJ:  cpu time      0.1810: real time      0.1810
    TRIAL :  cpu time      0.2047: real time      0.2048
    CORREC:  cpu time      0.4509: real time      0.4511
    CHARGE:  cpu time      0.0972: real time      0.0972
    --------------------------------------------
      LOOP:  cpu time      1.0394: real time      1.0402

 eigenvalue-minimisations  :     0
 total energy-change (2. order) :-0.1097274E+00  (-0.4289093E-01)
 number of electron      65.9999973 magnetization 
 augmentation part       42.5018936 magnetization 

 Free energy of the ion-electron system (eV)
  ---------------------------------------------------
  alpha Z        PSCENC =         3.29097617
  Ewald energy   TEWEN  =      5176.54465828
  -Hartree energ DENC   =    -12779.19660276
  -exchange      EXHF   =         0.00000000
  -V(xc)+E(xc)   XCENC  =       261.60365190
  PAW double counting   =      7700.36587904    -8338.44297104
  entropy T*S    EENTRO =        -0.00000000
  eigenvalues    EBANDS =      -375.97614495
  atomic energy  EATOM  =      8340.21827745
  ---------------------------------------------------
  free energy    TOTEN  =       -11.59227591 eV

  energy without entropy =      -11.59227591  energy(sigma->0) =      -11.59227591


--------------------------------------------------------------------------------------------------------




--------------------------------------- Iteration      1(  11)  ---------------------------------------


    POTLOK:  cpu time      0.0986: real time      0.0986
    SETDIJ:  cpu time      0.1829: real time      0.1829
    TRIAL :  cpu time      0.2034: real time      0.2034
    CORREC:  cpu time      0.4508: real time      0.4511
    CHARGE:  cpu time      0.0958: real time      0.0958
    --------------------------------------------
      LOOP:  cpu time      1.0397: real time      1.0403

 eigenvalue-minimisations  :     0
 total energy-change (2. order) :-0.4324986E-01  (-0.2448673E-01)
 number of electron      65.9999973 magnetization 
 augmentation part       42.5434047 magnetization 

 Free energy of the ion-electron system (eV)
  ---------------------------------------------------
  alpha Z        PSCENC =         3.29097617
  Ewald energy   TEWEN  =      5176.54465828
  -Hartree energ DENC   =    -12782.54789759
  -exchange      EXHF   =         0.00000000
  -V(xc)+E(xc)   XCENC  =       261.67895137
  PAW double counting   =      7702.38165442    -8339.75519858
  entropy T*S    EENTRO =        -0.00000000
  eigenvalues    EBANDS =      -373.44694729
  atomic energy  EATOM  =      8340.21827745
  ---------------------------------------------------
  free energy    TOTEN  =       -11.63552577 eV

  energy without entropy =      -11.63552577  energy(sigma->0) =      -11.63552577


--------------------------------------------------------------------------------------------------------




--------------------------------------- Iteration      1(  12)  ---------------------------------------


    POTLOK:  cpu time      0.0999: real time      0.0999
    SETDIJ:  cpu time      0.1796: real time      0.1796
    TRIAL :  cpu time      0.2044: real time      0.2044
    CORREC:  cpu time      0.4483: real time      0.4485
    CHARGE:  cpu time      0.0958: real time      0.0958
    --------------------------------------------
      LOOP:  cpu time      1.0347: real time      1.0354

 eigenvalue-minimisations  :     0
 total energy-change (2. order) :-0.2445366E-01  (-0.6742769E-02)
 number of electron      65.9999973 magnetization 
 augmentation part       42.5180940 magnetization 

 Free energy of the ion-electron system (eV)
  ---------------------------------------------------
  alpha Z        PSCENC =         3.29097617
  Ewald energy   TEWEN  =      5176.54465828
  -Hartree energ DENC   =    -12787.20243418
  -exchange      EXHF   =         0.00000000
  -V(xc)+E(xc)   XCENC  =       261.89761565
  PAW double counting   =      7704.79288134    -8343.11984664
  entropy T*S    EENTRO =        -0.00000000
  eigenvalues    EBANDS =      -368.08210749
  atomic energy  EATOM  =      8340.21827745
  ---------------------------------------------------
  free energy    TOTEN  =       -11.65997942 eV

  energy without entropy =      -11.65997942  energy(sigma->0) =      -11.65997942


--------------------------------------------------------------------------------------------------------




--------------------------------------- Iteration      1(  13)  ---------------------------------------


    POTLOK:  cpu time      0.0997: real time      0.0997
    SETDIJ:  cpu time      0.1789: real time      0.1789
    TRIAL :  cpu time      0.2040: real time      0.2040
    CORREC:  cpu time      0.4532: real time      0.4534
    CHARGE:  cpu time      0.0956: real time      0.0956
    --------------------------------------------
      LOOP:  cpu time      1.0390: real time      1.0394

 eigenvalue-minimisations  :     0
 total energy-change (2. order) :-0.6742287E-02  (-0.3370566E-02)
 number of electron      65.9999973 magnetization 
 augmentation part       42.5441019 magnetization 

 Free energy of the ion-electron system (eV)
  ---------------------------------------------------
  alpha Z        PSCENC =         3.29097617
  Ewald energy   TEWEN  =      5176.54465828
  -Hartree energ DENC   =    -12781.76685516
  -exchange      EXHF   =         0.00000000
  -V(xc)+E(xc)   XCENC  =       261.72424291
  PAW double counting   =      7699.95051046    -8337.10794919
  entropy T*S    EENTRO =        -0.00000000
  eigenvalues    EBANDS =      -374.52058262
  atomic energy  EATOM  =      8340.21827745
  ---------------------------------------------------
  free energy    TOTEN  =       -11.66672171 eV

  energy without entropy =      -11.66672171  energy(sigma->0) =      -11.66672171


--------------------------------------------------------------------------------------------------------




--------------------------------------- Iteration      1(  14)  ---------------------------------------


    POTLOK:  cpu time      0.0992: real time      0.0992
    SETDIJ:  cpu time      0.1803: real time      0.1803
    TRIAL :  cpu time      0.2035: real time      0.2035
    CORREC:  cpu time      0.4489: real time      0.4491
    CHARGE:  cpu time      0.0957: real time      0.0957
    --------------------------------------------
      LOOP:  cpu time      1.0355: real time      1.0360

 eigenvalue-minimisations  :     0
 total energy-change (2. order) :-0.3364984E-02  (-0.6602143E-03)
 number of electron      65.9999973 magnetization 
 augmentation part       42.5385492 magnetization 

 Free energy of the ion-electron system (eV)
  ---------------------------------------------------
  alpha Z        PSCENC =         3.29097617
  Ewald energy   TEWEN  =      5176.54465828
  -Hartree energ DENC   =    -12783.94976672
  -exchange      EXHF   =         0.00000000
  -V(xc)+E(xc)   XCENC  =       261.83690473
  PAW double counting   =      7700.53334995    -8338.64738101
  entropy T*S    EENTRO =        -0.00000000
  eigenvalues    EBANDS =      -371.49710554
  atomic energy  EATOM  =      8340.21827745
  ---------------------------------------------------
  free energy    TOTEN  =       -11.67008670 eV

  energy without entropy =      -11.67008670  energy(sigma->0) =      -11.67008670


--------------------------------------------------------------------------------------------------------




--------------------------------------- Iteration      1(  15)  ---------------------------------------


    POTLOK:  cpu time      0.0984: real time      0.0984
    SETDIJ:  cpu time      0.1792: real time      0.1792
    TRIAL :  cpu time      0.2032: real time      0.2032
    CORREC:  cpu time      0.4470: real time      0.4473
    CHARGE:  cpu time      0.0954: real time      0.0954
    --------------------------------------------
      LOOP:  cpu time      1.0278: real time      1.0317

 eigenvalue-minimisations  :     0
 total energy-change (2. order) :-0.6601536E-03  (-0.2846444E-03)
 number of electron      65.9999973 magnetization 
 augmentation part       42.5409736 magnetization 

 Free energy of the ion-electron system (eV)
  ---------------------------------------------------
  alpha Z        PSCENC =         3.29097617
  Ewald energy   TEWEN  =      5176.54465828
  -Hartree energ DENC   =    -12783.33059682
  -exchange      EXHF   =         0.00000000
  -V(xc)+E(xc)   XCENC  =       261.80504583
  PAW double counting   =      7700.32755735    -8338.21820692
  entropy T*S    EENTRO =        -0.00000000
  eigenvalues    EBANDS =      -372.30845817
  atomic energy  EATOM  =      8340.21827745
  ---------------------------------------------------
  free energy    TOTEN  =       -11.67074685 eV

  energy without entropy =      -11.67074685  energy(sigma->0) =      -11.67074685


--------------------------------------------------------------------------------------------------------




--------------------------------------- Iteration      1(  16)  ---------------------------------------


    POTLOK:  cpu time      0.0978: real time      0.0978
    SETDIJ:  cpu time      0.1775: real time      0.1775
    TRIAL :  cpu time      0.2024: real time      0.2024
    CORREC:  cpu time      0.4495: real time      0.4497
    CHARGE:  cpu time      0.0948: real time      0.0948
    --------------------------------------------
      LOOP:  cpu time      1.0296: real time      1.0305

 eigenvalue-minimisations  :     0
 total energy-change (2. order) :-0.2842496E-03  (-0.1001948E-03)
 number of electron      65.9999973 magnetization 
 augmentation part       42.5436216 magnetization 

 Free energy of the ion-electron system (eV)
  ---------------------------------------------------
  alpha Z        PSCENC =         3.29097617
  Ewald energy   TEWEN  =      5176.54465828
  -Hartree energ DENC   =    -12783.67536358
  -exchange      EXHF   =         0.00000000
  -V(xc)+E(xc)   XCENC  =       261.81850828
  PAW double counting   =      7700.84194307    -8338.82003388
  entropy T*S    EENTRO =        -0.00000000
  eigenvalues    EBANDS =      -371.88999689
  atomic energy  EATOM  =      8340.21827745
  ---------------------------------------------------
  free energy    TOTEN  =       -11.67103110 eV

  energy without entropy =      -11.67103110  energy(sigma->0) =      -11.67103110


--------------------------------------------------------------------------------------------------------




--------------------------------------- Iteration      1(  17)  ---------------------------------------


    POTLOK:  cpu time      0.0996: real time      0.0996
    SETDIJ:  cpu time      0.1814: real time      0.1814
    TRIAL :  cpu time      0.2039: real time      0.2039
    CORREC:  cpu time      0.4474: real time      0.4476
    CHARGE:  cpu time      0.0949: real time      0.0949
    --------------------------------------------
      LOOP:  cpu time      1.0298: real time      1.0344

 eigenvalue-minimisations  :     0
 total energy-change (2. order) :-0.1003217E-03  (-0.4344496E-04)
 number of electron      65.9999973 magnetization 
 augmentation part       42.5411772 magnetization 

 Free energy of the ion-electron system (eV)
  ---------------------------------------------------
  alpha Z        PSCENC =         3.29097617
  Ewald energy   TEWEN  =      5176.54465828
  -Hartree energ DENC   =    -12784.02291774
  -exchange      EXHF   =         0.00000000
  -V(xc)+E(xc)   XCENC  =       261.83255803
  PAW double counting   =      7701.28108533    -8339.34259216
  entropy T*S    EENTRO =        -0.00000000
  eigenvalues    EBANDS =      -371.47317677
  atomic energy  EATOM  =      8340.21827745
  ---------------------------------------------------
  free energy    TOTEN  =       -11.67113142 eV

  energy without entropy =      -11.67113142  energy(sigma->0) =      -11.67113142


--------------------------------------------------------------------------------------------------------




--------------------------------------- Iteration      1(  18)  ---------------------------------------


    POTLOK:  cpu time      0.0971: real time      0.0971
    SETDIJ:  cpu time      0.1815: real time      0.1815
    TRIAL :  cpu time      0.2029: real time      0.2029
    CORREC:  cpu time      0.4484: real time      0.4486
    CHARGE:  cpu time      0.0950: real time      0.0950
    --------------------------------------------
      LOOP:  cpu time      1.0325: real time      1.0330

 eigenvalue-minimisations  :     0
 total energy-change (2. order) :-0.4348825E-04  (-0.1520461E-04)
 number of electron      65.9999973 magnetization 
 augmentation part       42.5424790 magnetization 

 Free energy of the ion-electron system (eV)
  ---------------------------------------------------
  alpha Z        PSCENC =         3.29097617
  Ewald energy   TEWEN  =      5176.54465828
  -Hartree energ DENC   =    -12783.67884960
  -exchange      EXHF   =         0.00000000
  -V(xc)+E(xc)   XCENC  =       261.82051378
  PAW double counting   =      7701.27573486    -8339.23087445
  entropy T*S    EENTRO =        -0.00000000
  eigenvalues    EBANDS =      -371.91161140
  atomic energy  EATOM  =      8340.21827745
  ---------------------------------------------------
  free energy    TOTEN  =       -11.67117491 eV

  energy without entropy =      -11.67117491  energy(sigma->0) =      -11.67117491


--------------------------------------------------------------------------------------------------------




--------------------------------------- Iteration      1(  19)  ---------------------------------------


    POTLOK:  cpu time      0.0997: real time      0.0997
    SETDIJ:  cpu time      0.1804: real time      0.1804
    TRIAL :  cpu time      0.2071: real time      0.2071
    CORREC:  cpu time      0.4502: real time      0.4504
    CHARGE:  cpu time      0.0963: real time      0.0963
    --------------------------------------------
      LOOP:  cpu time      1.0404: real time      1.0410

 eigenvalue-minimisations  :     0
 total energy-change (2. order) :-0.1524875E-04  (-0.5120185E-05)
 number of electron      65.9999973 magnetization 
 augmentation part       42.5414347 magnetization 

 Free energy of the ion-electron system (eV)
  ---------------------------------------------------
  alpha Z        PSCENC =         3.29097617
  Ewald energy   TEWEN  =      5176.54465828
  -Hartree energ DENC   =    -12783.97428476
  -exchange      EXHF   =         0.00000000
  -V(xc)+E(xc)   XCENC  =       261.82859603
  PAW double counting   =      7701.61185178    -8339.61802838
  entropy T*S    EENTRO =        -0.00000000
  eigenvalues    EBANDS =      -371.57323672
  atomic energy  EATOM  =      8340.21827745
  ---------------------------------------------------
  free energy    TOTEN  =       -11.67119016 eV

  energy without entropy =      -11.67119016  energy(sigma->0) =      -11.67119016


--------------------------------------------------------------------------------------------------------




--------------------------------------- Iteration      1(  20)  ---------------------------------------


    POTLOK:  cpu time      0.0966: real time      0.0966
    SETDIJ:  cpu time      0.1800: real time      0.1800
    TRIAL :  cpu time      0.2049: real time      0.2049
    CORREC:  cpu time      0.4468: real time      0.4470
    CHARGE:  cpu time      0.0940: real time      0.0940
    --------------------------------------------
      LOOP:  cpu time      1.0291: real time      1.0300

 eigenvalue-minimisations  :     0
 total energy-change (2. order) :-0.5180891E-05  (-0.2564553E-05)
 number of electron      65.9999973 magnetization 
 augmentation part       42.5417662 magnetization 

 Free energy of the ion-electron system (eV)
  ---------------------------------------------------
  alpha Z        PSCENC =         3.29097617
  Ewald energy   TEWEN  =      5176.54465828
  -Hartree energ DENC   =    -12783.85248108
  -exchange      EXHF   =         0.00000000
  -V(xc)+E(xc)   XCENC  =       261.82339192
  PAW double counting   =      7701.61800997    -8339.58497582
  entropy T*S    EENTRO =        -0.00000000
  eigenvalues    EBANDS =      -371.72905224
  atomic energy  EATOM  =      8340.21827745
  ---------------------------------------------------
  free energy    TOTEN  =       -11.67119534 eV

  energy without entropy =      -11.67119534  energy(sigma->0) =      -11.67119534


--------------------------------------------------------------------------------------------------------




--------------------------------------- Iteration      1(  21)  ---------------------------------------


    POTLOK:  cpu time      0.0997: real time      0.0997
    SETDIJ:  cpu time      0.1784: real time      0.1785
    TRIAL :  cpu time      0.2029: real time      0.2029
    CORREC:  cpu time      0.4499: real time      0.4502
    CHARGE:  cpu time      0.0955: real time      0.0955
    --------------------------------------------
      LOOP:  cpu time      1.0332: real time      1.0339

 eigenvalue-minimisations  :     0
 total energy-change (2. order) :-0.2567297E-05  (-0.6404721E-06)
 number of electron      65.9999973 magnetization 
 augmentation part       42.5417802 magnetization 

 Free energy of the ion-electron system (eV)
  ---------------------------------------------------
  alpha Z        PSCENC =         3.29097617
  Ewald energy   TEWEN  =      5176.54465828
  -Hartree energ DENC   =    -12783.87959812
  -exchange      EXHF   =         0.00000000
  -V(xc)+E(xc)   XCENC  =       261.82474235
  PAW double counting   =      7701.68155870    -8339.66305279
  entropy T*S    EENTRO =        -0.00000000
  eigenvalues    EBANDS =      -371.68875994
  atomic energy  EATOM  =      8340.21827745
  ---------------------------------------------------
  free energy    TOTEN  =       -11.67119791 eV

  energy without entropy =      -11.67119791  energy(sigma->0) =      -11.67119791


--------------------------------------------------------------------------------------------------------




--------------------------------------- Iteration      1(  22)  ---------------------------------------


    POTLOK:  cpu time      0.0981: real time      0.0981
    SETDIJ:  cpu time      0.1793: real time      0.1793
    TRIAL :  cpu time      0.2033: real time      0.2035
    CORREC:  cpu time      0.4485: real time      0.4485
    EDDIAG:  cpu time      0.0934: real time      0.0934
    CHARGE:  cpu time      0.0949: real time      0.0949
    --------------------------------------------
      LOOP:  cpu time      1.1241: real time      1.1248

 eigenvalue-minimisations  :     0
 total energy-change (2. order) :-0.6395367E-06  (-0.4512689E-06)
 number of electron      65.9999973 magnetization 
 augmentation part       42.5415783 magnetization 

 Free energy of the ion-electron system (eV)
  ---------------------------------------------------
  alpha Z        PSCENC =         3.29097617
  Ewald energy   TEWEN  =      5176.54465828
  -Hartree energ DENC   =    -12783.86417610
  -exchange      EXHF   =         0.00000000
  -V(xc)+E(xc)   XCENC  =       261.82464925
  PAW double counting   =      7701.69132165    -8339.67391658
  entropy T*S    EENTRO =        -0.00000000
  eigenvalues    EBANDS =      -371.70298865
  atomic energy  EATOM  =      8340.21827745
  ---------------------------------------------------
  free energy    TOTEN  =       -11.67119855 eV

  energy without entropy =      -11.67119855  energy(sigma->0) =      -11.67119855


--------------------------------------------------------------------------------------------------------


  average scaling for gradient   1.5575


 average (electrostatic) potential at core
  the test charge radii are     0.9430
  (the norm of the test charge is              1.0000)
       1 -74.0568       2 -74.0568       3 -74.0576       4 -74.0563       5 -74.0576
       6 -74.6782



 E-fermi :  -4.2733     XC(G=0):  -0.3563     alpha+bet : -0.1189

 Fermi energy:        -4.2732919005

 k-point     1 :       0.0000    0.0000    0.0000
  band No.  band energies     occupation 
      1      -8.5565      2.00000
      2      -7.0972      2.00000
      3      -7.0964      2.00000
      4      -6.9272      2.00000
      5      -6.9271      2.00000
      6      -6.6130      2.00000
      7      -6.3605      2.00000
      8      -6.0196      2.00000
      9      -6.0184      2.00000
     10      -5.8981      2.00000
     11      -5.8973      2.00000
     12      -5.6850      2.00000
     13      -5.6840      2.00000
     14      -5.5907      2.00000
     15      -5.5899      2.00000
     16      -5.5324      2.00000
     17      -5.2923      2.00000
     18      -5.2898      2.00000
     19      -5.2079      2.00000
     20      -5.1494      2.00000
     21      -5.1489      2.00000
     22      -5.1275      2.00000
     23      -5.1273      2.00000
     24      -4.9808      2.00000
     25      -4.9803      2.00000
     26      -4.9728      2.00000
     27      -4.9727      2.00000
     28      -4.8649      2.00000
     29      -4.7541      2.00000
     30      -4.7539      2.00000
     31      -4.6864      2.00000
     32      -4.5321      2.00000
     33      -4.5311      2.00000
     34      -2.9854      0.00000
     35      -2.5630      0.00000
     36      -2.5626      0.00000
     37      -1.8783      0.00000
     38      -0.9011      0.00000
     39      -0.9007      0.00000
     40      -0.1655      0.00000
     41      -0.1586      0.00000
     42      -0.0630      0.00000
     43      -0.0211      0.00000
     44      -0.0194      0.00000
     45       0.1857      0.00000
     46       0.3446      0.00000
     47       0.3726      0.00000
     48       0.4296      0.00000
     49       0.5139      0.00000
     50       0.5302      0.00000
     51       0.5760      0.00000
     52       0.6243      0.00000
     53       0.6980      0.00000
     54       0.7402      0.00000
     55       0.7471      0.00000
     56       0.7544      0.00000
     57       0.7686      0.00000
     58       0.7889      0.00000
     59       0.7965      0.00000
     60       0.8397      0.00000
     61       0.9488      0.00000
     62       0.9589      0.00000
     63       1.0343      0.00000
     64       1.0566      0.00000
     65       1.0902      0.00000
     66       1.0936      0.00000
     67       1.1415      0.00000
     68       1.1433      0.00000
     69       1.1563      0.00000
     70       1.2531      0.00000
     71       1.3221      0.00000
     72       1.3513      0.00000
     73       1.3871      0.00000
     74       1.4283      0.00000
     75       1.4771      0.00000
     76       1.5137      0.00000
     77       1.5519      0.00000
     78       1.5628      0.00000
     79       1.6638      0.00000
     80       1.7179      0.00000
     81       1.7356      0.00000
     82       1.7667      0.00000
     83       1.7716      0.00000
     84       1.7803      0.00000
     85       1.8015      0.00000
     86       1.8125      0.00000
     87       1.8323      0.00000
     88       1.8531      0.00000
     89       1.8695      0.00000
     90       1.8744      0.00000
     91       1.8806      0.00000
     92       1.9030      0.00000
     93       1.9201      0.00000
     94       1.9229      0.00000
     95       1.9284      0.00000
     96       1.9323      0.00000


--------------------------------------------------------------------------------------------------------


 soft charge-density along one line, spin component           1
         0         1         2         3         4         5         6         7         8         9
 total charge-density along one line

 pseudopotential strength for first ion, spin component:           1
-10.293   0.031  -0.015   0.002   0.002   0.838  -0.023   0.012
  0.031 -10.276   0.000   0.017  -0.006  -0.023   0.826  -0.001
 -0.015   0.000 -10.278   0.018   0.008   0.012  -0.001   0.827
  0.002   0.017   0.018 -10.295   0.034  -0.003  -0.013  -0.014
  0.002  -0.006   0.008   0.034 -10.292  -0.001   0.005  -0.005
  0.838  -0.023   0.012  -0.003  -0.001   6.441   0.016  -0.008
 -0.023   0.826  -0.001  -0.013   0.005   0.016   6.449   0.001
  0.012  -0.001   0.827  -0.014  -0.005  -0.008   0.001   6.448
 -0.003  -0.013  -0.014   0.838  -0.025   0.001   0.009   0.010
 -0.001   0.005  -0.005  -0.025   0.838   0.001  -0.003   0.003
 -0.004  -0.003  -0.002  -0.009  -0.000   0.000  -0.000  -0.000
 -0.008  -0.006  -0.004  -0.016  -0.000   0.000  -0.000  -0.001
 -0.020   0.009  -0.002   0.000  -0.003   0.008  -0.003   0.001
  0.000   0.003   0.010  -0.019  -0.000  -0.000  -0.001  -0.003
  0.003   0.000   0.012   0.008  -0.020  -0.001  -0.000  -0.005
 -0.020   0.009  -0.002   0.000  -0.003   0.005  -0.002   0.001
  0.000   0.003   0.010  -0.020  -0.000  -0.000   0.000  -0.001
  0.003   0.000   0.012   0.008  -0.020  -0.001  -0.000  -0.004
 total augmentation occupancy for first ion, spin component:           1
  1.961   0.005   0.002  -0.003   0.002  -0.009  -0.005   0.001  -0.002  -0.003   0.020   0.003   0.074   0.001  -0.020  -0.037
  0.005   1.957  -0.000   0.012  -0.009  -0.005  -0.015   0.001  -0.006   0.008   0.017   0.010  -0.022  -0.021  -0.007   0.015
  0.002  -0.000   1.964   0.007  -0.005   0.001   0.001  -0.020  -0.003   0.001   0.001   0.007  -0.004  -0.025  -0.033  -0.003
 -0.003   0.012   0.007   1.953   0.008  -0.002  -0.006  -0.003  -0.010  -0.009   0.035   0.004   0.001   0.080  -0.043   0.001
  0.002  -0.009  -0.005   0.008   1.955  -0.003   0.008   0.001  -0.009  -0.011   0.019   0.003  -0.005  -0.012   0.050  -0.005
 -0.009  -0.005   0.001  -0.002  -0.003   0.010  -0.002   0.002  -0.002  -0.001  -0.023   0.002   0.027  -0.007  -0.006  -0.001
 -0.005  -0.015   0.001  -0.006   0.008  -0.002   0.004   0.000   0.000   0.001  -0.032   0.002  -0.006   0.001  -0.004   0.000
  0.001   0.001  -0.020  -0.003   0.001   0.002   0.000   0.004  -0.000  -0.001  -0.026   0.003   0.004  -0.003  -0.011  -0.000
 -0.002  -0.006  -0.003  -0.010  -0.009  -0.002   0.000  -0.000   0.008  -0.002  -0.046   0.004  -0.007   0.017  -0.012   0.000
 -0.003   0.008   0.001  -0.009  -0.011  -0.001   0.001  -0.001  -0.002   0.007   0.001  -0.003  -0.001  -0.003   0.014   0.000
  0.020   0.017   0.001   0.035   0.019  -0.023  -0.032  -0.026  -0.046   0.001   1.613  -0.086  -0.033  -0.098   0.242   0.004
  0.003   0.010   0.007   0.004   0.003   0.002   0.002   0.003   0.004  -0.003  -0.086   0.008   0.002   0.008  -0.024  -0.000
  0.074  -0.022  -0.004   0.001  -0.005   0.027  -0.006   0.004  -0.007  -0.001  -0.033   0.002   0.090  -0.027  -0.012  -0.006
  0.001  -0.021  -0.025   0.080  -0.012  -0.007   0.001  -0.003   0.017  -0.003  -0.098   0.008  -0.027   0.051  -0.022   0.001
 -0.020  -0.007  -0.033  -0.043   0.050  -0.006  -0.004  -0.011  -0.012   0.014   0.242  -0.024  -0.012  -0.022   0.084   0.001
 -0.037   0.015  -0.003   0.001  -0.005  -0.001   0.000  -0.000   0.000   0.000   0.004  -0.000  -0.006   0.001   0.001   0.001
  0.001   0.005   0.017  -0.035   0.000   0.000  -0.000  -0.000  -0.001   0.000   0.011  -0.001   0.001  -0.004   0.003  -0.000
  0.006   0.001   0.020   0.015  -0.033   0.001   0.000   0.001   0.001  -0.001  -0.031   0.002   0.001   0.003  -0.009  -0.000


------------------------ aborting loop because EDIFF is reached ----------------------------------------


    FORLOC:  cpu time      0.0028: real time      0.0028
    FORNL :  cpu time      0.1036: real time      0.1037
    STRESS:  cpu time      0.3051: real time      0.3062
    FORCOR:  cpu time      0.0705: real time      0.0705
    OFIELD:  cpu time      0.0002: real time      0.0002

  Hirshfeld charges:
            ion         q(e)     
   ------------------------------
      1     Cu      -0.00657410
      2     Cu      -0.00648325
      3     Cu      -0.00643718
      4     Cu      -0.00655024
      5     Cu      -0.00655950
      6     Cu       0.03260426

  Atomic reference data used in the T-S method for vdW correction:
            C6at              R0at           ALPHAat      REFSTATE
            (au)              (au)            (au)                
   ---------------------------------------------------------------
   Cu        253.000          3.761         42.000         0

  Tkatchenko/Scheffler method for vdW energy calculation
  ---------------------------------------------------------------------------------------------

  Parameters of vdW forcefield:
            C6ts              R0ts           ALPHAts        RELVOL
            (au)              (au)            (au)                
   ---------------------------------------------------------------
   Cu        240.823          3.730         40.977          0.97563506
   Cu        240.737          3.730         40.969          0.97545997
   Cu        240.719          3.729         40.968          0.97542347
   Cu        240.828          3.730         40.977          0.97564443
   Cu        240.799          3.730         40.975          0.97558538
   Cu        246.887          3.745         41.489          0.98784171

  vdW correction parametrized for the method !

  IVDW =  20
  VDW_RADIUS =    50.000 A
  VDW_IDAMPF =  0
  VDW_S6 =     1.000
  VDW_SR =     0.600
  VDW_D =    20.000
  LVDW_ONECELL = F F F
  LVDW_SAMETYPE T
  LVDW_EWALD = F

  Number of pair interactions contributing to vdW energy:    1579
  Edisp (eV):   -4.21203
    FORVDW:  cpu time      5.9987: real time      6.0001

  FORCE on cell =-STRESS in cart. coord.  units (eV):
  Direction    XX          YY          ZZ          XY          YZ          ZX
  --------------------------------------------------------------------------------------
  Alpha Z     3.29098     3.29098     3.29098
  Ewald    2905.16116  2237.20748    34.17368  -155.63277 -1380.72469  -321.11746
  Hartree  5245.65120  4688.14805  2850.02632  -128.98797 -1143.54645  -265.94429
  E(xc)    -385.22079  -385.62154  -386.94540    -0.09711    -0.86315    -0.20083
  Local   -8717.19737 -7494.22478 -3461.33064   284.02885  2518.88575   585.80802
  n-local  -146.81491  -147.09513  -148.01964    -0.07031    -0.60208    -0.13772
  augment   557.31855   558.67734   563.19481     0.32548     2.94468     0.68602
  Kinetic   539.46667   541.02469   546.19548     0.37201     3.37211     0.78672
  Fock        0.00000     0.00000     0.00000     0.00000     0.00000     0.00000
  vdW         5.61121     5.00166     2.95662    -0.14659    -1.33334    -0.30926
  -------------------------------------------------------------------------------------
  Total       7.26670     6.40872     3.54220    -0.20841    -1.86719    -0.42880
  in kB       1.45532     1.28349     0.70941    -0.04174    -0.37395    -0.08588
  external pressure =        1.15 kB  Pullay stress =        0.00 kB


 VOLUME and BASIS-vectors are now :
 -----------------------------------------------------------------------------
  energy-cutoff  :      520.00
  volume of cell :     8000.00
      direct lattice vectors                 reciprocal lattice vectors
    20.000000000  0.000000000  0.000000000     0.050000000  0.000000000  0.000000000
     0.000000000 20.000000000  0.000000000     0.000000000  0.050000000  0.000000000
     0.000000000  0.000000000 20.000000000     0.000000000  0.000000000  0.050000000

  length of vectors
    20.000000000 20.000000000 20.000000000     0.050000000  0.050000000  0.050000000


 FORCES acting on ions:
    Electron-Ion                     Ewald-Force                    Non-Local-Force
 -----------------------------------------------------------------------------------------------
   0.827E+03 -.653E+02 -.232E+03   -.818E+03 0.639E+02 0.228E+03   -.932E+01 0.149E+01 0.417E+01
   0.287E+03 -.791E+03 0.188E+03   -.284E+03 0.781E+03 -.188E+03   -.311E+01 0.983E+01 -.656E+00
   -.671E+03 -.515E+03 0.163E+03   0.664E+03 0.509E+03 -.163E+03   0.789E+01 0.666E+01 -.388E+00
   -.723E+03 0.380E+03 -.276E+03   0.715E+03 -.376E+03 0.271E+03   0.847E+01 -.361E+01 0.468E+01
   0.204E+03 0.660E+03 -.516E+03   -.202E+03 -.653E+03 0.509E+03   -.217E+01 -.685E+01 0.742E+01
   0.760E+02 0.328E+03 0.665E+03   -.752E+02 -.325E+03 -.658E+03   -.844E+00 -.362E+01 -.734E+01
 -----------------------------------------------------------------------------------------------
   -.904E+00 -.389E+01 -.789E+01   0.995E-13 0.114E-12 -.227E-12   0.905E+00 0.390E+01 0.789E+01


 POSITION                                       TOTAL-FORCE (eV/Angst)
 -----------------------------------------------------------------------------------
      8.11730      9.99586     10.25637        -1.375533      0.217137      0.606921
      9.43087     11.75927      9.23568        -0.455981      1.444170     -0.103264
     11.76087     11.09016      9.29627         1.157983      0.977667     -0.058394
     11.88481      8.91481     10.36010         1.247177     -0.535136      0.682177
      9.63288      8.23466     10.94792        -0.316083     -1.010065      1.087877
     10.05678      9.52916      9.06642        -0.257563     -1.093772     -2.215317
 -----------------------------------------------------------------------------------
    total drift:                                0.000812      0.000305     -0.001271


--------------------------------------------------------------------------------------------------------



  FREE ENERGIE OF THE ION-ELECTRON SYSTEM (eV)
  ---------------------------------------------------
  free  energy   TOTEN  =       -15.88322661 eV

  energy  without entropy=      -15.88322661  energy(sigma->0) =      -15.88322661



--------------------------------------------------------------------------------------------------------


    POTLOK:  cpu time      0.4429: real time      0.4429


--------------------------------------------------------------------------------------------------------


     LOOP+:  cpu time     30.4220: real time     30.4571
    4ORBIT:  cpu time      0.0000: real time      0.0000

 total amount of memory used by VASP MPI-rank0   101856. kBytes
=======================================================================

   base      :      30000. kBytes
   nonlr-proj:       2249. kBytes
   fftplans  :      28354. kBytes
   grid      :      38630. kBytes
   one-center:         31. kBytes
   wavefun   :       2592. kBytes

  
  
 General timing and accounting informations for this job:
 ========================================================
  
                  Total CPU time used (sec):       51.218
                            User time (sec):       50.075
                          System time (sec):        1.143
                         Elapsed time (sec):       54.332
  
                   Maximum memory used (kb):      209664.
                   Average memory used (kb):          N/A
  
                          Minor page faults:        26354
                          Major page faults:            0
                 Voluntary context switches:         9765
