 vasp.6.3.0 20Jan22 (build Apr  1 2022 16:44:48) complex                         
 executed on        HPECrayEX_GCC date 2022.09.21  15:37:42
 running  512 mpi-ranks, with    1 threads/rank
 distrk:  each k-point on  256 cores,    2 groups
 distr:  one band on NCORE=   4 cores,   64 groups


--------------------------------------------------------------------------------------------------------


 INCAR:
   SYSTEM = MgO-rocksalt
   ISMEAR = 0
   SIGMA = 0.05
   EDIFF = 1E-6
   ALGO = ALL
   ISTART = 0
   IBRION = -1
   NSW = 0
   ISYM = 2
   GGA = ML
   LUSE_VDW = .TRUE.
   ZAB_VDW = -1.8867
   AGGAC = 0.0000
   ENCUT = 520
   PREC = Accurate
   LASPH = .TRUE.
   LREAL = Auto
   ISPIN = 1
   NELM = 200
   NELMIN = 8
   NCORE = 4
   KPAR = 2
   LWAVE = .FALSE.
   LCHARG = .FALSE.

 POTCAR:    PAW_PBE Ag 02Apr2005                  
 -----------------------------------------------------------------------------
|                                                                             |
|               ----> ADVICE to this user running VASP <----                  |
|                                                                             |
|     You have switched on vdW-DFT.                                           |
|     This routine was written and supplied by Jiri Klimes. We recommend      |
|     that you carefully read and cite the following publications:            |
|       J. Klimes, D.R. Bowler, A. Michelides                                 |
|          J. Phys.: Cond Matt. 22 022201 (2010)                              |
|       J. Klimes, D.R. Bowler, A. Michelides                                 |
|          Phys. Rev. B. 83, 195131 (2011)                                    |
|     and references therein.                                                 |
|                                                                             |
 -----------------------------------------------------------------------------

 POTCAR:    PAW_PBE Ag 02Apr2005                  
   SHA256 =  6550cfa3543261e132c169e1b98a529204624d72be14e2da2e0242bcb74a174d Ag/POTCAR             
   COPYR  = (c) Copyright 02Apr2005 Georg Kresse                                                    
   COPYR  = This file is part of the software VASP. Any use, copying, and all other rights are regul
   COPYR  = If you do not have a valid VASP license, you may not use, copy or distribute this file. 
   VRHFIN =Ag : s1 d10                                                                              
   LEXCH  = PE                                                                                      
   EATOM  =  1037.2675 eV,   76.2370 Ry                                                             
                                                                                                    
   TITEL  = PAW_PBE Ag 02Apr2005                                                                    
   LULTRA =        F    use ultrasoft PP ?                                                          
   IUNSCR =        1    unscreen: 0-lin 1-nonlin 2-no                                               
   RPACOR =    2.000    partial core radius                                                         
   POMASS =  107.868; ZVAL   =   11.000    mass and valenz                                          
   RCORE  =    2.500    outmost cutoff radius                                                       
   RWIGS  =    2.840; RWIGS  =    1.503    wigner-seitz radius (au A)                               
   ENMAX  =  249.844; ENMIN  =  187.383 eV                                                          
   ICORE  =        3    local potential                                                             
   LCOR   =        T    correct aug charges                                                         
   LPAW   =        T    paw PP                                                                      
   EAUG   =  412.496                                                                                
   DEXC   =    0.000                                                                                
   RMAX   =    2.560    core radius for proj-oper                                                   
   RAUG   =    1.300    factor for augmentation sphere                                              
   RDEP   =    2.576    radius for radial grids                                                     
   RDEPT  =    2.072    core radius for aug-charge                                                  
                                                                                                    
   Atomic configuration                                                                             
   12 entries                                                                                       
     n  l   j            E        occ.                                                              
     1  0  0.50    -25324.9161   2.0000                                                             
     2  0  0.50     -3728.5341   2.0000                                                             
     2  1  1.50     -3344.0404   6.0000                                                             
     3  0  0.50      -683.5581   2.0000                                                             
     3  1  1.50      -557.3225   6.0000                                                             
     3  2  2.50      -358.3853  10.0000                                                             
     4  0  0.50       -95.0341   2.0000                                                             
     4  1  1.50       -58.5511   6.0000                                                             
     4  2  2.50        -7.4440  10.0000                                                             
     5  0  0.50        -4.4045   1.0000                                                             
     5  1  0.50        -1.3606   0.0000                                                             
     4  3  2.50        -1.3606   0.0000                                                             
   Description                                                                                      
     l       E           TYP  RCUT    TYP  RCUT                                                     
     2     -7.4439781     23  2.400                                                                 
     2     -8.8045607     23  2.400                                                                 
     0     -4.4044681     23  2.400                                                                 
     0      1.9520038     23  2.400                                                                 
     1     -1.3605826     23  2.500                                                                 
     1     27.2116520     23  2.500                                                                 
     3     -4.0817478     23  2.400                                                                 
  local pseudopotential read in
  partial core-charges read in
  partial kinetic energy density read in
  atomic valenz-charges read in
  non local Contribution for L=           2  read in
    real space projection operators read in
  non local Contribution for L=           2  read in
    real space projection operators read in
  non local Contribution for L=           0  read in
    real space projection operators read in
  non local Contribution for L=           0  read in
    real space projection operators read in
  non local Contribution for L=           1  read in
    real space projection operators read in
  non local Contribution for L=           1  read in
    real space projection operators read in
    PAW grid and wavefunctions read in

   number of l-projection  operators is LMAX  =           6
   number of lm-projection operators is LMMAX =          18

 -----------------------------------------------------------------------------
|                                                                             |
|               ----> ADVICE to this user running VASP <----                  |
|                                                                             |
|     You have a (more or less) 'small supercell' and for smaller cells       |
|     it is recommended to use the reciprocal-space projection scheme!        |
|     The real-space optimization is not efficient for small cells and it     |
|     is also less accurate ...                                               |
|     Therefore, set LREAL=.FALSE. in the INCAR file.                         |
|                                                                             |
 -----------------------------------------------------------------------------

 Optimization of the real space projectors (new method)

 maximal supplied QI-value         = 15.12
 optimisation between [QCUT,QGAM] = [ 11.64, 23.28] = [ 37.95,151.78] Ry 
 Optimized for a Real-space Cutoff    1.45 Angstroem

   l    n(q)    QCUT    max X(q) W(low)/X(q) W(high)/X(q)  e(spline) 
   2      9    11.641    53.897    0.22E-03    0.42E-04    0.28E-06
   2      9    11.641    52.416    0.23E-03    0.44E-04    0.29E-06
   0     10    11.641   122.045    0.51E-04    0.25E-04    0.16E-06
   0     10    11.641    73.629    0.49E-04    0.24E-04    0.16E-06
   1     10    11.641    15.255    0.99E-04    0.55E-04    0.11E-06
   1     10    11.641     9.562    0.81E-04    0.47E-04    0.95E-07
 -----------------------------------------------------------------------------
|                                                                             |
|               ----> ADVICE to this user running VASP <----                  |
|                                                                             |
|     You enforced a specific xc type in the INCAR file but a different       |
|     type was found in the POTCAR file.                                      |
|     I HOPE YOU KNOW WHAT YOU ARE DOING!                                     |
|                                                                             |
 -----------------------------------------------------------------------------

  PAW_PBE Ag 02Apr2005                  :
 energy of atom  1       EATOM=-1037.2675
 kinetic energy error for atom=    0.0047 (will be added to EATOM!!)


 POSCAR: ag4
  positions in direct lattice
  velocities in cartesian coordinates
 exchange correlation table for  LEXCH =       44
   RHO(1)=    0.500       N(1)  =     2000
   RHO(2)=  100.500       N(2)  =     4000



--------------------------------------------------------------------------------------------------------


 ion  position               nearest neighbor table
   1  0.035  0.010  0.069-   3 2.54   2 3.13   4 3.15
   2  0.964  0.984  0.931-   4 2.54   1 3.13   3 3.14
   3  0.943  0.922  0.074-   1 2.54   4 3.13   2 3.14
   4  0.896  0.057  0.010-   2 2.54   3 3.13   1 3.15

  LATTYP: Found a simple cubic cell.
 ALAT       =    20.0000000000
  
  Lattice vectors:
  
 A1 = (  20.0000000000,   0.0000000000,   0.0000000000)
 A2 = (   0.0000000000,  20.0000000000,   0.0000000000)
 A3 = (   0.0000000000,   0.0000000000,  20.0000000000)


Analysis of symmetry for initial positions (statically):
=====================================================================
 Subroutine PRICEL returns:
 Original cell was already a primitive cell.
 

 Routine SETGRP: Setting up the symmetry group for a 
 simple cubic supercell.


 Subroutine GETGRP returns: Found  1 space group operations
 (whereof  1 operations were pure point group operations)
 out of a pool of 48 trial point group operations.


The static configuration has the point symmetry C_1 .


Analysis of symmetry for dynamics (positions and initial velocities):
=====================================================================
 Subroutine PRICEL returns:
 Original cell was already a primitive cell.
 

 Routine SETGRP: Setting up the symmetry group for a 
 simple cubic supercell.


 Subroutine GETGRP returns: Found  1 space group operations
 (whereof  1 operations were pure point group operations)
 out of a pool of 48 trial point group operations.


The dynamic configuration has the point symmetry C_1 .


 Subroutine INISYM returns: Found  1 space group operations
 (whereof  1 operations are pure point group operations),
 and found     1 'primitive' translations


----------------------------------------------------------------------------------------

                                     Primitive cell                                     

  volume of cell :    8000.0000

  direct lattice vectors                    reciprocal lattice vectors
    20.000000000  0.000000000  0.000000000     0.050000000  0.000000000  0.000000000
     0.000000000 20.000000000  0.000000000     0.000000000  0.050000000  0.000000000
     0.000000000  0.000000000 20.000000000     0.000000000  0.000000000  0.050000000

  length of vectors
    20.000000000 20.000000000 20.000000000     0.050000000  0.050000000  0.050000000

  position of ions in fractional coordinates (direct lattice)
     0.034646438  0.009917534  0.068709416
     0.964401642  0.983614304  0.931448023
     0.943109585  0.921907135  0.074160645
     0.896411985  0.056806727  0.010030815

  ion indices of the primitive-cell ions
   primitive index   ion index
                 1           1
                 2           2
                 3           3
                 4           4

----------------------------------------------------------------------------------------



 KPOINTS: KPOINTS created by Atomic Simulation Env

Automatic generation of k-mesh.
 Grid dimensions read from file:
 generate k-points for:    1    1    1

 Generating k-lattice:

  Cartesian coordinates                     Fractional coordinates (reciprocal lattice)
     0.050000000  0.000000000  0.000000000     1.000000000  0.000000000  0.000000000
     0.000000000  0.050000000  0.000000000     0.000000000  1.000000000  0.000000000
     0.000000000  0.000000000  0.050000000     0.000000000  0.000000000  1.000000000

  Length of vectors
     0.050000000  0.050000000  0.050000000

  Shift w.r.t. Gamma in fractional coordinates (k-lattice)
     0.000000000  0.000000000  0.000000000

 
 Subroutine IBZKPT returns following result:
 ===========================================
 
 Found      1 irreducible k-points:
 
 Following reciprocal coordinates:
            Coordinates               Weight
  0.000000  0.000000  0.000000      1.000000
 
 Following cartesian coordinates:
            Coordinates               Weight
  0.000000  0.000000  0.000000      1.000000
 


--------------------------------------------------------------------------------------------------------




 Dimension of arrays:
   k-points           NKPTS =      1   k-points in BZ     NKDIM =      1   number of bands    NBANDS=     64
   number of dos      NEDOS =    301   number of ions     NIONS =      4
   non local maximal  LDIM  =      6   non local SUM 2l+1 LMDIM =     18
   total plane-waves  NPLWV = ******
   max r-space proj   IRMAX =   5390   max aug-charges    IRDMAX=  20940
   dimension x,y,z NGX =   150 NGY =  150 NGZ =  150
   dimension x,y,z NGXF=   300 NGYF=  300 NGZF=  300
   support grid    NGXF=   300 NGYF=  300 NGZF=  300
   ions per type =               4
   NGX,Y,Z   is equivalent  to a cutoff of  12.47, 12.47, 12.47 a.u.
   NGXF,Y,Z  is equivalent  to a cutoff of  24.94, 24.94, 24.94 a.u.

 SYSTEM =  MgO-rocksalt                            
 POSCAR =  ag4                                     

 Startparameter for this run:
   NWRITE =      2    write-flag & timer
   PREC   = accura    normal or accurate (medium, high low for compatibility)
   ISTART =      0    job   : 0-new  1-cont  2-samecut
   ICHARG =      2    charge: 1-file 2-atom 10-const
   ISPIN  =      1    spin polarized calculation?
   LNONCOLLINEAR =      F non collinear calculations
   LSORBIT =      F    spin-orbit coupling
   INIWAV =      1    electr: 0-lowe 1-rand  2-diag
   LASPH  =      T    aspherical Exc in radial PAW
 Electronic Relaxation 1
   ENCUT  =  520.0 eV  38.22 Ry    6.18 a.u.  37.19 37.19 37.19*2*pi/ulx,y,z
   ENINI  =  520.0     initial cutoff
   ENAUG  =  412.5 eV  augmentation charge cutoff
   NELM   =    200;   NELMIN=  8; NELMDL= -5     # of ELM steps 
   EDIFF  = 0.1E-05   stopping-criterion for ELM
   LREAL  =      T    real-space projection
   NLSPLINE    = F    spline interpolate recip. space projectors
   LCOMPAT=      F    compatible to vasp.4.4
   GGA_COMPAT  = T    GGA compatible to vasp.4.4-vasp.4.6
   LMAXPAW     = -100 max onsite density
   LMAXMIX     =    2 max onsite mixed and CHGCAR
   VOSKOWN=      0    Vosko Wilk Nusair interpolation
   ROPT   =   -0.00025
 Ionic relaxation
   EDIFFG = 0.1E-04   stopping-criterion for IOM
   NSW    =      0    number of steps for IOM
   NBLOCK =      1;   KBLOCK =      1    inner block; outer block 
   IBRION =     -1    ionic relax: 0-MD 1-quasi-New 2-CG
   NFREE  =      0    steps in history (QN), initial steepest desc. (CG)
   ISIF   =      2    stress and relaxation
   IWAVPR =     10    prediction:  0-non 1-charg 2-wave 3-comb
   ISYM   =      2    0-nonsym 1-usesym 2-fastsym
   LCORR  =      T    Harris-Foulkes like correction to forces

   POTIM  = 0.5000    time-step for ionic-motion
   TEIN   =    0.0    initial temperature
   TEBEG  =    0.0;   TEEND  =   0.0 temperature during run
   SMASS  =  -3.00    Nose mass-parameter (am)
   estimated Nose-frequenzy (Omega)   =  0.10E-29 period in steps = 0.13E+47 mass=  -0.914E-26a.u.
   SCALEE = 1.0000    scale energy and forces
   NPACO  =    256;   APACO  = 10.0  distance and # of slots for P.C.
   PSTRESS=    0.0 pullay stress

  Mass of Ions in am
   POMASS = 107.87
  Ionic Valenz
   ZVAL   =  11.00
  Atomic Wigner-Seitz radii
   RWIGS  =  -1.00
  virtual crystal weights 
   VCA    =   1.00
   NELECT =      44.0000    total number of electrons
   NUPDOWN=      -1.0000    fix difference up-down

 DOS related values:
   EMIN   =  10.00;   EMAX   =-10.00  energy-range for DOS
   EFERMI =   0.00
   ISMEAR =     0;   SIGMA  =   0.05  broadening in eV -4-tet -1-fermi 0-gaus

 Electronic relaxation 2 (details)
   IALGO  =     58    algorithm
   LDIAG  =      T    sub-space diagonalisation (order eigenvalues)
   LSUBROT=      F    optimize rotation matrix (better conditioning)
   TURBO    =      0    0=normal 1=particle mesh
   IRESTART =      0    0=no restart 2=restart with 2 vectors
   NREBOOT  =      0    no. of reboots
   NMIN     =      0    reboot dimension
   EREF     =   0.00    reference energy to select bands
   IMIX   =      4    mixing-type and parameters
     AMIX     =   0.40;   BMIX     =  1.00
     AMIX_MAG =   1.60;   BMIX_MAG =  1.00
     AMIN     =   0.10
     WC   =   100.;   INIMIX=   1;  MIXPRE=   1;  MAXMIX= -45

 Intra band minimization:
   WEIMIN = 0.0000     energy-eigenvalue tresh-hold
   EBREAK =  0.39E-08  absolut break condition
   DEPER  =   0.30     relativ break condition  

   TIME   =   0.40     timestep for ELM

  volume/ion in A,a.u.               =    2000.00     13496.67
  Fermi-wavevector in a.u.,A,eV,Ry     =   0.288976  0.546086  1.136187  0.083507
  Thomas-Fermi vector in A             =   1.146265

 Write flags
   LWAVE        =      F    write WAVECAR
   LDOWNSAMPLE  =      F    k-point downsampling of WAVECAR
   LCHARG       =      F    write CHGCAR
   LVTOT        =      F    write LOCPOT, total local potential
   LVHAR        =      F    write LOCPOT, Hartree potential only
   LELF         =      F    write electronic localiz. function (ELF)
   LORBIT       =      0    0 simple, 1 ext, 2 COOP (PROOUT), +10 PAW based schemes


 Dipole corrections
   LMONO  =      F    monopole corrections only (constant potential shift)
   LDIPOL =      F    correct potential (dipole corrections)
   IDIPOL =      0    1-x, 2-y, 3-z, 4-all directions 
   EPSILON=  1.0000000 bulk dielectric constant

 Exchange correlation treatment:
   GGA     =    ML    GGA type
   LEXCH   =    44    internal setting for exchange type
   LIBXC   =     F    Libxc                    
   VOSKOWN =     0    Vosko Wilk Nusair interpolation
   LHFCALC =     F    Hartree Fock is set to
   LHFONE  =     F    Hartree Fock one center treatment
   AEXX    =    0.0000 exact exchange contribution

 vdW DFT:
   LUSE_VDW   =     T    switch on vdW DFT
   Zab_VDW    =******    correlation parameter
   PARAM1     =0.1234
   PARAM2     =1.0000
   PARAM3     =0.0000
   -- rVV10 --
   BPARAM     = 6.3000
   CPARAM     = 0.0093

 Linear response parameters
   LEPSILON=     F    determine dielectric tensor
   LRPA    =     F    only Hartree local field effects (RPA)
   LNABLA  =     F    use nabla operator in PAW spheres
   LVEL    =     F    velocity operator in full k-point grid
   CSHIFT  =0.1000    complex shift for real part using Kramers Kronig
   OMEGAMAX=  -1.0    maximum frequency
   DEG_THRESHOLD= 0.2000000E-02 threshold for treating states as degnerate
   RTIME   =   -0.100 relaxation time in fs
  (WPLASMAI=    0.000 imaginary part of plasma frequency in eV, 0.658/RTIME)
   DFIELD  = 0.0000000 0.0000000 0.0000000 field for delta impulse in time

  Optional k-point grid parameters
   LKPOINTS_OPT  =     F    use optional k-point grid
   KPOINTS_OPT_MODE=     1    mode for optional k-point grid

 Orbital magnetization related:
   ORBITALMAG=     F  switch on orbital magnetization
   LCHIMAG   =     F  perturbation theory with respect to B field
   DQ        =  0.001000  dq finite difference perturbation B field
   LLRAUG    =     F  two centre corrections for induced B field



--------------------------------------------------------------------------------------------------------


 Static calculation
 charge density and potential will be updated during run
 non-spin polarized calculation
 Conjugate gradient for all bands (Freysoldt, et al. PRB 79, 241103 (2009))
 preconditioned conjugated gradient                                        
 perform sub-space diagonalisation
    before iterative eigenvector-optimisation
 modified Broyden-mixing scheme, WC =      100.0
 initial mixing is a Kerker type mixing with AMIX =  0.4000 and BMIX =      1.0000
 Hartree-type preconditioning will be used
 using additional bands           42
 real space projection scheme for non local part
 use partial core corrections
 no Harris-corrections to forces 
 use gradient corrections 
 use of overlap-Matrix (Vanderbilt PP)
 Gauss-broadening in eV      SIGMA  =   0.05


--------------------------------------------------------------------------------------------------------


  energy-cutoff  :      520.00
  volume of cell :     8000.00
      direct lattice vectors                 reciprocal lattice vectors
    20.000000000  0.000000000  0.000000000     0.050000000  0.000000000  0.000000000
     0.000000000 20.000000000  0.000000000     0.000000000  0.050000000  0.000000000
     0.000000000  0.000000000 20.000000000     0.000000000  0.000000000  0.050000000

  length of vectors
    20.000000000 20.000000000 20.000000000     0.050000000  0.050000000  0.050000000



 k-points in units of 2pi/SCALE and weight: KPOINTS created by Atomic Simulation Env
   0.00000000  0.00000000  0.00000000       1.000

 k-points in reciprocal lattice and weights: KPOINTS created by Atomic Simulation Env
   0.00000000  0.00000000  0.00000000       1.000

 position of ions in fractional coordinates (direct lattice) 
   0.03464644  0.00991753  0.06870942
   0.96440164  0.98361430  0.93144802
   0.94310959  0.92190714  0.07416065
   0.89641199  0.05680673  0.01003082

 position of ions in cartesian coordinates  (Angst):
   0.69292875  0.19835069  1.37418833
  19.28803284 19.67228608 18.62896046
  18.86219170 18.43814270  1.48321290
  17.92823970  1.13613453  0.20061631



--------------------------------------------------------------------------------------------------------


 k-point   1 :   0.0000 0.0000 0.0000  plane waves:  215503

 maximum and minimum number of plane-waves per node :     53900    53857

 maximum number of plane-waves:    215503
 maximum index in each direction: 
   IXMAX=   37   IYMAX=   37   IZMAX=   37
   IXMIN=  -37   IYMIN=  -37   IZMIN=  -37


 real space projection operators:
  total allocation   :       2912.20 KBytes
  max/ min on nodes  :        776.39        675.70


 parallel 3D FFT for wavefunctions:
    minimum data exchange during FFTs selected (reduces bandwidth)
 parallel 3D FFT for charge:
    minimum data exchange during FFTs selected (reduces bandwidth)


 total amount of memory used by VASP MPI-rank0   107682. kBytes
=======================================================================

   base      :      30000. kBytes
   nonlr-proj:       1317. kBytes
   fftplans  :      30789. kBytes
   grid      :      42969. kBytes
   one-center:         15. kBytes
   wavefun   :       2592. kBytes

     INWAV:  cpu time      0.0000: real time      0.0000
 Broyden mixing: mesh for mixing (old mesh)
   NGX = 75   NGY = 75   NGZ = 75
  (NGX  =300   NGY  =300   NGZ  =300)
  gives a total of 421875 points

 initial charge density was supplied:
 charge density of overlapping atoms calculated
 number of electron      44.0000000 magnetization 
 keeping initial charge density in first step


--------------------------------------------------------------------------------------------------------


 Maximum index for non-local projection operator         1457
 Maximum index for augmentation-charges          559 (set IRDMAX)


--------------------------------------------------------------------------------------------------------


 First call to EWALD:  gamma=   0.089
 Maximum number of real-space cells 3x 3x 3
 Maximum number of reciprocal cells 3x 3x 3

    FEWALD:  cpu time      0.0007: real time      0.0007


--------------------------------------- Iteration      1(   1)  ---------------------------------------


vdW kernel read from vdw_kernel.bindat
  0.0000  0.2424  0.5071  0.7962  1.1119  1.4567  1.8333  2.2446  2.6937  3.1842
  3.7199  4.3049  4.9438  5.6415  6.4036  7.2358  8.1446  9.1372 10.2212 11.4050
 12.6979 14.1099 15.6519 17.3360 19.1751 21.1837 23.3773 25.7729 28.3892 31.2465
 34.3669 37.7748 41.4965 45.5611 50.0000

    POTLOK:  cpu time      1.7650: real time      1.7756
    SETDIJ:  cpu time      0.1232: real time      0.1234
    TRIAL :  cpu time      0.3535: real time      0.3541
    CORREC:  cpu time      0.0015: real time      0.0015
    --------------------------------------------
      LOOP:  cpu time      2.2452: real time      2.2567

 eigenvalue-minimisations  :   128
 total energy-change (2. order) : 0.3289148E+03  (-0.8426179E+03)
 number of electron      44.0000000 magnetization 
 augmentation part       44.0000000 magnetization 

 Free energy of the ion-electron system (eV)
  ---------------------------------------------------
  alpha Z        PSCENC =         1.70115614
  Ewald energy   TEWEN  =      1639.76480008
  -Hartree energ DENC   =     -5603.35729384
  -exchange      EXHF   =         0.00000000
  -V(xc)+E(xc)   XCENC  =       -56.75224517
  PAW double counting   =      4027.94981166    -3833.85042198
  entropy T*S    EENTRO =        -0.04008796
  eigenvalues    EBANDS =       -13.81794803
  atomic energy  EATOM  =      4167.31707296
  ---------------------------------------------------
  free energy    TOTEN  =       328.91484385 eV

  energy without entropy =      328.95493181  energy(sigma->0) =      328.93488783


--------------------------------------------------------------------------------------------------------




--------------------------------------- Iteration      1(   2)  ---------------------------------------


    TRIAL :  cpu time      0.7919: real time      0.7922
    CORREC:  cpu time      0.0002: real time      0.0002
    --------------------------------------------
      LOOP:  cpu time      0.7973: real time      0.8056

 eigenvalue-minimisations  :   256
 total energy-change (2. order) :-0.2924451E+03  (-0.2921896E+03)
 number of electron      44.0000000 magnetization 
 augmentation part       44.0000000 magnetization 

 Free energy of the ion-electron system (eV)
  ---------------------------------------------------
  alpha Z        PSCENC =         1.70115614
  Ewald energy   TEWEN  =      1639.76480008
  -Hartree energ DENC   =     -5603.35729384
  -exchange      EXHF   =         0.00000000
  -V(xc)+E(xc)   XCENC  =       -56.75224517
  PAW double counting   =      4027.94981166    -3833.85042198
  entropy T*S    EENTRO =        -0.00000000
  eigenvalues    EBANDS =      -306.30312284
  atomic energy  EATOM  =      4167.31707296
  ---------------------------------------------------
  free energy    TOTEN  =        36.46975700 eV

  energy without entropy =       36.46975700  energy(sigma->0) =       36.46975700


--------------------------------------------------------------------------------------------------------




--------------------------------------- Iteration      1(   3)  ---------------------------------------


    TRIAL :  cpu time      0.3390: real time      0.3391
    CORREC:  cpu time      0.0002: real time      0.0002
    --------------------------------------------
      LOOP:  cpu time      0.3446: real time      0.3521

 eigenvalue-minimisations  :   128
 total energy-change (2. order) :-0.2897729E+02  (-0.2897729E+02)
 number of electron      44.0000000 magnetization 
 augmentation part       44.0000000 magnetization 

 Free energy of the ion-electron system (eV)
  ---------------------------------------------------
  alpha Z        PSCENC =         1.70115614
  Ewald energy   TEWEN  =      1639.76480008
  -Hartree energ DENC   =     -5603.35729384
  -exchange      EXHF   =         0.00000000
  -V(xc)+E(xc)   XCENC  =       -56.75224517
  PAW double counting   =      4027.94981166    -3833.85042198
  entropy T*S    EENTRO =        -0.00000000
  eigenvalues    EBANDS =      -335.28041005
  atomic energy  EATOM  =      4167.31707296
  ---------------------------------------------------
  free energy    TOTEN  =         7.49246979 eV

  energy without entropy =        7.49246979  energy(sigma->0) =        7.49246979


--------------------------------------------------------------------------------------------------------




--------------------------------------- Iteration      1(   4)  ---------------------------------------


    TRIAL :  cpu time      0.3397: real time      0.3398
    CORREC:  cpu time      0.0002: real time      0.0002
    --------------------------------------------
      LOOP:  cpu time      0.3529: real time      0.3531

 eigenvalue-minimisations  :   128
 total energy-change (2. order) :-0.1995744E+00  (-0.1995744E+00)
 number of electron      44.0000000 magnetization 
 augmentation part       44.0000000 magnetization 

 Free energy of the ion-electron system (eV)
  ---------------------------------------------------
  alpha Z        PSCENC =         1.70115614
  Ewald energy   TEWEN  =      1639.76480008
  -Hartree energ DENC   =     -5603.35729384
  -exchange      EXHF   =         0.00000000
  -V(xc)+E(xc)   XCENC  =       -56.75224517
  PAW double counting   =      4027.94981166    -3833.85042198
  entropy T*S    EENTRO =        -0.00000000
  eigenvalues    EBANDS =      -335.47998445
  atomic energy  EATOM  =      4167.31707296
  ---------------------------------------------------
  free energy    TOTEN  =         7.29289539 eV

  energy without entropy =        7.29289539  energy(sigma->0) =        7.29289539


--------------------------------------------------------------------------------------------------------




--------------------------------------- Iteration      1(   5)  ---------------------------------------


    TRIAL :  cpu time      0.7774: real time      0.7775
    CORREC:  cpu time      0.0002: real time      0.0002
    CHARGE:  cpu time      0.1090: real time      0.1092
    --------------------------------------------
      LOOP:  cpu time      0.8918: real time      0.9000

 eigenvalue-minimisations  :   256
 total energy-change (2. order) :-0.3376197E-02  (-0.3376197E-02)
 number of electron      43.9999998 magnetization 
 augmentation part       20.9962920 magnetization 

 Free energy of the ion-electron system (eV)
  ---------------------------------------------------
  alpha Z        PSCENC =         1.70115614
  Ewald energy   TEWEN  =      1639.76480008
  -Hartree energ DENC   =     -5603.35729384
  -exchange      EXHF   =         0.00000000
  -V(xc)+E(xc)   XCENC  =       -56.75224517
  PAW double counting   =      4027.94981166    -3833.85042198
  entropy T*S    EENTRO =        -0.00000000
  eigenvalues    EBANDS =      -335.48336065
  atomic energy  EATOM  =      4167.31707296
  ---------------------------------------------------
  free energy    TOTEN  =         7.28951919 eV

  energy without entropy =        7.28951919  energy(sigma->0) =        7.28951919


--------------------------------------------------------------------------------------------------------




--------------------------------------- Iteration      1(   6)  ---------------------------------------


    POTLOK:  cpu time      1.3720: real time      1.3722
    SETDIJ:  cpu time      0.1207: real time      0.1207
    TRIAL :  cpu time      0.4427: real time      0.5520
    CORREC:  cpu time      1.6618: real time      1.6623
    CHARGE:  cpu time      0.0953: real time      0.0953
    --------------------------------------------
      LOOP:  cpu time      3.6974: real time      3.8147

 eigenvalue-minimisations  :     0
 total energy-change (2. order) : 0.1310332E+01  (-0.6395201E+00)
 number of electron      43.9999998 magnetization 
 augmentation part       21.2900102 magnetization 

 Free energy of the ion-electron system (eV)
  ---------------------------------------------------
  alpha Z        PSCENC =         1.70115614
  Ewald energy   TEWEN  =      1639.76480008
  -Hartree energ DENC   =     -5589.50204503
  -exchange      EXHF   =         0.00000000
  -V(xc)+E(xc)   XCENC  =       -58.31067379
  PAW double counting   =      4207.59825589    -4017.47275557
  entropy T*S    EENTRO =        -0.00000000
  eigenvalues    EBANDS =      -342.49595928
  atomic energy  EATOM  =      4167.31707296
  ---------------------------------------------------
  free energy    TOTEN  =         8.59985140 eV

  energy without entropy =        8.59985140  energy(sigma->0) =        8.59985140


--------------------------------------------------------------------------------------------------------




--------------------------------------- Iteration      1(   7)  ---------------------------------------


    POTLOK:  cpu time      1.3891: real time      1.3893
    SETDIJ:  cpu time      0.1192: real time      0.1192
    TRIAL :  cpu time      0.1827: real time      0.1827
    CORREC:  cpu time      1.6631: real time      1.6632
    CHARGE:  cpu time      0.0945: real time      0.0945
    --------------------------------------------
      LOOP:  cpu time      3.4612: real time      3.4618

 eigenvalue-minimisations  :     0
 total energy-change (2. order) :-0.6392366E+00  (-0.6761174E-01)
 number of electron      43.9999998 magnetization 
 augmentation part       21.2185270 magnetization 

 Free energy of the ion-electron system (eV)
  ---------------------------------------------------
  alpha Z        PSCENC =         1.70115614
  Ewald energy   TEWEN  =      1639.76480008
  -Hartree energ DENC   =     -5607.84916637
  -exchange      EXHF   =         0.00000000
  -V(xc)+E(xc)   XCENC  =       -57.25782195
  PAW double counting   =      4214.90659927    -4025.10799118
  entropy T*S    EENTRO =        -0.00000000
  eigenvalues    EBANDS =      -325.51403410
  atomic energy  EATOM  =      4167.31707296
  ---------------------------------------------------
  free energy    TOTEN  =         7.96061484 eV

  energy without entropy =        7.96061484  energy(sigma->0) =        7.96061484


--------------------------------------------------------------------------------------------------------




--------------------------------------- Iteration      1(   8)  ---------------------------------------


    POTLOK:  cpu time      1.3887: real time      1.3888
    SETDIJ:  cpu time      0.1202: real time      0.1202
    TRIAL :  cpu time      0.1825: real time      0.1825
    CORREC:  cpu time      1.6604: real time      1.6605
    CHARGE:  cpu time      0.0947: real time      0.0947
    --------------------------------------------
      LOOP:  cpu time      3.4511: real time      3.4607

 eigenvalue-minimisations  :     0
 total energy-change (2. order) :-0.6742349E-01  (-0.3584672E-01)
 number of electron      43.9999998 magnetization 
 augmentation part       21.2493892 magnetization 

 Free energy of the ion-electron system (eV)
  ---------------------------------------------------
  alpha Z        PSCENC =         1.70115614
  Ewald energy   TEWEN  =      1639.76480008
  -Hartree energ DENC   =     -5590.51939240
  -exchange      EXHF   =         0.00000000
  -V(xc)+E(xc)   XCENC  =       -57.66967625
  PAW double counting   =      4192.01156604    -4002.01015171
  entropy T*S    EENTRO =        -0.00000000
  eigenvalues    EBANDS =      -342.70218351
  atomic energy  EATOM  =      4167.31707296
  ---------------------------------------------------
  free energy    TOTEN  =         7.89319135 eV

  energy without entropy =        7.89319135  energy(sigma->0) =        7.89319135


--------------------------------------------------------------------------------------------------------




--------------------------------------- Iteration      1(   9)  ---------------------------------------


    POTLOK:  cpu time      1.3875: real time      1.3877
    SETDIJ:  cpu time      0.1194: real time      0.1194
    TRIAL :  cpu time      0.1818: real time      0.1818
    CORREC:  cpu time      1.6579: real time      1.6580
    CHARGE:  cpu time      0.0952: real time      0.0952
    --------------------------------------------
      LOOP:  cpu time      3.4471: real time      3.4550

 eigenvalue-minimisations  :     0
 total energy-change (2. order) :-0.3589643E-01  (-0.7765930E-02)
 number of electron      43.9999998 magnetization 
 augmentation part       21.2524501 magnetization 

 Free energy of the ion-electron system (eV)
  ---------------------------------------------------
  alpha Z        PSCENC =         1.70115614
  Ewald energy   TEWEN  =      1639.76480008
  -Hartree energ DENC   =     -5596.15682972
  -exchange      EXHF   =         0.00000000
  -V(xc)+E(xc)   XCENC  =       -57.50920642
  PAW double counting   =      4192.16611120    -4002.18628278
  entropy T*S    EENTRO =        -0.00000000
  eigenvalues    EBANDS =      -337.23952654
  atomic energy  EATOM  =      4167.31707296
  ---------------------------------------------------
  free energy    TOTEN  =         7.85729492 eV

  energy without entropy =        7.85729492  energy(sigma->0) =        7.85729492


--------------------------------------------------------------------------------------------------------




--------------------------------------- Iteration      1(  10)  ---------------------------------------


    POTLOK:  cpu time      1.4236: real time      1.4237
    SETDIJ:  cpu time      0.0756: real time      0.0756
    TRIAL :  cpu time      0.1825: real time      0.1825
    CORREC:  cpu time      1.6497: real time      1.6502
    CHARGE:  cpu time      0.0951: real time      0.0951
    --------------------------------------------
      LOOP:  cpu time      3.4397: real time      3.4406

 eigenvalue-minimisations  :     0
 total energy-change (2. order) :-0.7778337E-02  (-0.1501342E-02)
 number of electron      43.9999998 magnetization 
 augmentation part       21.2490554 magnetization 

 Free energy of the ion-electron system (eV)
  ---------------------------------------------------
  alpha Z        PSCENC =         1.70115614
  Ewald energy   TEWEN  =      1639.76480008
  -Hartree energ DENC   =     -5595.09595201
  -exchange      EXHF   =         0.00000000
  -V(xc)+E(xc)   XCENC  =       -57.51033439
  PAW double counting   =      4192.34870974    -4002.25936903
  entropy T*S    EENTRO =        -0.00000000
  eigenvalues    EBANDS =      -338.41656690
  atomic energy  EATOM  =      4167.31707296
  ---------------------------------------------------
  free energy    TOTEN  =         7.84951658 eV

  energy without entropy =        7.84951658  energy(sigma->0) =        7.84951658


--------------------------------------------------------------------------------------------------------




--------------------------------------- Iteration      1(  11)  ---------------------------------------


    POTLOK:  cpu time      1.3781: real time      1.3782
    SETDIJ:  cpu time      0.1195: real time      0.1195
    TRIAL :  cpu time      0.1824: real time      0.1824
    CORREC:  cpu time      1.6508: real time      1.6509
    CHARGE:  cpu time      0.0967: real time      0.0967
    --------------------------------------------
      LOOP:  cpu time      3.4331: real time      3.4409

 eigenvalue-minimisations  :     0
 total energy-change (2. order) :-0.1512177E-02  (-0.2652272E-03)
 number of electron      43.9999998 magnetization 
 augmentation part       21.2540624 magnetization 

 Free energy of the ion-electron system (eV)
  ---------------------------------------------------
  alpha Z        PSCENC =         1.70115614
  Ewald energy   TEWEN  =      1639.76480008
  -Hartree energ DENC   =     -5594.61866680
  -exchange      EXHF   =         0.00000000
  -V(xc)+E(xc)   XCENC  =       -57.53061182
  PAW double counting   =      4191.18664251    -4001.04857678
  entropy T*S    EENTRO =        -0.00000000
  eigenvalues    EBANDS =      -338.92381187
  atomic energy  EATOM  =      4167.31707296
  ---------------------------------------------------
  free energy    TOTEN  =         7.84800441 eV

  energy without entropy =        7.84800441  energy(sigma->0) =        7.84800441


--------------------------------------------------------------------------------------------------------




--------------------------------------- Iteration      1(  12)  ---------------------------------------


    POTLOK:  cpu time      1.3767: real time      1.3768
    SETDIJ:  cpu time      0.1180: real time      0.1180
    TRIAL :  cpu time      0.1819: real time      0.1819
    CORREC:  cpu time      1.6488: real time      1.6490
    CHARGE:  cpu time      0.0947: real time      0.0947
    --------------------------------------------
      LOOP:  cpu time      3.4260: real time      3.4340

 eigenvalue-minimisations  :     0
 total energy-change (2. order) :-0.2605820E-03  (-0.6735724E-04)
 number of electron      43.9999998 magnetization 
 augmentation part       21.2523789 magnetization 

 Free energy of the ion-electron system (eV)
  ---------------------------------------------------
  alpha Z        PSCENC =         1.70115614
  Ewald energy   TEWEN  =      1639.76480008
  -Hartree energ DENC   =     -5595.47795009
  -exchange      EXHF   =         0.00000000
  -V(xc)+E(xc)   XCENC  =       -57.50609373
  PAW double counting   =      4191.23355780    -4001.10147858
  entropy T*S    EENTRO =        -0.00000000
  eigenvalues    EBANDS =      -338.08332076
  atomic energy  EATOM  =      4167.31707296
  ---------------------------------------------------
  free energy    TOTEN  =         7.84774382 eV

  energy without entropy =        7.84774382  energy(sigma->0) =        7.84774382


--------------------------------------------------------------------------------------------------------




--------------------------------------- Iteration      1(  13)  ---------------------------------------


    POTLOK:  cpu time      1.3772: real time      1.3773
    SETDIJ:  cpu time      0.1173: real time      0.1173
    TRIAL :  cpu time      0.1826: real time      0.1827
    CORREC:  cpu time      1.6505: real time      1.6506
    CHARGE:  cpu time      0.0937: real time      0.0937
    --------------------------------------------
      LOOP:  cpu time      3.4266: real time      3.4348

 eigenvalue-minimisations  :     0
 total energy-change (2. order) :-0.6749107E-04  (-0.1374195E-04)
 number of electron      43.9999998 magnetization 
 augmentation part       21.2517852 magnetization 

 Free energy of the ion-electron system (eV)
  ---------------------------------------------------
  alpha Z        PSCENC =         1.70115614
  Ewald energy   TEWEN  =      1639.76480008
  -Hartree energ DENC   =     -5595.15317145
  -exchange      EXHF   =         0.00000000
  -V(xc)+E(xc)   XCENC  =       -57.51453600
  PAW double counting   =      4190.48342670    -4000.34650252
  entropy T*S    EENTRO =        -0.00000000
  eigenvalues    EBANDS =      -338.40456957
  atomic energy  EATOM  =      4167.31707296
  ---------------------------------------------------
  free energy    TOTEN  =         7.84767633 eV

  energy without entropy =        7.84767633  energy(sigma->0) =        7.84767633


--------------------------------------------------------------------------------------------------------




--------------------------------------- Iteration      1(  14)  ---------------------------------------


    POTLOK:  cpu time      1.3771: real time      1.3773
    SETDIJ:  cpu time      0.1185: real time      0.1185
    TRIAL :  cpu time      0.1823: real time      0.1823
    CORREC:  cpu time      1.6487: real time      1.6488
    CHARGE:  cpu time      0.0949: real time      0.0949
    --------------------------------------------
      LOOP:  cpu time      3.4263: real time      3.4356

 eigenvalue-minimisations  :     0
 total energy-change (2. order) :-0.1408660E-04  (-0.7085830E-05)
 number of electron      43.9999998 magnetization 
 augmentation part       21.2526622 magnetization 

 Free energy of the ion-electron system (eV)
  ---------------------------------------------------
  alpha Z        PSCENC =         1.70115614
  Ewald energy   TEWEN  =      1639.76480008
  -Hartree energ DENC   =     -5595.07287063
  -exchange      EXHF   =         0.00000000
  -V(xc)+E(xc)   XCENC  =       -57.51707192
  PAW double counting   =      4190.18246563    -4000.04397493
  entropy T*S    EENTRO =        -0.00000000
  eigenvalues    EBANDS =      -338.48391509
  atomic energy  EATOM  =      4167.31707296
  ---------------------------------------------------
  free energy    TOTEN  =         7.84766225 eV

  energy without entropy =        7.84766225  energy(sigma->0) =        7.84766225


--------------------------------------------------------------------------------------------------------




--------------------------------------- Iteration      1(  15)  ---------------------------------------


    POTLOK:  cpu time      1.3758: real time      1.3759
    SETDIJ:  cpu time      0.1178: real time      0.1178
    TRIAL :  cpu time      0.1824: real time      0.1824
    CORREC:  cpu time      1.6480: real time      1.6482
    CHARGE:  cpu time      0.0955: real time      0.0955
    --------------------------------------------
      LOOP:  cpu time      3.4328: real time      3.4335

 eigenvalue-minimisations  :     0
 total energy-change (2. order) :-0.5284223E-05  (-0.1672105E-05)
 number of electron      43.9999998 magnetization 
 augmentation part       21.2522898 magnetization 

 Free energy of the ion-electron system (eV)
  ---------------------------------------------------
  alpha Z        PSCENC =         1.70115614
  Ewald energy   TEWEN  =      1639.76480008
  -Hartree energ DENC   =     -5595.26804352
  -exchange      EXHF   =         0.00000000
  -V(xc)+E(xc)   XCENC  =       -57.51207286
  PAW double counting   =      4190.12811933    -3999.99120873
  entropy T*S    EENTRO =        -0.00000000
  eigenvalues    EBANDS =      -338.29216643
  atomic energy  EATOM  =      4167.31707296
  ---------------------------------------------------
  free energy    TOTEN  =         7.84765696 eV

  energy without entropy =        7.84765696  energy(sigma->0) =        7.84765696


--------------------------------------------------------------------------------------------------------




--------------------------------------- Iteration      1(  16)  ---------------------------------------


    POTLOK:  cpu time      1.3765: real time      1.3766
    SETDIJ:  cpu time      0.1187: real time      0.1187
    TRIAL :  cpu time      0.1822: real time      0.1822
    CORREC:  cpu time      1.6788: real time      1.6793
    CHARGE:  cpu time      0.0950: real time      0.0950
    --------------------------------------------
      LOOP:  cpu time      3.4558: real time      3.4652

 eigenvalue-minimisations  :     0
 total energy-change (2. order) :-0.1277469E-05  (-0.3304750E-06)
 number of electron      43.9999998 magnetization 
 augmentation part       21.2521895 magnetization 

 Free energy of the ion-electron system (eV)
  ---------------------------------------------------
  alpha Z        PSCENC =         1.70115614
  Ewald energy   TEWEN  =      1639.76480008
  -Hartree energ DENC   =     -5595.19734995
  -exchange      EXHF   =         0.00000000
  -V(xc)+E(xc)   XCENC  =       -57.51398013
  PAW double counting   =      4190.04442879    -3999.90649779
  entropy T*S    EENTRO =        -0.00000000
  eigenvalues    EBANDS =      -338.36197442
  atomic energy  EATOM  =      4167.31707296
  ---------------------------------------------------
  free energy    TOTEN  =         7.84765568 eV

  energy without entropy =        7.84765568  energy(sigma->0) =        7.84765568


--------------------------------------------------------------------------------------------------------




--------------------------------------- Iteration      1(  17)  ---------------------------------------


    POTLOK:  cpu time      1.3757: real time      1.3757
    SETDIJ:  cpu time      0.1182: real time      0.1182
    TRIAL :  cpu time      0.1825: real time      0.1825
    CORREC:  cpu time      1.6316: real time      1.6317
    EDDIAG:  cpu time      0.0775: real time      0.0780
    CHARGE:  cpu time      0.0947: real time      0.0947
    --------------------------------------------
      LOOP:  cpu time      3.4852: real time      3.4946

 eigenvalue-minimisations  :     0
 total energy-change (2. order) :-0.2096513E-06  ( 0.5448445E-06)
 number of electron      43.9999998 magnetization 
 augmentation part       21.2522506 magnetization 

 Free energy of the ion-electron system (eV)
  ---------------------------------------------------
  alpha Z        PSCENC =         1.70115614
  Ewald energy   TEWEN  =      1639.76480008
  -Hartree energ DENC   =     -5595.17806899
  -exchange      EXHF   =         0.00000000
  -V(xc)+E(xc)   XCENC  =       -57.51448738
  PAW double counting   =      4190.00682478    -3999.86855716
  entropy T*S    EENTRO =        -0.00000000
  eigenvalues    EBANDS =      -338.38108495
  atomic energy  EATOM  =      4167.31707296
  ---------------------------------------------------
  free energy    TOTEN  =         7.84765547 eV

  energy without entropy =        7.84765547  energy(sigma->0) =        7.84765547


--------------------------------------------------------------------------------------------------------


  average scaling for gradient   1.2540


 average (electrostatic) potential at core
  the test charge radii are     1.1249
  (the norm of the test charge is              1.0000)
       1 -83.1060       2 -83.1104       3 -83.1095       4 -83.1050



 E-fermi :  -4.1718     XC(G=0):  -0.5378     alpha+bet : -0.1148

 Fermi energy:        -4.1718366748

 k-point     1 :       0.0000    0.0000    0.0000
  band No.  band energies     occupation 
      1      -9.0481      2.00000
      2      -8.8990      2.00000
      3      -8.7768      2.00000
      4      -8.5047      2.00000
      5      -8.5039      2.00000
      6      -8.2612      2.00000
      7      -8.0212      2.00000
      8      -8.0105      2.00000
      9      -7.9649      2.00000
     10      -7.7876      2.00000
     11      -7.7618      2.00000
     12      -7.6035      2.00000
     13      -7.5995      2.00000
     14      -7.4043      2.00000
     15      -7.4021      2.00000
     16      -7.3756      2.00000
     17      -7.3732      2.00000
     18      -7.3657      2.00000
     19      -7.1334      2.00000
     20      -7.1264      2.00000
     21      -6.8558      2.00000
     22      -4.4055      2.00000
     23      -3.9190      0.00000
     24      -3.8962      0.00000
     25      -1.7199      0.00000
     26      -1.3941      0.00000
     27      -1.3812      0.00000
     28      -1.1279      0.00000
     29      -1.1143      0.00000
     30      -0.6825      0.00000
     31      -0.1589      0.00000
     32      -0.0324      0.00000
     33       0.0393      0.00000
     34       0.0501      0.00000
     35       0.0673      0.00000
     36       0.0784      0.00000
     37       0.3549      0.00000
     38       0.4586      0.00000
     39       0.4788      0.00000
     40       0.4954      0.00000
     41       0.4978      0.00000
     42       0.5166      0.00000
     43       0.5368      0.00000
     44       0.5511      0.00000
     45       0.5536      0.00000
     46       0.5999      0.00000
     47       0.6204      0.00000
     48       0.6317      0.00000
     49       0.7866      0.00000
     50       0.8076      0.00000
     51       0.8169      0.00000
     52       0.8888      0.00000
     53       0.9082      0.00000
     54       0.9507      0.00000
     55       1.0056      0.00000
     56       1.0073      0.00000
     57       1.0092      0.00000
     58       1.0227      0.00000
     59       1.0762      0.00000
     60       1.0932      0.00000
     61       1.1478      0.00000
     62       1.2776      0.00000
     63       1.3060      0.00000
     64       1.3105      0.00000


--------------------------------------------------------------------------------------------------------


 soft charge-density along one line, spin component           1
         0         1         2         3         4         5         6         7         8         9
 total charge-density along one line

 pseudopotential strength for first ion, spin component:           1
-10.592   0.001   0.022  -0.005   0.000 -10.556   0.001   0.021
  0.001 -10.560  -0.005  -0.016   0.006   0.001 -10.525  -0.004
  0.022  -0.005 -10.563   0.000   0.006   0.021  -0.004 -10.528
 -0.005  -0.016   0.000 -10.568   0.001  -0.005  -0.016   0.000
  0.000   0.006   0.006   0.001 -10.583   0.000   0.006   0.005
-10.556   0.001   0.021  -0.005   0.000 -10.496   0.001   0.021
  0.001 -10.525  -0.004  -0.016   0.006   0.001 -10.467  -0.004
  0.021  -0.004 -10.528   0.000   0.005   0.021  -0.004 -10.470
 -0.005  -0.016   0.000 -10.533   0.001  -0.005  -0.015   0.000
  0.000   0.006   0.005   0.001 -10.547   0.000   0.006   0.005
  0.009   0.001  -0.005   0.000   0.002   0.009   0.001  -0.005
  0.015   0.002  -0.009   0.001   0.003   0.015   0.002  -0.009
  0.014  -0.010  -0.013   0.000  -0.026   0.013  -0.009  -0.013
  0.000   0.026  -0.012   0.017  -0.000   0.000   0.024  -0.011
  0.023   0.000  -0.008  -0.010   0.016   0.022   0.000  -0.007
  0.016  -0.013  -0.016   0.000  -0.031   0.015  -0.012  -0.015
  0.000   0.031  -0.015   0.019  -0.000   0.000   0.029  -0.014
  0.028   0.000  -0.009  -0.013   0.019   0.026   0.000  -0.009
 total augmentation occupancy for first ion, spin component:           1
  2.614   0.013  -0.251  -0.084  -0.012  -0.689  -0.018   0.312   0.084   0.018  -0.795   0.108   0.114  -0.033   0.071  -0.000
  0.013   2.304  -0.017   0.085   0.017  -0.018  -0.254  -0.005  -0.116  -0.007  -0.022   0.017   0.008   0.021   0.001  -0.006
 -0.251  -0.017   2.366   0.074   0.018   0.312  -0.005  -0.369  -0.082   0.005   0.451  -0.058  -0.062   0.040  -0.041  -0.003
 -0.084   0.085   0.074   2.493   0.105   0.084  -0.116  -0.082  -0.443  -0.102  -0.059   0.048  -0.027   0.097   0.057   0.001
 -0.012   0.017   0.018   0.105   2.443   0.018  -0.007   0.005  -0.102  -0.425  -0.130   0.049  -0.026   0.037   0.065  -0.014
 -0.689  -0.018   0.312   0.084   0.018   0.737   0.020  -0.370  -0.084  -0.023   0.645  -0.067  -0.139   0.029  -0.094   0.009
 -0.018  -0.254  -0.005  -0.116  -0.007   0.020   0.191   0.021   0.144  -0.001   0.001  -0.003  -0.007  -0.035   0.002   0.001
  0.312  -0.005  -0.369  -0.082   0.005  -0.370   0.021   0.347   0.087  -0.023  -0.360   0.031   0.070  -0.042   0.060  -0.004
  0.084  -0.116  -0.082  -0.443  -0.102  -0.084   0.144   0.087   0.380   0.099   0.058  -0.049   0.024  -0.101  -0.049  -0.001
  0.018  -0.007   0.005  -0.102  -0.425  -0.023  -0.001  -0.023   0.099   0.391   0.102  -0.037   0.037  -0.030  -0.075  -0.001
 -0.795  -0.022   0.451  -0.059  -0.130   0.645   0.001  -0.360   0.058   0.102   1.560  -0.147  -0.148  -0.008  -0.172   0.009
  0.108   0.017  -0.058   0.048   0.049  -0.067  -0.003   0.031  -0.049  -0.037  -0.147   0.029   0.010   0.018   0.032  -0.001
  0.114   0.008  -0.062  -0.027  -0.026  -0.139  -0.007   0.070   0.024   0.037  -0.148   0.010   0.032  -0.009   0.012  -0.002
 -0.033   0.021   0.040   0.097   0.037   0.029  -0.035  -0.042  -0.101  -0.030  -0.008   0.018  -0.009   0.034   0.016   0.000
  0.071   0.001  -0.041   0.057   0.065  -0.094   0.002   0.060  -0.049  -0.075  -0.172   0.032   0.012   0.016   0.044  -0.001
 -0.000  -0.006  -0.003   0.001  -0.014   0.009   0.001  -0.004  -0.001  -0.001   0.009  -0.001  -0.002   0.000  -0.001   0.000
  0.001   0.014  -0.009   0.005  -0.002  -0.001   0.002   0.002   0.005   0.001   0.001  -0.001   0.000  -0.002  -0.001  -0.000
  0.006   0.000  -0.001  -0.009   0.006   0.007  -0.000  -0.005   0.003   0.005   0.011  -0.002  -0.001  -0.001  -0.003   0.000


------------------------ aborting loop because EDIFF is reached ----------------------------------------


    FORLOC:  cpu time      0.0023: real time      0.0023
    FORNL :  cpu time      0.0937: real time      0.0938
    STRESS:  cpu time      0.2744: real time      0.2746
    FORCOR:  cpu time      1.3434: real time      1.3435
    OFIELD:  cpu time      0.0006: real time      0.0006

  FORCE on cell =-STRESS in cart. coord.  units (eV):
  Direction    XX          YY          ZZ          XY          YZ          ZX
  --------------------------------------------------------------------------------------
  Alpha Z     1.70116     1.70116     1.70116
  Ewald     498.35848   466.67555   674.72994   -82.28575  -144.70030   146.25527
  Hartree  1813.63142  1785.89472  1995.66404   -83.56070  -146.04048   150.06422
  E(xc)    -236.18052  -236.17462  -236.43476     0.11760     0.19990    -0.22207
  Local   -2948.40088 -2888.84798 -3312.13066   168.31001   294.92960  -300.96719
  n-local   -49.37039   -49.44178   -47.42540    -0.90282    -1.54450     1.70420
  augment   373.27277   373.26454   374.05115    -0.35795    -0.60531     0.67900
  Kinetic   548.45843   548.37780   551.14879    -1.25366    -2.12815     2.35980
  Fock        0.00000     0.00000     0.00000     0.00000     0.00000     0.00000
  -------------------------------------------------------------------------------------
  Total       1.47046     1.44937     1.30426     0.06673     0.11077    -0.12678
  in kB       0.29449     0.29027     0.26121     0.01336     0.02218    -0.02539
  external pressure =        0.28 kB  Pullay stress =        0.00 kB


 VOLUME and BASIS-vectors are now :
 -----------------------------------------------------------------------------
  energy-cutoff  :      520.00
  volume of cell :     8000.00
      direct lattice vectors                 reciprocal lattice vectors
    20.000000000  0.000000000  0.000000000     0.050000000  0.000000000  0.000000000
     0.000000000 20.000000000  0.000000000     0.000000000  0.050000000  0.000000000
     0.000000000  0.000000000 20.000000000     0.000000000  0.000000000  0.050000000

  length of vectors
    20.000000000 20.000000000 20.000000000     0.050000000  0.050000000  0.050000000


 FORCES acting on ions:
    Electron-Ion                     Ewald-Force                    Non-Local-Force
 -----------------------------------------------------------------------------------------------
   -.426E+03 -.167E+03 -.205E+03   0.423E+03 0.163E+03 0.207E+03   0.395E+01 0.483E+01 -.118E+01
   -.915E+02 0.119E+03 0.479E+03   0.879E+02 -.115E+03 -.477E+03   0.387E+01 -.409E+01 -.296E+01
   0.168E+03 0.407E+03 -.240E+03   -.164E+03 -.404E+03 0.241E+03   -.503E+01 -.383E+01 -.645E+00
   0.350E+03 -.359E+03 -.333E+02   -.347E+03 0.356E+03 0.288E+02   -.278E+01 0.310E+01 0.478E+01
 -----------------------------------------------------------------------------------------------
   0.407E-03 -.450E-02 -.147E-02   -.568E-13 0.000E+00 -.568E-13   0.112E-02 0.294E-02 -.250E-02


 POSITION                                       TOTAL-FORCE (eV/Angst)
 -----------------------------------------------------------------------------------
      0.69293      0.19835      1.37419         0.543947      0.320342      0.161114
     19.28803     19.67229     18.62896         0.212518     -0.250621     -0.558835
     18.86219     18.43814      1.48321        -0.329079     -0.516694      0.208008
     17.92824      1.13613      0.20062        -0.427385      0.446973      0.189712
 -----------------------------------------------------------------------------------
    total drift:                                0.001526     -0.001562     -0.003966


--------------------------------------------------------------------------------------------------------



  FREE ENERGIE OF THE ION-ELECTRON SYSTEM (eV)
  ---------------------------------------------------
  free  energy   TOTEN  =         7.84765547 eV

  energy  without entropy=        7.84765547  energy(sigma->0) =        7.84765547



--------------------------------------------------------------------------------------------------------


    POTLOK:  cpu time      1.4972: real time      1.4974


--------------------------------------------------------------------------------------------------------


     LOOP+:  cpu time     49.5614: real time     49.7905
    4ORBIT:  cpu time      0.0000: real time      0.0000

 total amount of memory used by VASP MPI-rank0   107682. kBytes
=======================================================================

   base      :      30000. kBytes
   nonlr-proj:       1317. kBytes
   fftplans  :      30789. kBytes
   grid      :      42969. kBytes
   one-center:         15. kBytes
   wavefun   :       2592. kBytes

  
  
 General timing and accounting informations for this job:
 ========================================================
  
                  Total CPU time used (sec):       63.557
                            User time (sec):       61.041
                          System time (sec):        2.516
                         Elapsed time (sec):       68.730
  
                   Maximum memory used (kb):      399964.
                   Average memory used (kb):          N/A
  
                          Minor page faults:        36902
                          Major page faults:           50
                 Voluntary context switches:         6783
