 **********************************************************************
                          MRCC program system
 **********************************************************************
 
                              Written by
     Mihaly Kallay, Peter R. Nagy, David Mester, Laszlo Gyevi-Nagy,
        Jozsef Csoka, P. Bernat Szabo, Zoltan Rolik, Gyula Samu,
     Jozsef Csontos, Bence Hegely, Adam Ganyecz, Istvan Ladjanszki,
       Lorant Szegedy, Bence Ladoczki, Klara Petrov, Mate Farkas,
                    Pal D. Mezei, and Reka A. Horvath
 
        Department of Physical Chemistry and Materials Science
            Budapest University of Technology and Economics
                  Budapest P.O.Box 91, H-1521 Hungary
 
                              www.mrcc.hu
 
                      Release date: March 18, 2022

 ************************ 2022-11-05 21:51:14 *************************
 Executing minp...

 Reading input from MINP...
 
 Input file:
 
calc=DF-CCSD(T)
scftyp=uhf
verbosity=3
mem=150GB
symm=off
unit=angs
scfiguess=small
scfalg=locfit1
lcorthr=tight
ccmaxit=400
ccsdalg=dfdirect
ccsdthreads=4
ccsdmkl=thr
ptthreads=4
ECP=MCDHF-ECP-60
basis=bse_ACVDZ
basis_sm=def2-SVP
dfbasis_scf=def2-QZVPP-RI-JK
dfbasis_cor=bse_ACVDZ_mp2fit
mult=2
core=0
unit=angs
geom=xyz
4
Au4
Au    -1.22034660     0.25240430     0.26244573
Au     1.22782340    -0.27696533    -0.25281631
Au     2.44105788    -0.80717041    -2.38806481
Au    -2.44105788     0.80717041     2.38806481

ghost=serialno
1,3,4
 
 
 Checking keyword combinations...
 
 Keywords:
 
 active=none
 agrid=ld0006-ld0590
 agrid_pssp=ld0006-ld0194
 agrid_pssp_sm=ld0006-ld0074
 basis=bse_acvdz
 basis_sm=def2-svp
 basopt=off
 bfbasis=none
 bfgsmem=10
 bfgstol=1.0d-3
 bpcompo=0.985
 bpcompv=0.98
 bpdfo=0.985
 bpocc=0.985
 bppdo=0.985
 bppdv=0.98
 bpedo=0.985
 bpedv=0.98
 calc=ccsd(t)
 ccmaxit=400
 ccprog=ccsd
 ccsdalg=dfdirect
 ccsdmkl=thr
 ccsdrest=trf
 ccsdthreads=4
 cctol=6
 charge=0
 cialg=auto
 ciguess=off
 cmpgrp=auto
 comprest=off
 core=corr
 corembed=off
 csapprox=off
 cvs=off
 dboc=off
 delocsomofact=
 dendec=cholesky
 dens=0
 dfalg=lineq
 dfbasis_cab=none
 dfbasis_cor=bse_acvdz_mp2fit
 dfbasis_scf=def2-qzvpp-ri-jk
 dfbasis_scf_sm=def2-qzvpp-ri-jk
 dfintran=drpa
 dft=off
 dhexc=adc(2)
 diag=david
 docc=
 domrad=10.d0
 drpaalg=fit
 dual=off
 dual_df=off
 ecp=mcdhf-ecp-60
 edisp=off
 edisp_embed=off
 embed=off
 etemp=300
 epert=none
 eps=
 espcharge=off
 excrad=1.0
 excrad_fin=0.100000000D-02
 fitting=coulomb
 fmm=off
 fmmord=8
 freq=off
 gamma=1.d0
 gauss=spher
 geom=xyz
 gopt=off
 ghost=serialno
 gtol=7
 grdens=off
 gridbatch_cos=2000
 grtol=10
 guido_ct=off
 hamilton=dc
 iface=none
 intalg=auto
 itol=10
 laptol=1.d-3
 lccoporder=trffirst
 lcorthr=tight
 lccrest=off
 lmp2dens=on
 lnoepso=0.d0
 lnoepsv=5e-5
 boysalg=jacobi
 localcc=off
 localcorrsymm=off
 locintrf=disk
 mact=
 maxact=off
 maxdim=100
 maxex=0
 maxmicroit=100
 mcscfiguess=hf
 mem=150gb
 mmprog=
 molden=on
 mpitasks=1
 mulmet=0
 mult=2
 nacto=0
 nactv=0
 naf_amp=1.d-2
 naf_cor=off
 naf_scf=off
 nafalg=albe
 naftyp=
 nchol=auto
 ndeps=1e-3
 nstate=1
 nsing=0
 nto=off
 ntrip=0
 occ=
 occri=off
 oniom=off
 oniom_eechg=off
 oniom_pcm=off
 oniom_qcorr=off
 optalg=
 optmaxit=50
 optetol=1e-6
 optex=0
 optgtol=1e-4
 optstol=1e-3
 orblocc=off
 orbloce=off
 orbloco=off
 orblocv=off
 orblocguess=cholesky
 osveps=1e-4
 ovirt=off
 ovltol=1e-7
 ovosnorb=80.0
 pcm=off
 popul=off
 pressure=100000
 pssp=off
 ptfreq=0.0
 ptthreads=4
 qro=off
 qscf=off
 qmmm=off
 redcost_exc=off
 redcost_tddft=off
 refdet=none
 rest=0
 rgrid=log3
 rism=off
 rohfcore=semicanonical
 rohftype=semicanonical
 scfalg=locfit1
 scf_conv=difficult
 scfdamp=0.0d0
 scfdamp_mode=off
 scfdamp_end=50
 scfdamp_dampstep=0.d0
 scfdamp_dtol=0.0d0
 scfdamp_maxfact=0.0d0
 scfdamp_minfact=0.0d0
 scfdiis=on
 scfdiis_dtol=0.0d0
 scfdiis_end=50
 scfdiis_start=2
 scfdiis_step=1
 scfdiis_watch=off
 scfdiis_wrange=10
 scfdiis_wlimit=5
 scfdiis_delmax=2
 scfdtol=7
 scfext=10
 scfguessdens=
 scfiguess=small
 scfloc=pm
 scflshift=0.20
 scflshift_end=8
 scflshift_dtol=0.0
 scflshift_gaptol=0.20
 scfmaxit=50
 scftype=uhf
 scftol=6
 scspe=1.d0
 scsph=1.d0
 scsps=1.2d0
 scsps_t=1.2d0
 scspt=0.33333333333333
 scspt_t=0.33333333333333
 scspv=1.d0
 spairtol=1e-5
 sqmprog=
 subminp=top
 symm=0
 talg=occ
 temp=298.15
 test=off
 theodore=off
 tlmo=0.999
 tpao=0.94
 tprint=off
 uncontract=off
 unit=angs
 usedisk=2
 verbosity=3
 wpairtol=0.100000000E-06
 
 Calculating integrals for small-basis SCF...

 ************************ 2022-11-05 21:51:14 *************************
 Executing integ...

 Allocation of 150.0 Gbytes of memory...
 
 
 Number of atoms:                  4
 Charge:                           0
 Number of electrons:             19
 Number of core electrons:         0
 Spin multiplicity:                2
 
                 Cartesian coordinates [bohr]      Atomic mass [AMU]  Z
   1  Au   -2.30612085    0.47697500    0.49595055     0.000000       0
   2  Au    2.32024996   -0.52338862   -0.47775359   196.966543      79
   3  Au    4.61293085   -1.52533101   -4.51278846     0.000000       0
   4  Au   -4.61293085    1.52533101    4.51278846     0.000000       0
 
 This molecule is an asymmetric top.
 
 Point group: C1  
 Computational point group: C1  
 
 Cartesian coordinates in standard orientation [bohr]
   1  Au    3.71340282   -1.70814779    0.01465601
   2  Au   -0.67616383    0.31265994    0.00143801
   3  Au   -5.05769583   -1.51591996   -0.01448420
   4  Au    8.10593131    0.09746840   -0.01455194
 
 Nuclear repulsion energy [au]:          0.000000000000
 
 
 Basis set information:
 
 Maximum angular momentum: i
 Maximum number of contracted Gaussians:   13
 Maximum number of primitive Gaussians:    13
 Spherical harmonic GTOs are used.
 
 
 Conventional basis set:
 
   1  Au def2-svp [ 7s 6p 5d 1f | 6s 3p 2d 1f ]
   2  Au def2-svp [ 7s 6p 5d 1f | 6s 3p 2d 1f ]
   3  Au def2-svp [ 7s 6p 5d 1f | 6s 3p 2d 1f ]
   4  Au def2-svp [ 7s 6p 5d 1f | 6s 3p 2d 1f ]
 
 Basis functions:
            1             2             3             4             5             6             7             8             9            10
    0    1Au1s         1Au2s         1Au3s         1Au4s         1Au5s         1Au6s         1Au1pz        1Au1py        1Au1px        1Au2pz    
    1    1Au2py        1Au2px        1Au3pz        1Au3py        1Au3px        1Au1d-2       1Au1d-1       1Au1d0        1Au1d+1       1Au1d+2   
    2    1Au2d-2       1Au2d-1       1Au2d0        1Au2d+1       1Au2d+2       1Au1f-3       1Au1f-2       1Au1f-1       1Au1f0        1Au1f+1   
    3    1Au1f+2       1Au1f+3       2Au1s         2Au2s         2Au3s         2Au4s         2Au5s         2Au6s         2Au1pz        2Au1py    
    4    2Au1px        2Au2pz        2Au2py        2Au2px        2Au3pz        2Au3py        2Au3px        2Au1d-2       2Au1d-1       2Au1d0    
    5    2Au1d+1       2Au1d+2       2Au2d-2       2Au2d-1       2Au2d0        2Au2d+1       2Au2d+2       2Au1f-3       2Au1f-2       2Au1f-1   
    6    2Au1f0        2Au1f+1       2Au1f+2       2Au1f+3       3Au1s         3Au2s         3Au3s         3Au4s         3Au5s         3Au6s     
    7    3Au1pz        3Au1py        3Au1px        3Au2pz        3Au2py        3Au2px        3Au3pz        3Au3py        3Au3px        3Au1d-2   
    8    3Au1d-1       3Au1d0        3Au1d+1       3Au1d+2       3Au2d-2       3Au2d-1       3Au2d0        3Au2d+1       3Au2d+2       3Au1f-3   
    9    3Au1f-2       3Au1f-1       3Au1f0        3Au1f+1       3Au1f+2       3Au1f+3       4Au1s         4Au2s         4Au3s         4Au4s     
   10    4Au5s         4Au6s         4Au1pz        4Au1py        4Au1px        4Au2pz        4Au2py        4Au2px        4Au3pz        4Au3py    
   11    4Au3px        4Au1d-2       4Au1d-1       4Au1d0        4Au1d+1       4Au1d+2       4Au2d-2       4Au2d-1       4Au2d0        4Au2d+1   
   12    4Au2d+2       4Au1f-3       4Au1f-2       4Au1f-1       4Au1f0        4Au1f+1       4Au1f+2       4Au1f+3   
 
 Maximum number of basis functions per shell:   10
 Total number of basis functions:    128
 
 
 Fitting basis set for the SCF calculation:
 
   1  Au def2-qzvpp-ri-jk [ 13s 12p 11d 9f 5g 3h 2i | 13s 11p 10d 8f 4g 3h 2i ]
   2  Au def2-qzvpp-ri-jk [ 13s 12p 11d 9f 5g 3h 2i | 13s 11p 10d 8f 4g 3h 2i ]
   3  Au def2-qzvpp-ri-jk [ 13s 12p 11d 9f 5g 3h 2i | 13s 11p 10d 8f 4g 3h 2i ]
   4  Au def2-qzvpp-ri-jk [ 13s 12p 11d 9f 5g 3h 2i | 13s 11p 10d 8f 4g 3h 2i ]
 
 Basis functions:
            1             2             3             4             5             6             7             8             9            10
    0    1Au1s         1Au2s         1Au3s         1Au4s         1Au5s         1Au6s         1Au7s         1Au8s         1Au9s         1Au10s    
    1    1Au11s        1Au12s        1Au13s        1Au1pz        1Au1py        1Au1px        1Au2pz        1Au2py        1Au2px        1Au3pz    
    2    1Au3py        1Au3px        1Au4pz        1Au4py        1Au4px        1Au5pz        1Au5py        1Au5px        1Au6pz        1Au6py    
    3    1Au6px        1Au7pz        1Au7py        1Au7px        1Au8pz        1Au8py        1Au8px        1Au9pz        1Au9py        1Au9px    
    4    1Au10pz       1Au10py       1Au10px       1Au11pz       1Au11py       1Au11px       1Au1d-2       1Au1d-1       1Au1d0        1Au1d+1   
    5    1Au1d+2       1Au2d-2       1Au2d-1       1Au2d0        1Au2d+1       1Au2d+2       1Au3d-2       1Au3d-1       1Au3d0        1Au3d+1   
    6    1Au3d+2       1Au4d-2       1Au4d-1       1Au4d0        1Au4d+1       1Au4d+2       1Au5d-2       1Au5d-1       1Au5d0        1Au5d+1   
    7    1Au5d+2       1Au6d-2       1Au6d-1       1Au6d0        1Au6d+1       1Au6d+2       1Au7d-2       1Au7d-1       1Au7d0        1Au7d+1   
    8    1Au7d+2       1Au8d-2       1Au8d-1       1Au8d0        1Au8d+1       1Au8d+2       1Au9d-2       1Au9d-1       1Au9d0        1Au9d+1   
    9    1Au9d+2       1Au10d-2      1Au10d-1      1Au10d0       1Au10d+1      1Au10d+2      1Au1f-3       1Au1f-2       1Au1f-1       1Au1f0    
   10    1Au1f+1       1Au1f+2       1Au1f+3       1Au2f-3       1Au2f-2       1Au2f-1       1Au2f0        1Au2f+1       1Au2f+2       1Au2f+3   
   11    1Au3f-3       1Au3f-2       1Au3f-1       1Au3f0        1Au3f+1       1Au3f+2       1Au3f+3       1Au4f-3       1Au4f-2       1Au4f-1   
   12    1Au4f0        1Au4f+1       1Au4f+2       1Au4f+3       1Au5f-3       1Au5f-2       1Au5f-1       1Au5f0        1Au5f+1       1Au5f+2   
   13    1Au5f+3       1Au6f-3       1Au6f-2       1Au6f-1       1Au6f0        1Au6f+1       1Au6f+2       1Au6f+3       1Au7f-3       1Au7f-2   
   14    1Au7f-1       1Au7f0        1Au7f+1       1Au7f+2       1Au7f+3       1Au8f-3       1Au8f-2       1Au8f-1       1Au8f0        1Au8f+1   
   15    1Au8f+2       1Au8f+3       1Au1g-4       1Au1g-3       1Au1g-2       1Au1g-1       1Au1g0        1Au1g+1       1Au1g+2       1Au1g+3   
   16    1Au1g+4       1Au2g-4       1Au2g-3       1Au2g-2       1Au2g-1       1Au2g0        1Au2g+1       1Au2g+2       1Au2g+3       1Au2g+4   
   17    1Au3g-4       1Au3g-3       1Au3g-2       1Au3g-1       1Au3g0        1Au3g+1       1Au3g+2       1Au3g+3       1Au3g+4       1Au4g-4   
   18    1Au4g-3       1Au4g-2       1Au4g-1       1Au4g0        1Au4g+1       1Au4g+2       1Au4g+3       1Au4g+4       1Au1h-5       1Au1h-4   
   19    1Au1h-3       1Au1h-2       1Au1h-1       1Au1h0        1Au1h+1       1Au1h+2       1Au1h+3       1Au1h+4       1Au1h+5       1Au2h-5   
   20    1Au2h-4       1Au2h-3       1Au2h-2       1Au2h-1       1Au2h0        1Au2h+1       1Au2h+2       1Au2h+3       1Au2h+4       1Au2h+5   
   21    1Au3h-5       1Au3h-4       1Au3h-3       1Au3h-2       1Au3h-1       1Au3h0        1Au3h+1       1Au3h+2       1Au3h+3       1Au3h+4   
   22    1Au3h+5       1Au1i-6       1Au1i-5       1Au1i-4       1Au1i-3       1Au1i-2       1Au1i-1       1Au1i0        1Au1i+1       1Au1i+2   
   23    1Au1i+3       1Au1i+4       1Au1i+5       1Au1i+6       1Au2i-6       1Au2i-5       1Au2i-4       1Au2i-3       1Au2i-2       1Au2i-1   
   24    1Au2i0        1Au2i+1       1Au2i+2       1Au2i+3       1Au2i+4       1Au2i+5       1Au2i+6       2Au1s         2Au2s         2Au3s     
   25    2Au4s         2Au5s         2Au6s         2Au7s         2Au8s         2Au9s         2Au10s        2Au11s        2Au12s        2Au13s    
   26    2Au1pz        2Au1py        2Au1px        2Au2pz        2Au2py        2Au2px        2Au3pz        2Au3py        2Au3px        2Au4pz    
   27    2Au4py        2Au4px        2Au5pz        2Au5py        2Au5px        2Au6pz        2Au6py        2Au6px        2Au7pz        2Au7py    
   28    2Au7px        2Au8pz        2Au8py        2Au8px        2Au9pz        2Au9py        2Au9px        2Au10pz       2Au10py       2Au10px   
   29    2Au11pz       2Au11py       2Au11px       2Au1d-2       2Au1d-1       2Au1d0        2Au1d+1       2Au1d+2       2Au2d-2       2Au2d-1   
   30    2Au2d0        2Au2d+1       2Au2d+2       2Au3d-2       2Au3d-1       2Au3d0        2Au3d+1       2Au3d+2       2Au4d-2       2Au4d-1   
   31    2Au4d0        2Au4d+1       2Au4d+2       2Au5d-2       2Au5d-1       2Au5d0        2Au5d+1       2Au5d+2       2Au6d-2       2Au6d-1   
   32    2Au6d0        2Au6d+1       2Au6d+2       2Au7d-2       2Au7d-1       2Au7d0        2Au7d+1       2Au7d+2       2Au8d-2       2Au8d-1   
   33    2Au8d0        2Au8d+1       2Au8d+2       2Au9d-2       2Au9d-1       2Au9d0        2Au9d+1       2Au9d+2       2Au10d-2      2Au10d-1  
   34    2Au10d0       2Au10d+1      2Au10d+2      2Au1f-3       2Au1f-2       2Au1f-1       2Au1f0        2Au1f+1       2Au1f+2       2Au1f+3   
   35    2Au2f-3       2Au2f-2       2Au2f-1       2Au2f0        2Au2f+1       2Au2f+2       2Au2f+3       2Au3f-3       2Au3f-2       2Au3f-1   
   36    2Au3f0        2Au3f+1       2Au3f+2       2Au3f+3       2Au4f-3       2Au4f-2       2Au4f-1       2Au4f0        2Au4f+1       2Au4f+2   
   37    2Au4f+3       2Au5f-3       2Au5f-2       2Au5f-1       2Au5f0        2Au5f+1       2Au5f+2       2Au5f+3       2Au6f-3       2Au6f-2   
   38    2Au6f-1       2Au6f0        2Au6f+1       2Au6f+2       2Au6f+3       2Au7f-3       2Au7f-2       2Au7f-1       2Au7f0        2Au7f+1   
   39    2Au7f+2       2Au7f+3       2Au8f-3       2Au8f-2       2Au8f-1       2Au8f0        2Au8f+1       2Au8f+2       2Au8f+3       2Au1g-4   
   40    2Au1g-3       2Au1g-2       2Au1g-1       2Au1g0        2Au1g+1       2Au1g+2       2Au1g+3       2Au1g+4       2Au2g-4       2Au2g-3   
   41    2Au2g-2       2Au2g-1       2Au2g0        2Au2g+1       2Au2g+2       2Au2g+3       2Au2g+4       2Au3g-4       2Au3g-3       2Au3g-2   
   42    2Au3g-1       2Au3g0        2Au3g+1       2Au3g+2       2Au3g+3       2Au3g+4       2Au4g-4       2Au4g-3       2Au4g-2       2Au4g-1   
   43    2Au4g0        2Au4g+1       2Au4g+2       2Au4g+3       2Au4g+4       2Au1h-5       2Au1h-4       2Au1h-3       2Au1h-2       2Au1h-1   
   44    2Au1h0        2Au1h+1       2Au1h+2       2Au1h+3       2Au1h+4       2Au1h+5       2Au2h-5       2Au2h-4       2Au2h-3       2Au2h-2   
   45    2Au2h-1       2Au2h0        2Au2h+1       2Au2h+2       2Au2h+3       2Au2h+4       2Au2h+5       2Au3h-5       2Au3h-4       2Au3h-3   
   46    2Au3h-2       2Au3h-1       2Au3h0        2Au3h+1       2Au3h+2       2Au3h+3       2Au3h+4       2Au3h+5       2Au1i-6       2Au1i-5   
   47    2Au1i-4       2Au1i-3       2Au1i-2       2Au1i-1       2Au1i0        2Au1i+1       2Au1i+2       2Au1i+3       2Au1i+4       2Au1i+5   
   48    2Au1i+6       2Au2i-6       2Au2i-5       2Au2i-4       2Au2i-3       2Au2i-2       2Au2i-1       2Au2i0        2Au2i+1       2Au2i+2   
   49    2Au2i+3       2Au2i+4       2Au2i+5       2Au2i+6       3Au1s         3Au2s         3Au3s         3Au4s         3Au5s         3Au6s     
   50    3Au7s         3Au8s         3Au9s         3Au10s        3Au11s        3Au12s        3Au13s        3Au1pz        3Au1py        3Au1px    
   51    3Au2pz        3Au2py        3Au2px        3Au3pz        3Au3py        3Au3px        3Au4pz        3Au4py        3Au4px        3Au5pz    
   52    3Au5py        3Au5px        3Au6pz        3Au6py        3Au6px        3Au7pz        3Au7py        3Au7px        3Au8pz        3Au8py    
   53    3Au8px        3Au9pz        3Au9py        3Au9px        3Au10pz       3Au10py       3Au10px       3Au11pz       3Au11py       3Au11px   
   54    3Au1d-2       3Au1d-1       3Au1d0        3Au1d+1       3Au1d+2       3Au2d-2       3Au2d-1       3Au2d0        3Au2d+1       3Au2d+2   
   55    3Au3d-2       3Au3d-1       3Au3d0        3Au3d+1       3Au3d+2       3Au4d-2       3Au4d-1       3Au4d0        3Au4d+1       3Au4d+2   
   56    3Au5d-2       3Au5d-1       3Au5d0        3Au5d+1       3Au5d+2       3Au6d-2       3Au6d-1       3Au6d0        3Au6d+1       3Au6d+2   
   57    3Au7d-2       3Au7d-1       3Au7d0        3Au7d+1       3Au7d+2       3Au8d-2       3Au8d-1       3Au8d0        3Au8d+1       3Au8d+2   
   58    3Au9d-2       3Au9d-1       3Au9d0        3Au9d+1       3Au9d+2       3Au10d-2      3Au10d-1      3Au10d0       3Au10d+1      3Au10d+2  
   59    3Au1f-3       3Au1f-2       3Au1f-1       3Au1f0        3Au1f+1       3Au1f+2       3Au1f+3       3Au2f-3       3Au2f-2       3Au2f-1   
   60    3Au2f0        3Au2f+1       3Au2f+2       3Au2f+3       3Au3f-3       3Au3f-2       3Au3f-1       3Au3f0        3Au3f+1       3Au3f+2   
   61    3Au3f+3       3Au4f-3       3Au4f-2       3Au4f-1       3Au4f0        3Au4f+1       3Au4f+2       3Au4f+3       3Au5f-3       3Au5f-2   
   62    3Au5f-1       3Au5f0        3Au5f+1       3Au5f+2       3Au5f+3       3Au6f-3       3Au6f-2       3Au6f-1       3Au6f0        3Au6f+1   
   63    3Au6f+2       3Au6f+3       3Au7f-3       3Au7f-2       3Au7f-1       3Au7f0        3Au7f+1       3Au7f+2       3Au7f+3       3Au8f-3   
   64    3Au8f-2       3Au8f-1       3Au8f0        3Au8f+1       3Au8f+2       3Au8f+3       3Au1g-4       3Au1g-3       3Au1g-2       3Au1g-1   
   65    3Au1g0        3Au1g+1       3Au1g+2       3Au1g+3       3Au1g+4       3Au2g-4       3Au2g-3       3Au2g-2       3Au2g-1       3Au2g0    
   66    3Au2g+1       3Au2g+2       3Au2g+3       3Au2g+4       3Au3g-4       3Au3g-3       3Au3g-2       3Au3g-1       3Au3g0        3Au3g+1   
   67    3Au3g+2       3Au3g+3       3Au3g+4       3Au4g-4       3Au4g-3       3Au4g-2       3Au4g-1       3Au4g0        3Au4g+1       3Au4g+2   
   68    3Au4g+3       3Au4g+4       3Au1h-5       3Au1h-4       3Au1h-3       3Au1h-2       3Au1h-1       3Au1h0        3Au1h+1       3Au1h+2   
   69    3Au1h+3       3Au1h+4       3Au1h+5       3Au2h-5       3Au2h-4       3Au2h-3       3Au2h-2       3Au2h-1       3Au2h0        3Au2h+1   
   70    3Au2h+2       3Au2h+3       3Au2h+4       3Au2h+5       3Au3h-5       3Au3h-4       3Au3h-3       3Au3h-2       3Au3h-1       3Au3h0    
   71    3Au3h+1       3Au3h+2       3Au3h+3       3Au3h+4       3Au3h+5       3Au1i-6       3Au1i-5       3Au1i-4       3Au1i-3       3Au1i-2   
   72    3Au1i-1       3Au1i0        3Au1i+1       3Au1i+2       3Au1i+3       3Au1i+4       3Au1i+5       3Au1i+6       3Au2i-6       3Au2i-5   
   73    3Au2i-4       3Au2i-3       3Au2i-2       3Au2i-1       3Au2i0        3Au2i+1       3Au2i+2       3Au2i+3       3Au2i+4       3Au2i+5   
   74    3Au2i+6       4Au1s         4Au2s         4Au3s         4Au4s         4Au5s         4Au6s         4Au7s         4Au8s         4Au9s     
   75    4Au10s        4Au11s        4Au12s        4Au13s        4Au1pz        4Au1py        4Au1px        4Au2pz        4Au2py        4Au2px    
   76    4Au3pz        4Au3py        4Au3px        4Au4pz        4Au4py        4Au4px        4Au5pz        4Au5py        4Au5px        4Au6pz    
   77    4Au6py        4Au6px        4Au7pz        4Au7py        4Au7px        4Au8pz        4Au8py        4Au8px        4Au9pz        4Au9py    
   78    4Au9px        4Au10pz       4Au10py       4Au10px       4Au11pz       4Au11py       4Au11px       4Au1d-2       4Au1d-1       4Au1d0    
   79    4Au1d+1       4Au1d+2       4Au2d-2       4Au2d-1       4Au2d0        4Au2d+1       4Au2d+2       4Au3d-2       4Au3d-1       4Au3d0    
   80    4Au3d+1       4Au3d+2       4Au4d-2       4Au4d-1       4Au4d0        4Au4d+1       4Au4d+2       4Au5d-2       4Au5d-1       4Au5d0    
   81    4Au5d+1       4Au5d+2       4Au6d-2       4Au6d-1       4Au6d0        4Au6d+1       4Au6d+2       4Au7d-2       4Au7d-1       4Au7d0    
   82    4Au7d+1       4Au7d+2       4Au8d-2       4Au8d-1       4Au8d0        4Au8d+1       4Au8d+2       4Au9d-2       4Au9d-1       4Au9d0    
   83    4Au9d+1       4Au9d+2       4Au10d-2      4Au10d-1      4Au10d0       4Au10d+1      4Au10d+2      4Au1f-3       4Au1f-2       4Au1f-1   
   84    4Au1f0        4Au1f+1       4Au1f+2       4Au1f+3       4Au2f-3       4Au2f-2       4Au2f-1       4Au2f0        4Au2f+1       4Au2f+2   
   85    4Au2f+3       4Au3f-3       4Au3f-2       4Au3f-1       4Au3f0        4Au3f+1       4Au3f+2       4Au3f+3       4Au4f-3       4Au4f-2   
   86    4Au4f-1       4Au4f0        4Au4f+1       4Au4f+2       4Au4f+3       4Au5f-3       4Au5f-2       4Au5f-1       4Au5f0        4Au5f+1   
   87    4Au5f+2       4Au5f+3       4Au6f-3       4Au6f-2       4Au6f-1       4Au6f0        4Au6f+1       4Au6f+2       4Au6f+3       4Au7f-3   
   88    4Au7f-2       4Au7f-1       4Au7f0        4Au7f+1       4Au7f+2       4Au7f+3       4Au8f-3       4Au8f-2       4Au8f-1       4Au8f0    
   89    4Au8f+1       4Au8f+2       4Au8f+3       4Au1g-4       4Au1g-3       4Au1g-2       4Au1g-1       4Au1g0        4Au1g+1       4Au1g+2   
   90    4Au1g+3       4Au1g+4       4Au2g-4       4Au2g-3       4Au2g-2       4Au2g-1       4Au2g0        4Au2g+1       4Au2g+2       4Au2g+3   
   91    4Au2g+4       4Au3g-4       4Au3g-3       4Au3g-2       4Au3g-1       4Au3g0        4Au3g+1       4Au3g+2       4Au3g+3       4Au3g+4   
   92    4Au4g-4       4Au4g-3       4Au4g-2       4Au4g-1       4Au4g0        4Au4g+1       4Au4g+2       4Au4g+3       4Au4g+4       4Au1h-5   
   93    4Au1h-4       4Au1h-3       4Au1h-2       4Au1h-1       4Au1h0        4Au1h+1       4Au1h+2       4Au1h+3       4Au1h+4       4Au1h+5   
   94    4Au2h-5       4Au2h-4       4Au2h-3       4Au2h-2       4Au2h-1       4Au2h0        4Au2h+1       4Au2h+2       4Au2h+3       4Au2h+4   
   95    4Au2h+5       4Au3h-5       4Au3h-4       4Au3h-3       4Au3h-2       4Au3h-1       4Au3h0        4Au3h+1       4Au3h+2       4Au3h+3   
   96    4Au3h+4       4Au3h+5       4Au1i-6       4Au1i-5       4Au1i-4       4Au1i-3       4Au1i-2       4Au1i-1       4Au1i0        4Au1i+1   
   97    4Au1i+2       4Au1i+3       4Au1i+4       4Au1i+5       4Au1i+6       4Au2i-6       4Au2i-5       4Au2i-4       4Au2i-3       4Au2i-2   
   98    4Au2i-1       4Au2i0        4Au2i+1       4Au2i+2       4Au2i+3       4Au2i+4       4Au2i+5       4Au2i+6   
 
 Maximum number of basis functions per shell:   56
 Total number of basis functions:    988
 
 
 Effective core potentials:
 
   2  Au mcdhf-ecp-60        
 
 Initializing the SAD routines for the initial guess...
 Checking the files required for the initial guess...
 Atomic density files have been found for the atoms with the following serial numbers:
  2
 Atomic density files have not been found for the atoms with the following serial numbers:
  
 CPU time [min]:     0.080                   Wall time [min]:     0.009
 
 Character table for point group C1:
 
          E  
    A     1
 
 Number of basis functions per irrep:
    A     128
 
 
 Calculation of overlap integrals...
 CPU time [min]:     0.084                   Wall time [min]:     0.009
 
 Calculation of the square root of the overlap matrix...
 Minimum eigenvalue of the overlap matrix: 0.290265E-02
 CPU time [min]:     0.110                   Wall time [min]:     0.010
 
 Calculation of kinetic energy integrals...
 CPU time [min]:     0.113                   Wall time [min]:     0.011
 Calculation of dipole moment integrals...
 CPU time [min]:     0.114                   Wall time [min]:     0.011
 Calculation of nuclear attraction integrals...
 CPU time [min]:     0.116                   Wall time [min]:     0.011
 Calculation of core potential integrals...
 CPU time [min]:     0.220                   Wall time [min]:     0.058
 
 Calculation of prescreening integrals...
 CPU time [min]:     0.312                   Wall time [min]:     0.062
 
 Calculation of two-center Coulomb integrals...
   1% done.
  12% done.
  25% done.
  36% done.
  48% done.
  63% done.
  82% done.
  95% done.
 100% done.
 CPU time [min]:     0.323                   Wall time [min]:     0.063
 
 Cholesky decomposition of the two-center matrix...
 Reciprocal of the condition number:  0.195037E-05
 CPU time [min]:     0.441                   Wall time [min]:     0.069
 
 
 Running small-basis SCF...

 ************************ 2022-11-05 21:51:19 *************************
 Executing scf...

 @scfsetup: integrals calculated directly
            mrcc/integ direct run
 @scfsetup: calculating on full matrices
            not using symmetry adapted basis
 @scfsetup: diis switched on
 @scfsetup: number of steps to extrapolate from  10
 @scfsetup: tolerance in energy deviation    0.100000E-05
            tolerance in density deviation    0.100000E-06
 @scfsetup: maximum number of iterations:  50
 @scfsetup: unrestricted hf calc
 @scfsetup: starting scf from superposition of atomic densities
 @scfsetup: occupation set:
            from initial orbitals
 @scfsetup: Parameter-set for SCF acceleration: difficult
 @scfsetup: diis runs from iteration:   2
 @scfsetup: diis runs to iteration:  50
 @scfsetup: diis runs in every iteration
 @scfsetup: diiswatch is disabled                   
 @scfsetup: diis dtol criteria to switch on:      0.0000E+00
           (or the iteration number below is reached)
 @scfsetup: damping is turned off.
 @scfsetup: dynamic level shifting
            tolarance in HOMO-LUMO gap:  0.200
            tolarance in density deviation:     0.0000E+00
            iteration step criteria to turn level shifting off: 8
 Allocation of 150.0 Gbytes of memory...
 ======================================================================
 ITERATION STEP   1
 CPU time [min]:     0.016                   Wall time [min]:     0.006
 

 SCF control                  : initial
 Damping factor/level shift   : 0.000/0.200
 DIIS [start/end/frequency]   :   2 / 50 /  1

 Constructing alpha Fock-matrix...
 
 Pipek-Mezey localization...
 Step  Convergence
   1   0.030327291822
   2   0.000000197666
 CPU time [min]:     0.033                   Wall time [min]:     0.007
 
 Constructing local fitting domains...
 Maximum number of atoms in fitting domains:    4
 Average number of atoms in fitting domains:    4.0
 
 First step of Coulomb + first step of exchange...
 Exchange contribution is evaluated for MOs 1 to 10.
   1% done.
  14% done.
  25% done.
  38% done.
  49% done.
  64% done.
  75% done.
  89% done.
 100% done.
 CPU time [min]:     0.113                   Wall time [min]:     0.010
 
 Fitting and assembly step of exchange...
 CPU time [min]:     0.117                   Wall time [min]:     0.010
 
 Constructing beta Fock-matrix...
 
 Pipek-Mezey localization...
 Step  Convergence
   1   0.000000000000
 CPU time [min]:     0.128                   Wall time [min]:     0.011
 
 Constructing local fitting domains...
 Maximum number of atoms in fitting domains:    4
 Average number of atoms in fitting domains:    4.0
 
 Second step of Coulomb + first step of exchange...
 Exchange contribution is evaluated for MOs 1 to 9.
   1% done.
  14% done.
  25% done.
  38% done.
  49% done.
  64% done.
  75% done.
  89% done.
 100% done.
 CPU time [min]:     0.204                   Wall time [min]:     0.014
 
 Fitting and assembly step of exchange...
 CPU time [min]:     0.205                   Wall time [min]:     0.014
 
 Gradient norm:      5.5704E-01
 RMS of alpha [F,P] :                                  0.00487775915544
 RMS of beta  [F,P] :                                  0.00452234447326
 RMS of alpha difference density:                      0.00737591153900
 RMS of beta  difference density:                      0.00615587551400
 Gap [au]:  0.24385153
 ALPHA OCC:  10
 BETA  OCC:   9
 
 ***HARTREE-FOCK ENERGY IN STEP   1 IS       -134.4609232896259527 [AU]
 ======================================================================
 ITERATION STEP   2
 CPU time [min]:     0.219                   Wall time [min]:     0.015
 

 SCF control                  : diis
 Damping factor/level shift   : 0.000/0.000
 DIIS [start/end/frequency]   :   2 / 50 /  1

 Constructing alpha Fock-matrix...
 
 Pipek-Mezey localization...
 Step  Convergence
   1   0.001734131626
   2   0.000000135727
 CPU time [min]:     0.235                   Wall time [min]:     0.016
 
 Constructing local fitting domains...
 Maximum number of atoms in fitting domains:    4
 Average number of atoms in fitting domains:    4.0
 
 First step of Coulomb + first step of exchange...
 Exchange contribution is evaluated for MOs 1 to 10.
   1% done.
  14% done.
  25% done.
  38% done.
  49% done.
  64% done.
  75% done.
  89% done.
 100% done.
 CPU time [min]:     0.296                   Wall time [min]:     0.018
 
 Fitting and assembly step of exchange...
 CPU time [min]:     0.297                   Wall time [min]:     0.018
 
 Constructing beta Fock-matrix...
 
 Pipek-Mezey localization...
 Step  Convergence
   1   0.000000000000
 CPU time [min]:     0.308                   Wall time [min]:     0.019
 
 Constructing local fitting domains...
 Maximum number of atoms in fitting domains:    4
 Average number of atoms in fitting domains:    4.0
 
 Second step of Coulomb + first step of exchange...
 Exchange contribution is evaluated for MOs 1 to 9.
   1% done.
  14% done.
  25% done.
  38% done.
  49% done.
  64% done.
  75% done.
  89% done.
 100% done.
 CPU time [min]:     0.368                   Wall time [min]:     0.021
 
 Fitting and assembly step of exchange...
 CPU time [min]:     0.370                   Wall time [min]:     0.021
 
 Gradient norm:      4.3496E-01
 DIIS is running in this iteration step.
 RMS of alpha [F,P] :                                  0.00343315474787
 RMS of beta  [F,P] :                                  0.00337843023679
 RMS of alpha difference density:                      0.00533717045958
 RMS of beta  difference density:                      0.00321655885273
 Gap [au]:  0.35612490
 ALPHA OCC:  10
 BETA  OCC:   9
 
 ***HARTREE-FOCK ENERGY IN STEP   2 IS       -134.7093135481849231 [AU]
 
 Step comparison  Energy Drift [au]  DIIS error drift  Gradient drift
        1            2.4839E-01         1.8350E-03       1.2208E-01
        2            1.3471E+02         1.0000E-07       1.2208E-01
 ======================================================================
 ITERATION STEP   3
 CPU time [min]:     0.379                   Wall time [min]:     0.022
 

 SCF control                  : diis
 Damping factor/level shift   : 0.000/0.000
 DIIS [start/end/frequency]   :   2 / 50 /  1

 Constructing alpha Fock-matrix...
 
 Pipek-Mezey localization...
 Step  Convergence
   1   0.010451504576
   2   0.009979184478
   3   0.000000714298
 CPU time [min]:     0.395                   Wall time [min]:     0.023
 
 Constructing local fitting domains...
 Local fitting domains are unchanged.
 
 First step of Coulomb + first step of exchange...
 Exchange contribution is evaluated for MOs 1 to 10.
   1% done.
  14% done.
  25% done.
  38% done.
  49% done.
  64% done.
  75% done.
  89% done.
 100% done.
 CPU time [min]:     0.455                   Wall time [min]:     0.025
 
 Fitting and assembly step of exchange...
 CPU time [min]:     0.457                   Wall time [min]:     0.025
 
 Constructing beta Fock-matrix...
 
 Pipek-Mezey localization...
 Step  Convergence
   1   0.000000000000
 CPU time [min]:     0.487                   Wall time [min]:     0.026
 
 Constructing local fitting domains...
 Local fitting domains are unchanged.
 
 Second step of Coulomb + first step of exchange...
 Exchange contribution is evaluated for MOs 1 to 9.
   1% done.
  14% done.
  25% done.
  38% done.
  49% done.
  64% done.
  75% done.
  89% done.
 100% done.
 CPU time [min]:     0.548                   Wall time [min]:     0.029
 
 Fitting and assembly step of exchange...
 CPU time [min]:     0.549                   Wall time [min]:     0.029
 
 Gradient norm:      1.5218E-01
 DIIS is running in this iteration step.
 RMS of alpha [F,P] :                                  0.00163646834473
 RMS of beta  [F,P] :                                  0.00148065426957
 RMS of alpha difference density:                      0.00153215104895
 RMS of beta  difference density:                      0.00108256101411
 Gap [au]:  0.33022560
 ALPHA OCC:  10
 BETA  OCC:   9
 
 ***HARTREE-FOCK ENERGY IN STEP   3 IS       -134.7559891789256312 [AU]
 
 Step comparison  Energy Drift [au]  DIIS error drift  Gradient drift
        2            4.6676E-02         2.6098E-03       2.8278E-01
 ======================================================================
 ITERATION STEP   4
 CPU time [min]:     0.559                   Wall time [min]:     0.030
 

 SCF control                  : diis
 Damping factor/level shift   : 0.000/0.000
 DIIS [start/end/frequency]   :   2 / 50 /  1

 Constructing alpha Fock-matrix...
 
 Pipek-Mezey localization...
 Step  Convergence
   1   0.019974427376
   2   0.019909943013
   3   0.000000392512
 CPU time [min]:     0.575                   Wall time [min]:     0.030
 
 Constructing local fitting domains...
 Local fitting domains are unchanged.
 
 First step of Coulomb + first step of exchange...
 Exchange contribution is evaluated for MOs 1 to 10.
   1% done.
  14% done.
  25% done.
  38% done.
  49% done.
  64% done.
  75% done.
  89% done.
 100% done.
 CPU time [min]:     0.636                   Wall time [min]:     0.033
 
 Fitting and assembly step of exchange...
 CPU time [min]:     0.638                   Wall time [min]:     0.033
 
 Constructing beta Fock-matrix...
 
 Pipek-Mezey localization...
 Step  Convergence
   1   0.000000000000
 CPU time [min]:     0.649                   Wall time [min]:     0.034
 
 Constructing local fitting domains...
 Local fitting domains are unchanged.
 
 Second step of Coulomb + first step of exchange...
 Exchange contribution is evaluated for MOs 1 to 9.
   1% done.
  14% done.
  25% done.
  38% done.
  49% done.
  64% done.
  75% done.
  89% done.
 100% done.
 CPU time [min]:     0.710                   Wall time [min]:     0.036
 
 Fitting and assembly step of exchange...
 CPU time [min]:     0.711                   Wall time [min]:     0.036
 
 Gradient norm:      1.3920E-02
 DIIS is running in this iteration step.
 RMS of alpha [F,P] :                                  0.00009811244111
 RMS of beta  [F,P] :                                  0.00009455132084
 RMS of alpha difference density:                      0.00045443027145
 RMS of beta  difference density:                      0.00011047528803
 Gap [au]:  0.33550485
 ALPHA OCC:  10
 BETA  OCC:   9
 
 ***HARTREE-FOCK ENERGY IN STEP   4 IS       -134.7727208278609510 [AU]
 
 Step comparison  Energy Drift [au]  DIIS error drift  Gradient drift
        3            1.6732E-02         2.0706E-03       1.3826E-01
 ======================================================================
 ITERATION STEP   5
 CPU time [min]:     0.720                   Wall time [min]:     0.037
 

 SCF control                  : diis
 Damping factor/level shift   : 0.000/0.000
 DIIS [start/end/frequency]   :   2 / 50 /  1

 Constructing alpha Fock-matrix...
 
 Pipek-Mezey localization...
 Step  Convergence
   1   2.727970523560
   2   1.906232066646
   3   0.903991250195
   4   0.517514299858
   5   0.025103296079
   6   0.001508265795
   7   0.000160937280
   8   0.000017135770
   9   0.000003039025
  10   0.000000220553
  11   0.000000050375
  12   0.000000002705
  13   0.000000000855
  14   0.000000000046
  15   0.000000000025
  16   0.000000000001
 CPU time [min]:     0.737                   Wall time [min]:     0.037
 
 Constructing local fitting domains...
 Local fitting domains are unchanged.
 
 First step of Coulomb + first step of exchange...
 Exchange contribution is evaluated for MOs 1 to 10.
   1% done.
  14% done.
  25% done.
  38% done.
  49% done.
  64% done.
  75% done.
  89% done.
 100% done.
 CPU time [min]:     0.798                   Wall time [min]:     0.040
 
 Fitting and assembly step of exchange...
 CPU time [min]:     0.799                   Wall time [min]:     0.040
 
 Constructing beta Fock-matrix...
 
 Pipek-Mezey localization...
 Step  Convergence
   1   2.757367323528
   2   1.043385115644
   3   0.209399193673
   4   0.004309464304
   5   0.001655589008
   6   0.001732080745
   7   0.001257756615
   8   0.000184801930
   9   0.000027790974
  10   0.000011521409
  11   0.000002915409
  12   0.000001084293
  13   0.000000274760
  14   0.000000096041
  15   0.000000020515
  16   0.000000005756
  17   0.000000001851
  18   0.000000000543
  19   0.000000000140
  20   0.000000000039
  21   0.000000000010
  22   0.000000000003
  23   0.000000000001
 CPU time [min]:     0.811                   Wall time [min]:     0.041
 
 Constructing local fitting domains...
 Local fitting domains are unchanged.
 
 Second step of Coulomb + first step of exchange...
 Exchange contribution is evaluated for MOs 1 to 9.
   1% done.
  14% done.
  25% done.
  38% done.
  49% done.
  64% done.
  75% done.
  89% done.
 100% done.
 CPU time [min]:     0.871                   Wall time [min]:     0.043
 
 Fitting and assembly step of exchange...
 CPU time [min]:     0.873                   Wall time [min]:     0.043
 
 Gradient norm:      3.1600E-03
 DIIS is running in this iteration step.
 RMS of alpha [F,P] :                                  0.00002482058413
 RMS of beta  [F,P] :                                  0.00000574426725
 RMS of alpha difference density:                      0.00015280859494
 RMS of beta  difference density:                      0.00002679774824
 Gap [au]:  0.33617526
 ALPHA OCC:  10
 BETA  OCC:   9
 
 ***HARTREE-FOCK ENERGY IN STEP   5 IS       -134.7728675930243298 [AU]
 
 Step comparison  Energy Drift [au]  DIIS error drift  Gradient drift
        4            1.4677E-04         1.1078E-04       1.0760E-02
 ======================================================================
 ITERATION STEP   6
 CPU time [min]:     0.882                   Wall time [min]:     0.044
 

 SCF control                  : diis
 Damping factor/level shift   : 0.000/0.000
 DIIS [start/end/frequency]   :   2 / 50 /  1

 Constructing alpha Fock-matrix...
 
 Pipek-Mezey localization...
 Step  Convergence
   1   0.084817601333
   2   1.627660402970
   3   0.878642131730
   4   0.536816524603
   5   0.520394039723
   6   0.026224468756
   7   0.001975406603
   8   0.000379029905
   9   0.000029351552
  10   0.000006136486
  11   0.000000426124
  12   0.000000100515
  13   0.000000007032
  14   0.000000001743
  15   0.000000000141
  16   0.000000000033
  17   0.000000000003
  18   0.000000000001
 CPU time [min]:     0.898                   Wall time [min]:     0.044
 
 Constructing local fitting domains...
 Local fitting domains are unchanged.
 
 First step of Coulomb + first step of exchange...
 Exchange contribution is evaluated for MOs 1 to 10.
   1% done.
  14% done.
  25% done.
  38% done.
  49% done.
  64% done.
  75% done.
  89% done.
 100% done.
 CPU time [min]:     0.959                   Wall time [min]:     0.047
 
 Fitting and assembly step of exchange...
 CPU time [min]:     0.961                   Wall time [min]:     0.047
 
 Constructing beta Fock-matrix...
 
 Pipek-Mezey localization...
 Step  Convergence
   1   0.101023160015
   2   0.117766646640
   3   0.008263206896
   4   0.000224187773
   5   0.000082744809
   6   0.000004148242
   7   0.000001870505
   8   0.000000272478
   9   0.000000108859
  10   0.000000023745
  11   0.000000008528
  12   0.000000001805
  13   0.000000000596
  14   0.000000000144
  15   0.000000000042
  16   0.000000000013
  17   0.000000000003
  18   0.000000000001
 CPU time [min]:     0.973                   Wall time [min]:     0.048
 
 Constructing local fitting domains...
 Local fitting domains are unchanged.
 
 Second step of Coulomb + first step of exchange...
 Exchange contribution is evaluated for MOs 1 to 9.
   1% done.
  14% done.
  25% done.
  38% done.
  49% done.
  64% done.
  75% done.
  89% done.
 100% done.
 CPU time [min]:     1.033                   Wall time [min]:     0.050
 
 Fitting and assembly step of exchange...
 CPU time [min]:     1.035                   Wall time [min]:     0.050
 
 Gradient norm:      6.2218E-04
 DIIS is running in this iteration step.
 RMS of alpha [F,P] :                                  0.00000637659848
 RMS of beta  [F,P] :                                  0.00000414419058
 RMS of alpha difference density:                      0.00002449760546
 RMS of beta  difference density:                      0.00000450018664
 Gap [au]:  0.33634481
 ALPHA OCC:  10
 BETA  OCC:   9
 
 ***HARTREE-FOCK ENERGY IN STEP   6 IS       -134.7728800373421905 [AU]
 
 Step comparison  Energy Drift [au]  DIIS error drift  Gradient drift
        5            1.2444E-05         1.7872E-05       2.5378E-03
 ======================================================================
 ITERATION STEP   7
 CPU time [min]:     1.044                   Wall time [min]:     0.051
 

 SCF control                  : diis
 Damping factor/level shift   : 0.000/0.000
 DIIS [start/end/frequency]   :   2 / 50 /  1

 Constructing alpha Fock-matrix...
 
 Pipek-Mezey localization...
 Step  Convergence
   1   0.113346867531
   2   1.439053865897
   3   0.838066910879
   4   0.133882258331
   5   0.007117634889
   6   0.000388488384
   7   0.000046033620
   8   0.000003074863
   9   0.000000642016
  10   0.000000033772
  11   0.000000011695
  12   0.000000000538
  13   0.000000000229
  14   0.000000000009
  15   0.000000000005
  16   0.000000000000
 CPU time [min]:     1.061                   Wall time [min]:     0.052
 
 Constructing local fitting domains...
 Local fitting domains are unchanged.
 
 First step of Coulomb + first step of exchange...
 Exchange contribution is evaluated for MOs 1 to 10.
   1% done.
  14% done.
  25% done.
  38% done.
  49% done.
  64% done.
  75% done.
  89% done.
 100% done.
 CPU time [min]:     1.122                   Wall time [min]:     0.054
 
 Fitting and assembly step of exchange...
 CPU time [min]:     1.123                   Wall time [min]:     0.054
 
 Constructing beta Fock-matrix...
 
 Pipek-Mezey localization...
 Step  Convergence
   1   0.113528656190
   2   0.133013701332
   3   0.011506755655
   4   0.001282633050
   5   0.012166161834
   6   0.007679476069
   7   0.000385196370
   8   0.000039216195
   9   0.000017034740
  10   0.000003779109
  11   0.000001397798
  12   0.000000364508
  13   0.000000112937
  14   0.000000034830
  15   0.000000009619
  16   0.000000002348
  17   0.000000000752
  18   0.000000000205
  19   0.000000000060
  20   0.000000000019
  21   0.000000000005
  22   0.000000000001
  23   0.000000000000
 CPU time [min]:     1.135                   Wall time [min]:     0.055
 
 Constructing local fitting domains...
 Local fitting domains are unchanged.
 
 Second step of Coulomb + first step of exchange...
 Exchange contribution is evaluated for MOs 1 to 9.
   1% done.
  14% done.
  25% done.
  38% done.
  49% done.
  64% done.
  75% done.
  89% done.
 100% done.
 CPU time [min]:     1.195                   Wall time [min]:     0.057
 
 Fitting and assembly step of exchange...
 CPU time [min]:     1.197                   Wall time [min]:     0.057
 
 Gradient norm:      9.4019E-05
 DIIS is running in this iteration step.
 RMS of alpha [F,P] :                                  0.00000121918265
 RMS of beta  [F,P] :                                  0.00000073714947
 RMS of alpha difference density:                      0.00000446847183
 RMS of beta  difference density:                      0.00000086215651
 Gap [au]:  0.33639848
 ALPHA OCC:  10
 BETA  OCC:   9
 
 ***HARTREE-FOCK ENERGY IN STEP   7 IS       -134.7728804921933374 [AU]
 
 Step comparison  Energy Drift [au]  DIIS error drift  Gradient drift
        6            4.5485E-07         6.1802E-06       5.2816E-04
 ======================================================================
 ITERATION STEP   8
 CPU time [min]:     1.206                   Wall time [min]:     0.058
 

 SCF control                  : diis
 Damping factor/level shift   : 0.000/0.000
 DIIS [start/end/frequency]   :   2 / 50 /  1

 Constructing alpha Fock-matrix...
 
 Pipek-Mezey localization...
 Step  Convergence
   1   0.108311608930
   2   0.247598497649
   3   0.267022256710
   4   0.071793854526
   5   0.001166889507
   6   0.000109787560
   7   0.000009129339
   8   0.000001146348
   9   0.000000165686
  10   0.000000017327
  11   0.000000003595
  12   0.000000000318
  13   0.000000000087
  14   0.000000000008
  15   0.000000000002
  16   0.000000000000
 CPU time [min]:     1.223                   Wall time [min]:     0.059
 
 Constructing local fitting domains...
 Local fitting domains are unchanged.
 
 First step of Coulomb + first step of exchange...
 Exchange contribution is evaluated for MOs 1 to 10.
   1% done.
  14% done.
  25% done.
  38% done.
  49% done.
  64% done.
  75% done.
  89% done.
 100% done.
 CPU time [min]:     1.284                   Wall time [min]:     0.061
 
 Fitting and assembly step of exchange...
 CPU time [min]:     1.285                   Wall time [min]:     0.061
 
 Constructing beta Fock-matrix...
 
 Pipek-Mezey localization...
 Step  Convergence
   1   0.110353530727
   2   0.120645707131
   3   0.031261047448
   4   0.023292874466
   5   0.000388062308
   6   0.000060589118
   7   0.000003081877
   8   0.000000795126
   9   0.000000205650
  10   0.000000051268
  11   0.000000013845
  12   0.000000003916
  13   0.000000001141
  14   0.000000000325
  15   0.000000000085
  16   0.000000000024
  17   0.000000000007
  18   0.000000000002
  19   0.000000000000
 CPU time [min]:     1.297                   Wall time [min]:     0.062
 
 Constructing local fitting domains...
 Local fitting domains are unchanged.
 
 Second step of Coulomb + first step of exchange...
 Exchange contribution is evaluated for MOs 1 to 9.
   1% done.
  14% done.
  25% done.
  38% done.
  49% done.
  64% done.
  75% done.
  89% done.
 100% done.
 CPU time [min]:     1.358                   Wall time [min]:     0.064
 
 Fitting and assembly step of exchange...
 CPU time [min]:     1.360                   Wall time [min]:     0.064
 
 Gradient norm:      4.2374E-05
 DIIS is running in this iteration step.
 RMS of alpha [F,P] :                                  0.00000021332339
 RMS of beta  [F,P] :                                  0.00000030942329
 RMS of alpha difference density:                      0.00000219694037
 RMS of beta  difference density:                      0.00000077147170
 Gap [au]:  0.33639240
 ALPHA OCC:  10
 BETA  OCC:   9
 
 ***HARTREE-FOCK ENERGY IN STEP   8 IS       -134.7728805093680364 [AU]
 
 Step comparison  Energy Drift [au]  DIIS error drift  Gradient drift
        7            1.7175E-08         1.0489E-06       5.1645E-05
 ======================================================================
 ITERATION STEP   9
 CPU time [min]:     1.369                   Wall time [min]:     0.065
 

 SCF control                  : diis
 Damping factor/level shift   : 0.000/0.000
 DIIS [start/end/frequency]   :   2 / 50 /  1

 Constructing alpha Fock-matrix...
 
 Pipek-Mezey localization...
 Step  Convergence
   1   0.099098039699
   2   0.315429378139
   3   0.176513006220
   4   0.019168293164
   5   0.000387585510
   6   0.000154418249
   7   0.000008223875
   8   0.000002706948
   9   0.000000245612
  10   0.000000058169
  11   0.000000007890
  12   0.000000001457
  13   0.000000000261
  14   0.000000000041
  15   0.000000000009
  16   0.000000000001
  17   0.000000000000
 CPU time [min]:     1.386                   Wall time [min]:     0.066
 
 Constructing local fitting domains...
 Local fitting domains are unchanged.
 
 First step of Coulomb + first step of exchange...
 Exchange contribution is evaluated for MOs 1 to 10.
   1% done.
  14% done.
  25% done.
  38% done.
  49% done.
  64% done.
  75% done.
  89% done.
 100% done.
 CPU time [min]:     1.447                   Wall time [min]:     0.068
 
 Fitting and assembly step of exchange...
 CPU time [min]:     1.448                   Wall time [min]:     0.068
 
 Constructing beta Fock-matrix...
 
 Pipek-Mezey localization...
 Step  Convergence
   1   0.110897672683
   2   0.124808997172
   3   0.007139839678
   4   0.000559978199
   5   0.000248342171
   6   0.000056583997
   7   0.000017325486
   8   0.000004584244
   9   0.000001416805
  10   0.000000362607
  11   0.000000100275
  12   0.000000029202
  13   0.000000008018
  14   0.000000002212
  15   0.000000000694
  16   0.000000000180
  17   0.000000000049
  18   0.000000000012
  19   0.000000000040
  20   0.000000000043
  21   0.000000000006
  22   0.000000000000
 CPU time [min]:     1.460                   Wall time [min]:     0.069
 
 Constructing local fitting domains...
 Local fitting domains are unchanged.
 
 Second step of Coulomb + first step of exchange...
 Exchange contribution is evaluated for MOs 1 to 9.
   1% done.
  14% done.
  25% done.
  38% done.
  49% done.
  64% done.
  75% done.
  89% done.
 100% done.
 CPU time [min]:     1.521                   Wall time [min]:     0.071
 
 Fitting and assembly step of exchange...
 CPU time [min]:     1.522                   Wall time [min]:     0.071
 
 Gradient norm:      6.0573E-06
 DIIS is running in this iteration step.
 RMS of alpha [F,P] :                                  0.00000004275732
 RMS of beta  [F,P] :                                  0.00000005227724
 RMS of alpha difference density:                      0.00000022976227
 RMS of beta  difference density:                      0.00000016678169
 Gap [au]:  0.33639086
 ALPHA OCC:  10
 BETA  OCC:   9
 
 ***HARTREE-FOCK ENERGY IN STEP   9 IS       -134.7728805116675801 [AU]
 
 Step comparison  Energy Drift [au]  DIIS error drift  Gradient drift
        8            2.2995E-09         3.0830E-07       3.6317E-05
 ======================================================================
 ITERATION STEP  10
 CPU time [min]:     1.532                   Wall time [min]:     0.072
 

 SCF control                  : diis
 Damping factor/level shift   : 0.000/0.000
 DIIS [start/end/frequency]   :   2 / 50 /  1

 Constructing alpha Fock-matrix...
 
 Pipek-Mezey localization...
 Step  Convergence
   1   0.117482925145
   2   0.861127416983
   3   0.518523294871
   4   0.022651346890
   5   0.000980334188
   6   0.000170557046
   7   0.000011796841
   8   0.000002637626
   9   0.000000227068
  10   0.000000046395
  11   0.000000005383
  12   0.000000000934
  13   0.000000000124
  14   0.000000000017
  15   0.000000000003
  16   0.000000000000
 CPU time [min]:     1.549                   Wall time [min]:     0.073
 
 Constructing local fitting domains...
 Local fitting domains are unchanged.
 
 First step of Coulomb + first step of exchange...
 Exchange contribution is evaluated for MOs 1 to 10.
   1% done.
  14% done.
  25% done.
  38% done.
  49% done.
  64% done.
  75% done.
  89% done.
 100% done.
 CPU time [min]:     1.610                   Wall time [min]:     0.075
 
 Fitting and assembly step of exchange...
 CPU time [min]:     1.612                   Wall time [min]:     0.075
 
 Constructing beta Fock-matrix...
 
 Pipek-Mezey localization...
 Step  Convergence
   1   0.105086834449
   2   1.466877423746
   3   0.632145795961
   4   1.283520976555
   5   1.976949377489
   6   0.980228372228
   7   0.454664870894
   8   0.013161044046
   9   0.001233773146
  10   0.000046972736
  11   0.000007549667
  12   0.000001934080
  13   0.000000420982
  14   0.000000128888
  15   0.000000025652
  16   0.000000007081
  17   0.000000001435
  18   0.000000000346
  19   0.000000000070
  20   0.000000000016
  21   0.000000000003
  22   0.000000000001
 CPU time [min]:     1.624                   Wall time [min]:     0.076
 
 Constructing local fitting domains...
 Local fitting domains are unchanged.
 
 Second step of Coulomb + first step of exchange...
 Exchange contribution is evaluated for MOs 1 to 9.
   1% done.
  14% done.
  25% done.
  38% done.
  49% done.
  64% done.
  75% done.
  89% done.
 100% done.
 CPU time [min]:     1.684                   Wall time [min]:     0.078
 
 Fitting and assembly step of exchange...
 CPU time [min]:     1.686                   Wall time [min]:     0.078
 
 Gradient norm:      4.3525E-06
 DIIS is running in this iteration step.
 RMS of alpha [F,P] :                                  0.00000001644471
 RMS of beta  [F,P] :                                  0.00000002981785
 RMS of alpha difference density:                      0.00000016600383
 RMS of beta  difference density:                      0.00000013502983
 Gap [au]:  0.33639054
 ALPHA OCC:  10
 BETA  OCC:   9
 
 ***HARTREE-FOCK ENERGY IN STEP  10 IS       -134.7728805117704383 [AU]
 
 Step comparison  Energy Drift [au]  DIIS error drift  Gradient drift
        9            1.0286E-10         3.3484E-08       1.7048E-06
 ======================================================================
 ITERATION STEP  11
 CPU time [min]:     1.695                   Wall time [min]:     0.079
 

 SCF control                  : diis
 Damping factor/level shift   : 0.000/0.000
 DIIS [start/end/frequency]   :   2 / 50 /  1

 Constructing alpha Fock-matrix...
 
 Pipek-Mezey localization...
 Step  Convergence
   1   0.099577196915
   2   0.186547641629
   3   0.066149027237
   4   0.016326113488
   5   0.000421270220
   6   0.000133148580
   7   0.000004961283
   8   0.000001991630
   9   0.000000092314
  10   0.000000036673
  11   0.000000002409
  12   0.000000000752
  13   0.000000000075
  14   0.000000000017
  15   0.000000000002
  16   0.000000000000
 CPU time [min]:     1.711                   Wall time [min]:     0.080
 
 Constructing local fitting domains...
 Local fitting domains are unchanged.
 
 First step of Coulomb + first step of exchange...
 Exchange contribution is evaluated for MOs 1 to 10.
   1% done.
  14% done.
  25% done.
  38% done.
  49% done.
  64% done.
  75% done.
  89% done.
 100% done.
 CPU time [min]:     1.771                   Wall time [min]:     0.082
 
 Fitting and assembly step of exchange...
 CPU time [min]:     1.773                   Wall time [min]:     0.082
 
 Constructing beta Fock-matrix...
 
 Pipek-Mezey localization...
 Step  Convergence
   1   0.111055651417
   2   0.147221700179
   3   0.170539496042
   4   0.302330758818
   5   0.016619670066
   6   0.003421525477
   7   0.001254992378
   8   0.000281621826
   9   0.000105132049
  10   0.000021013462
  11   0.000006614162
  12   0.000001793267
  13   0.000000580044
  14   0.000000156767
  15   0.000000047763
  16   0.000000014489
  17   0.000000004124
  18   0.000000001086
  19   0.000000000370
  20   0.000000000083
  21   0.000000000024
  22   0.000000000008
  23   0.000000000002
  24   0.000000000001
 CPU time [min]:     1.785                   Wall time [min]:     0.083
 
 Constructing local fitting domains...
 Local fitting domains are unchanged.
 
 Second step of Coulomb + first step of exchange...
 Exchange contribution is evaluated for MOs 1 to 9.
   1% done.
  14% done.
  25% done.
  38% done.
  49% done.
  64% done.
  75% done.
  89% done.
 100% done.
 CPU time [min]:     1.845                   Wall time [min]:     0.085
 
 Fitting and assembly step of exchange...
 CPU time [min]:     1.846                   Wall time [min]:     0.085
 
 Gradient norm:      2.3572E-06
 DIIS is running in this iteration step.
 RMS of alpha [F,P] :                                  0.00000000580028
 RMS of beta  [F,P] :                                  0.00000001410265
 RMS of alpha difference density:                      0.00000002846509
 RMS of beta  difference density:                      0.00000006395969
 Gap [au]:  0.33639054
 ALPHA OCC:  10
 BETA  OCC:   9
 
 ***HARTREE-FOCK ENERGY IN STEP  11 IS       -134.7728805118158562 [AU]
 
 Step comparison  Energy Drift [au]  DIIS error drift  Gradient drift
       10            4.5418E-11         1.8803E-08       1.9953E-06
 ======================================================================
 
 SUCCESS...
 THE SCF ITERATION HAS CONVERGED!
 
                   A   
 FINAL ALPHA OCC:  10
 FINAL BETA  OCC:   9
 
 ***FINAL HARTREE-FOCK ENERGY:       -134.7728805118158562 [AU]
 
 Expectation value of S^2:  0.7527
 Average multiplicity:      2.0027
 
 Orbital energies [au]:
      Irrep         Alpha          Beta
    1   A         -4.666583      -4.663638
    2   A         -2.728224      -2.730887
    3   A         -2.728218      -2.730867
    4   A         -2.728187      -2.730861
    5   A         -0.457434      -0.448532
    6   A         -0.457387      -0.448502
    7   A         -0.457332      -0.448468
    8   A         -0.457307      -0.448464
    9   A         -0.457291      -0.448455
 
   10   A         -0.291587      -0.007456
 
   11   A          0.044803       0.058460
   12   A          0.057594       0.081118
   13   A          0.061937       0.091006
   14   A          0.075824       0.095010
   15   A          0.114862       0.128068
   16   A          0.123133       0.131086
   17   A          0.128592       0.131861
   18   A          0.155675       0.163287
   19   A          0.156456       0.166833
   20   A          0.160649       0.170186
   21   A          0.184537       0.188780
   22   A          0.193619       0.199166
   23   A          0.226781       0.238788
   24   A          0.245825       0.252782
   25   A          0.254145       0.258310
   26   A          0.290284       0.309072
   27   A          0.322144       0.325730
   28   A          0.363345       0.371885
   29   A          0.390079       0.399609
   30   A          0.524925       0.528774
   31   A          0.538755       0.545196
   32   A          0.546845       0.549603
   33   A          0.555057       0.560180
   34   A          0.565496       0.568219
   35   A          0.582861       0.593328
   36   A          0.593070       0.598140
   37   A          0.616297       0.626013
   38   A          0.622049       0.630375
   39   A          0.629259       0.639520
   40   A          0.636037       0.646107
   41   A          0.674458       0.678795
   42   A          0.697003       0.704451
   43   A          0.698139       0.707139
   44   A          0.740298       0.743526
   45   A          0.762509       0.771089
   46   A          0.763132       0.774402
   47   A          0.776849       0.783589
   48   A          0.780824       0.793899
   49   A          0.793867       0.798560
   50   A          0.859528       0.863312
   51   A          0.867764       0.871229
   52   A          0.882089       0.891525
   53   A          0.918783       0.922245
   54   A          0.920025       0.923006
   55   A          0.956138       0.964070
   56   A          1.041063       1.049591
   57   A          1.076658       1.102351
   58   A          1.092424       1.112679
   59   A          1.164035       1.172663
   60   A          1.217756       1.229387
   61   A          1.254290       1.258482
   62   A          1.328826       1.335306
   63   A          1.442773       1.449688
   64   A          1.585691       1.600732
   65   A          1.864821       1.874545
   66   A          1.866346       1.876008
   67   A          1.887120       1.895998
   68   A          1.897075       1.905629
   69   A          1.906251       1.914572
   70   A          1.924971       1.932880
   71   A          1.945783       1.953913
   72   A          2.366572       2.385089
   73   A          3.111305       3.111882
   74   A          3.175759       3.176380
   75   A          3.201379       3.202304
   76   A          3.240539       3.241249
   77   A          3.249459       3.249953
   78   A          3.256798       3.258168
   79   A          3.257619       3.258393
   80   A          3.257668       3.258396
   81   A          3.257765       3.259178
   82   A          3.259396       3.260323
   83   A          3.261473       3.261509
   84   A          3.262574       3.263078
   85   A          3.267575       3.268322
   86   A          3.277011       3.278716
   87   A          3.289336       3.291769
   88   A          3.293050       3.294865
   89   A          3.313110       3.314888
   90   A          3.338136       3.340795
   91   A          3.362425       3.362756
   92   A          3.374879       3.375855
   93   A          3.391745       3.391994
   94   A          3.396454       3.397078
   95   A          3.397665       3.398377
   96   A          3.399983       3.400267
   97   A          3.434028       3.434948
   98   A          3.435302       3.435723
   99   A          3.448287       3.448815
  100   A          3.472148       3.472878
  101   A          3.479062       3.479863
  102   A          3.486115       3.486644
  103   A          3.526146       3.526531
  104   A          3.545087       3.545498
  105   A          3.546827       3.547657
  106   A          3.576752       3.577794
  107   A          3.624385       3.625374
  108   A          3.678672       3.679365
  109   A          4.044093       4.044924
  110   A          4.053905       4.054014
  111   A          4.091022       4.091670
  112   A          4.187698       4.188195
  113   A          4.188207       4.188817
  114   A          4.208282       4.209031
  115   A          4.212872       4.213734
  116   A          4.243214       4.243386
  117   A          4.252167       4.252616
  118   A          4.445908       4.447443
  119   A          4.581514       4.583197
  120   A          4.876834       4.877310
  121   A         13.160956      13.161143
  122   A         13.165498      13.165589
  123   A         13.220393      13.220633
  124   A         38.536674      38.536731
  125   A         38.540474      38.540513
  126   A         38.589366      38.589447
  127   A         41.988524      41.991346
  128   A        200.289641     200.289800
 
 RETURNING FROM SCF ALGORITHM
 ======================================================================

 ************************ 2022-11-05 21:51:24 *************************
 Executing integ...

 Allocation of 150.0 Gbytes of memory...
 
 
 Number of atoms:                  4
 Charge:                           0
 Number of electrons:             19
 Number of core electrons:         0
 Spin multiplicity:                2
 
                 Cartesian coordinates [bohr]      Atomic mass [AMU]  Z
   1  Au   -2.30612085    0.47697500    0.49595055     0.000000       0
   2  Au    2.32024996   -0.52338862   -0.47775359   196.966543      79
   3  Au    4.61293085   -1.52533101   -4.51278846     0.000000       0
   4  Au   -4.61293085    1.52533101    4.51278846     0.000000       0
 
 This molecule is an asymmetric top.
 
 Point group: C1  
 Computational point group: C1  
 
 Cartesian coordinates in standard orientation [bohr]
   1  Au    3.71340282   -1.70814779    0.01465601
   2  Au   -0.67616383    0.31265994    0.00143801
   3  Au   -5.05769583   -1.51591996   -0.01448420
   4  Au    8.10593131    0.09746840   -0.01455194
 
 Nuclear repulsion energy [au]:          0.000000000000
 
 
 Basis set information:
 
 Maximum angular momentum: i
 Maximum number of contracted Gaussians:   13
 Maximum number of primitive Gaussians:    13
 Spherical harmonic GTOs are used.
 
 
 Conventional basis set:
 
   1  Au bse_acvdz [ 10s 9p 8d 3f | 6s 6p 5d 3f ]
   2  Au bse_acvdz [ 10s 9p 8d 3f | 6s 6p 5d 3f ]
   3  Au bse_acvdz [ 10s 9p 8d 3f | 6s 6p 5d 3f ]
   4  Au bse_acvdz [ 10s 9p 8d 3f | 6s 6p 5d 3f ]
 
 Basis functions:
            1             2             3             4             5             6             7             8             9            10
    0    1Au1s         1Au2s         1Au3s         1Au4s         1Au5s         1Au6s         1Au1pz        1Au1py        1Au1px        1Au2pz    
    1    1Au2py        1Au2px        1Au3pz        1Au3py        1Au3px        1Au4pz        1Au4py        1Au4px        1Au5pz        1Au5py    
    2    1Au5px        1Au6pz        1Au6py        1Au6px        1Au1d-2       1Au1d-1       1Au1d0        1Au1d+1       1Au1d+2       1Au2d-2   
    3    1Au2d-1       1Au2d0        1Au2d+1       1Au2d+2       1Au3d-2       1Au3d-1       1Au3d0        1Au3d+1       1Au3d+2       1Au4d-2   
    4    1Au4d-1       1Au4d0        1Au4d+1       1Au4d+2       1Au5d-2       1Au5d-1       1Au5d0        1Au5d+1       1Au5d+2       1Au1f-3   
    5    1Au1f-2       1Au1f-1       1Au1f0        1Au1f+1       1Au1f+2       1Au1f+3       1Au2f-3       1Au2f-2       1Au2f-1       1Au2f0    
    6    1Au2f+1       1Au2f+2       1Au2f+3       1Au3f-3       1Au3f-2       1Au3f-1       1Au3f0        1Au3f+1       1Au3f+2       1Au3f+3   
    7    2Au1s         2Au2s         2Au3s         2Au4s         2Au5s         2Au6s         2Au1pz        2Au1py        2Au1px        2Au2pz    
    8    2Au2py        2Au2px        2Au3pz        2Au3py        2Au3px        2Au4pz        2Au4py        2Au4px        2Au5pz        2Au5py    
    9    2Au5px        2Au6pz        2Au6py        2Au6px        2Au1d-2       2Au1d-1       2Au1d0        2Au1d+1       2Au1d+2       2Au2d-2   
   10    2Au2d-1       2Au2d0        2Au2d+1       2Au2d+2       2Au3d-2       2Au3d-1       2Au3d0        2Au3d+1       2Au3d+2       2Au4d-2   
   11    2Au4d-1       2Au4d0        2Au4d+1       2Au4d+2       2Au5d-2       2Au5d-1       2Au5d0        2Au5d+1       2Au5d+2       2Au1f-3   
   12    2Au1f-2       2Au1f-1       2Au1f0        2Au1f+1       2Au1f+2       2Au1f+3       2Au2f-3       2Au2f-2       2Au2f-1       2Au2f0    
   13    2Au2f+1       2Au2f+2       2Au2f+3       2Au3f-3       2Au3f-2       2Au3f-1       2Au3f0        2Au3f+1       2Au3f+2       2Au3f+3   
   14    3Au1s         3Au2s         3Au3s         3Au4s         3Au5s         3Au6s         3Au1pz        3Au1py        3Au1px        3Au2pz    
   15    3Au2py        3Au2px        3Au3pz        3Au3py        3Au3px        3Au4pz        3Au4py        3Au4px        3Au5pz        3Au5py    
   16    3Au5px        3Au6pz        3Au6py        3Au6px        3Au1d-2       3Au1d-1       3Au1d0        3Au1d+1       3Au1d+2       3Au2d-2   
   17    3Au2d-1       3Au2d0        3Au2d+1       3Au2d+2       3Au3d-2       3Au3d-1       3Au3d0        3Au3d+1       3Au3d+2       3Au4d-2   
   18    3Au4d-1       3Au4d0        3Au4d+1       3Au4d+2       3Au5d-2       3Au5d-1       3Au5d0        3Au5d+1       3Au5d+2       3Au1f-3   
   19    3Au1f-2       3Au1f-1       3Au1f0        3Au1f+1       3Au1f+2       3Au1f+3       3Au2f-3       3Au2f-2       3Au2f-1       3Au2f0    
   20    3Au2f+1       3Au2f+2       3Au2f+3       3Au3f-3       3Au3f-2       3Au3f-1       3Au3f0        3Au3f+1       3Au3f+2       3Au3f+3   
   21    4Au1s         4Au2s         4Au3s         4Au4s         4Au5s         4Au6s         4Au1pz        4Au1py        4Au1px        4Au2pz    
   22    4Au2py        4Au2px        4Au3pz        4Au3py        4Au3px        4Au4pz        4Au4py        4Au4px        4Au5pz        4Au5py    
   23    4Au5px        4Au6pz        4Au6py        4Au6px        4Au1d-2       4Au1d-1       4Au1d0        4Au1d+1       4Au1d+2       4Au2d-2   
   24    4Au2d-1       4Au2d0        4Au2d+1       4Au2d+2       4Au3d-2       4Au3d-1       4Au3d0        4Au3d+1       4Au3d+2       4Au4d-2   
   25    4Au4d-1       4Au4d0        4Au4d+1       4Au4d+2       4Au5d-2       4Au5d-1       4Au5d0        4Au5d+1       4Au5d+2       4Au1f-3   
   26    4Au1f-2       4Au1f-1       4Au1f0        4Au1f+1       4Au1f+2       4Au1f+3       4Au2f-3       4Au2f-2       4Au2f-1       4Au2f0    
   27    4Au2f+1       4Au2f+2       4Au2f+3       4Au3f-3       4Au3f-2       4Au3f-1       4Au3f0        4Au3f+1       4Au3f+2       4Au3f+3   
 
 Maximum number of basis functions per shell:   25
 Total number of basis functions:    280
 
 
 Fitting basis set for the SCF calculation:
 
   1  Au def2-qzvpp-ri-jk [ 13s 12p 11d 9f 5g 3h 2i | 13s 11p 10d 8f 4g 3h 2i ]
   2  Au def2-qzvpp-ri-jk [ 13s 12p 11d 9f 5g 3h 2i | 13s 11p 10d 8f 4g 3h 2i ]
   3  Au def2-qzvpp-ri-jk [ 13s 12p 11d 9f 5g 3h 2i | 13s 11p 10d 8f 4g 3h 2i ]
   4  Au def2-qzvpp-ri-jk [ 13s 12p 11d 9f 5g 3h 2i | 13s 11p 10d 8f 4g 3h 2i ]
 
 Basis functions:
            1             2             3             4             5             6             7             8             9            10
    0    1Au1s         1Au2s         1Au3s         1Au4s         1Au5s         1Au6s         1Au7s         1Au8s         1Au9s         1Au10s    
    1    1Au11s        1Au12s        1Au13s        1Au1pz        1Au1py        1Au1px        1Au2pz        1Au2py        1Au2px        1Au3pz    
    2    1Au3py        1Au3px        1Au4pz        1Au4py        1Au4px        1Au5pz        1Au5py        1Au5px        1Au6pz        1Au6py    
    3    1Au6px        1Au7pz        1Au7py        1Au7px        1Au8pz        1Au8py        1Au8px        1Au9pz        1Au9py        1Au9px    
    4    1Au10pz       1Au10py       1Au10px       1Au11pz       1Au11py       1Au11px       1Au1d-2       1Au1d-1       1Au1d0        1Au1d+1   
    5    1Au1d+2       1Au2d-2       1Au2d-1       1Au2d0        1Au2d+1       1Au2d+2       1Au3d-2       1Au3d-1       1Au3d0        1Au3d+1   
    6    1Au3d+2       1Au4d-2       1Au4d-1       1Au4d0        1Au4d+1       1Au4d+2       1Au5d-2       1Au5d-1       1Au5d0        1Au5d+1   
    7    1Au5d+2       1Au6d-2       1Au6d-1       1Au6d0        1Au6d+1       1Au6d+2       1Au7d-2       1Au7d-1       1Au7d0        1Au7d+1   
    8    1Au7d+2       1Au8d-2       1Au8d-1       1Au8d0        1Au8d+1       1Au8d+2       1Au9d-2       1Au9d-1       1Au9d0        1Au9d+1   
    9    1Au9d+2       1Au10d-2      1Au10d-1      1Au10d0       1Au10d+1      1Au10d+2      1Au1f-3       1Au1f-2       1Au1f-1       1Au1f0    
   10    1Au1f+1       1Au1f+2       1Au1f+3       1Au2f-3       1Au2f-2       1Au2f-1       1Au2f0        1Au2f+1       1Au2f+2       1Au2f+3   
   11    1Au3f-3       1Au3f-2       1Au3f-1       1Au3f0        1Au3f+1       1Au3f+2       1Au3f+3       1Au4f-3       1Au4f-2       1Au4f-1   
   12    1Au4f0        1Au4f+1       1Au4f+2       1Au4f+3       1Au5f-3       1Au5f-2       1Au5f-1       1Au5f0        1Au5f+1       1Au5f+2   
   13    1Au5f+3       1Au6f-3       1Au6f-2       1Au6f-1       1Au6f0        1Au6f+1       1Au6f+2       1Au6f+3       1Au7f-3       1Au7f-2   
   14    1Au7f-1       1Au7f0        1Au7f+1       1Au7f+2       1Au7f+3       1Au8f-3       1Au8f-2       1Au8f-1       1Au8f0        1Au8f+1   
   15    1Au8f+2       1Au8f+3       1Au1g-4       1Au1g-3       1Au1g-2       1Au1g-1       1Au1g0        1Au1g+1       1Au1g+2       1Au1g+3   
   16    1Au1g+4       1Au2g-4       1Au2g-3       1Au2g-2       1Au2g-1       1Au2g0        1Au2g+1       1Au2g+2       1Au2g+3       1Au2g+4   
   17    1Au3g-4       1Au3g-3       1Au3g-2       1Au3g-1       1Au3g0        1Au3g+1       1Au3g+2       1Au3g+3       1Au3g+4       1Au4g-4   
   18    1Au4g-3       1Au4g-2       1Au4g-1       1Au4g0        1Au4g+1       1Au4g+2       1Au4g+3       1Au4g+4       1Au1h-5       1Au1h-4   
   19    1Au1h-3       1Au1h-2       1Au1h-1       1Au1h0        1Au1h+1       1Au1h+2       1Au1h+3       1Au1h+4       1Au1h+5       1Au2h-5   
   20    1Au2h-4       1Au2h-3       1Au2h-2       1Au2h-1       1Au2h0        1Au2h+1       1Au2h+2       1Au2h+3       1Au2h+4       1Au2h+5   
   21    1Au3h-5       1Au3h-4       1Au3h-3       1Au3h-2       1Au3h-1       1Au3h0        1Au3h+1       1Au3h+2       1Au3h+3       1Au3h+4   
   22    1Au3h+5       1Au1i-6       1Au1i-5       1Au1i-4       1Au1i-3       1Au1i-2       1Au1i-1       1Au1i0        1Au1i+1       1Au1i+2   
   23    1Au1i+3       1Au1i+4       1Au1i+5       1Au1i+6       1Au2i-6       1Au2i-5       1Au2i-4       1Au2i-3       1Au2i-2       1Au2i-1   
   24    1Au2i0        1Au2i+1       1Au2i+2       1Au2i+3       1Au2i+4       1Au2i+5       1Au2i+6       2Au1s         2Au2s         2Au3s     
   25    2Au4s         2Au5s         2Au6s         2Au7s         2Au8s         2Au9s         2Au10s        2Au11s        2Au12s        2Au13s    
   26    2Au1pz        2Au1py        2Au1px        2Au2pz        2Au2py        2Au2px        2Au3pz        2Au3py        2Au3px        2Au4pz    
   27    2Au4py        2Au4px        2Au5pz        2Au5py        2Au5px        2Au6pz        2Au6py        2Au6px        2Au7pz        2Au7py    
   28    2Au7px        2Au8pz        2Au8py        2Au8px        2Au9pz        2Au9py        2Au9px        2Au10pz       2Au10py       2Au10px   
   29    2Au11pz       2Au11py       2Au11px       2Au1d-2       2Au1d-1       2Au1d0        2Au1d+1       2Au1d+2       2Au2d-2       2Au2d-1   
   30    2Au2d0        2Au2d+1       2Au2d+2       2Au3d-2       2Au3d-1       2Au3d0        2Au3d+1       2Au3d+2       2Au4d-2       2Au4d-1   
   31    2Au4d0        2Au4d+1       2Au4d+2       2Au5d-2       2Au5d-1       2Au5d0        2Au5d+1       2Au5d+2       2Au6d-2       2Au6d-1   
   32    2Au6d0        2Au6d+1       2Au6d+2       2Au7d-2       2Au7d-1       2Au7d0        2Au7d+1       2Au7d+2       2Au8d-2       2Au8d-1   
   33    2Au8d0        2Au8d+1       2Au8d+2       2Au9d-2       2Au9d-1       2Au9d0        2Au9d+1       2Au9d+2       2Au10d-2      2Au10d-1  
   34    2Au10d0       2Au10d+1      2Au10d+2      2Au1f-3       2Au1f-2       2Au1f-1       2Au1f0        2Au1f+1       2Au1f+2       2Au1f+3   
   35    2Au2f-3       2Au2f-2       2Au2f-1       2Au2f0        2Au2f+1       2Au2f+2       2Au2f+3       2Au3f-3       2Au3f-2       2Au3f-1   
   36    2Au3f0        2Au3f+1       2Au3f+2       2Au3f+3       2Au4f-3       2Au4f-2       2Au4f-1       2Au4f0        2Au4f+1       2Au4f+2   
   37    2Au4f+3       2Au5f-3       2Au5f-2       2Au5f-1       2Au5f0        2Au5f+1       2Au5f+2       2Au5f+3       2Au6f-3       2Au6f-2   
   38    2Au6f-1       2Au6f0        2Au6f+1       2Au6f+2       2Au6f+3       2Au7f-3       2Au7f-2       2Au7f-1       2Au7f0        2Au7f+1   
   39    2Au7f+2       2Au7f+3       2Au8f-3       2Au8f-2       2Au8f-1       2Au8f0        2Au8f+1       2Au8f+2       2Au8f+3       2Au1g-4   
   40    2Au1g-3       2Au1g-2       2Au1g-1       2Au1g0        2Au1g+1       2Au1g+2       2Au1g+3       2Au1g+4       2Au2g-4       2Au2g-3   
   41    2Au2g-2       2Au2g-1       2Au2g0        2Au2g+1       2Au2g+2       2Au2g+3       2Au2g+4       2Au3g-4       2Au3g-3       2Au3g-2   
   42    2Au3g-1       2Au3g0        2Au3g+1       2Au3g+2       2Au3g+3       2Au3g+4       2Au4g-4       2Au4g-3       2Au4g-2       2Au4g-1   
   43    2Au4g0        2Au4g+1       2Au4g+2       2Au4g+3       2Au4g+4       2Au1h-5       2Au1h-4       2Au1h-3       2Au1h-2       2Au1h-1   
   44    2Au1h0        2Au1h+1       2Au1h+2       2Au1h+3       2Au1h+4       2Au1h+5       2Au2h-5       2Au2h-4       2Au2h-3       2Au2h-2   
   45    2Au2h-1       2Au2h0        2Au2h+1       2Au2h+2       2Au2h+3       2Au2h+4       2Au2h+5       2Au3h-5       2Au3h-4       2Au3h-3   
   46    2Au3h-2       2Au3h-1       2Au3h0        2Au3h+1       2Au3h+2       2Au3h+3       2Au3h+4       2Au3h+5       2Au1i-6       2Au1i-5   
   47    2Au1i-4       2Au1i-3       2Au1i-2       2Au1i-1       2Au1i0        2Au1i+1       2Au1i+2       2Au1i+3       2Au1i+4       2Au1i+5   
   48    2Au1i+6       2Au2i-6       2Au2i-5       2Au2i-4       2Au2i-3       2Au2i-2       2Au2i-1       2Au2i0        2Au2i+1       2Au2i+2   
   49    2Au2i+3       2Au2i+4       2Au2i+5       2Au2i+6       3Au1s         3Au2s         3Au3s         3Au4s         3Au5s         3Au6s     
   50    3Au7s         3Au8s         3Au9s         3Au10s        3Au11s        3Au12s        3Au13s        3Au1pz        3Au1py        3Au1px    
   51    3Au2pz        3Au2py        3Au2px        3Au3pz        3Au3py        3Au3px        3Au4pz        3Au4py        3Au4px        3Au5pz    
   52    3Au5py        3Au5px        3Au6pz        3Au6py        3Au6px        3Au7pz        3Au7py        3Au7px        3Au8pz        3Au8py    
   53    3Au8px        3Au9pz        3Au9py        3Au9px        3Au10pz       3Au10py       3Au10px       3Au11pz       3Au11py       3Au11px   
   54    3Au1d-2       3Au1d-1       3Au1d0        3Au1d+1       3Au1d+2       3Au2d-2       3Au2d-1       3Au2d0        3Au2d+1       3Au2d+2   
   55    3Au3d-2       3Au3d-1       3Au3d0        3Au3d+1       3Au3d+2       3Au4d-2       3Au4d-1       3Au4d0        3Au4d+1       3Au4d+2   
   56    3Au5d-2       3Au5d-1       3Au5d0        3Au5d+1       3Au5d+2       3Au6d-2       3Au6d-1       3Au6d0        3Au6d+1       3Au6d+2   
   57    3Au7d-2       3Au7d-1       3Au7d0        3Au7d+1       3Au7d+2       3Au8d-2       3Au8d-1       3Au8d0        3Au8d+1       3Au8d+2   
   58    3Au9d-2       3Au9d-1       3Au9d0        3Au9d+1       3Au9d+2       3Au10d-2      3Au10d-1      3Au10d0       3Au10d+1      3Au10d+2  
   59    3Au1f-3       3Au1f-2       3Au1f-1       3Au1f0        3Au1f+1       3Au1f+2       3Au1f+3       3Au2f-3       3Au2f-2       3Au2f-1   
   60    3Au2f0        3Au2f+1       3Au2f+2       3Au2f+3       3Au3f-3       3Au3f-2       3Au3f-1       3Au3f0        3Au3f+1       3Au3f+2   
   61    3Au3f+3       3Au4f-3       3Au4f-2       3Au4f-1       3Au4f0        3Au4f+1       3Au4f+2       3Au4f+3       3Au5f-3       3Au5f-2   
   62    3Au5f-1       3Au5f0        3Au5f+1       3Au5f+2       3Au5f+3       3Au6f-3       3Au6f-2       3Au6f-1       3Au6f0        3Au6f+1   
   63    3Au6f+2       3Au6f+3       3Au7f-3       3Au7f-2       3Au7f-1       3Au7f0        3Au7f+1       3Au7f+2       3Au7f+3       3Au8f-3   
   64    3Au8f-2       3Au8f-1       3Au8f0        3Au8f+1       3Au8f+2       3Au8f+3       3Au1g-4       3Au1g-3       3Au1g-2       3Au1g-1   
   65    3Au1g0        3Au1g+1       3Au1g+2       3Au1g+3       3Au1g+4       3Au2g-4       3Au2g-3       3Au2g-2       3Au2g-1       3Au2g0    
   66    3Au2g+1       3Au2g+2       3Au2g+3       3Au2g+4       3Au3g-4       3Au3g-3       3Au3g-2       3Au3g-1       3Au3g0        3Au3g+1   
   67    3Au3g+2       3Au3g+3       3Au3g+4       3Au4g-4       3Au4g-3       3Au4g-2       3Au4g-1       3Au4g0        3Au4g+1       3Au4g+2   
   68    3Au4g+3       3Au4g+4       3Au1h-5       3Au1h-4       3Au1h-3       3Au1h-2       3Au1h-1       3Au1h0        3Au1h+1       3Au1h+2   
   69    3Au1h+3       3Au1h+4       3Au1h+5       3Au2h-5       3Au2h-4       3Au2h-3       3Au2h-2       3Au2h-1       3Au2h0        3Au2h+1   
   70    3Au2h+2       3Au2h+3       3Au2h+4       3Au2h+5       3Au3h-5       3Au3h-4       3Au3h-3       3Au3h-2       3Au3h-1       3Au3h0    
   71    3Au3h+1       3Au3h+2       3Au3h+3       3Au3h+4       3Au3h+5       3Au1i-6       3Au1i-5       3Au1i-4       3Au1i-3       3Au1i-2   
   72    3Au1i-1       3Au1i0        3Au1i+1       3Au1i+2       3Au1i+3       3Au1i+4       3Au1i+5       3Au1i+6       3Au2i-6       3Au2i-5   
[...]
   15    1Au2g+1       1Au2g+2       1Au2g+3       1Au2g+4       1Au3g-4       1Au3g-3       1Au3g-2       1Au3g-1       1Au3g0        1Au3g+1   
   16    1Au3g+2       1Au3g+3       1Au3g+4       1Au4g-4       1Au4g-3       1Au4g-2       1Au4g-1       1Au4g0        1Au4g+1       1Au4g+2   
   17    1Au4g+3       1Au4g+4       1Au5g-4       1Au5g-3       1Au5g-2       1Au5g-1       1Au5g0        1Au5g+1       1Au5g+2       1Au5g+3   
   18    1Au5g+4       1Au6g-4       1Au6g-3       1Au6g-2       1Au6g-1       1Au6g0        1Au6g+1       1Au6g+2       1Au6g+3       1Au6g+4   
   19    1Au7g-4       1Au7g-3       1Au7g-2       1Au7g-1       1Au7g0        1Au7g+1       1Au7g+2       1Au7g+3       1Au7g+4       1Au1h-5   
   20    1Au1h-4       1Au1h-3       1Au1h-2       1Au1h-1       1Au1h0        1Au1h+1       1Au1h+2       1Au1h+3       1Au1h+4       1Au1h+5   
   21    1Au2h-5       1Au2h-4       1Au2h-3       1Au2h-2       1Au2h-1       1Au2h0        1Au2h+1       1Au2h+2       1Au2h+3       1Au2h+4   
   22    1Au2h+5       1Au3h-5       1Au3h-4       1Au3h-3       1Au3h-2       1Au3h-1       1Au3h0        1Au3h+1       1Au3h+2       1Au3h+3   
   23    1Au3h+4       1Au3h+5       1Au4h-5       1Au4h-4       1Au4h-3       1Au4h-2       1Au4h-1       1Au4h0        1Au4h+1       1Au4h+2   
   24    1Au4h+3       1Au4h+4       1Au4h+5       2Au1s         2Au2s         2Au3s         2Au4s         2Au5s         2Au6s         2Au7s     
   25    2Au8s         2Au9s         2Au10s        2Au1pz        2Au1py        2Au1px        2Au2pz        2Au2py        2Au2px        2Au3pz    
   26    2Au3py        2Au3px        2Au4pz        2Au4py        2Au4px        2Au5pz        2Au5py        2Au5px        2Au6pz        2Au6py    
   27    2Au6px        2Au7pz        2Au7py        2Au7px        2Au8pz        2Au8py        2Au8px        2Au9pz        2Au9py        2Au9px    
   28    2Au10pz       2Au10py       2Au10px       2Au1d-2       2Au1d-1       2Au1d0        2Au1d+1       2Au1d+2       2Au2d-2       2Au2d-1   
   29    2Au2d0        2Au2d+1       2Au2d+2       2Au3d-2       2Au3d-1       2Au3d0        2Au3d+1       2Au3d+2       2Au4d-2       2Au4d-1   
   30    2Au4d0        2Au4d+1       2Au4d+2       2Au5d-2       2Au5d-1       2Au5d0        2Au5d+1       2Au5d+2       2Au6d-2       2Au6d-1   
   31    2Au6d0        2Au6d+1       2Au6d+2       2Au7d-2       2Au7d-1       2Au7d0        2Au7d+1       2Au7d+2       2Au8d-2       2Au8d-1   
   32    2Au8d0        2Au8d+1       2Au8d+2       2Au1f-3       2Au1f-2       2Au1f-1       2Au1f0        2Au1f+1       2Au1f+2       2Au1f+3   
   33    2Au2f-3       2Au2f-2       2Au2f-1       2Au2f0        2Au2f+1       2Au2f+2       2Au2f+3       2Au3f-3       2Au3f-2       2Au3f-1   
   34    2Au3f0        2Au3f+1       2Au3f+2       2Au3f+3       2Au4f-3       2Au4f-2       2Au4f-1       2Au4f0        2Au4f+1       2Au4f+2   
   35    2Au4f+3       2Au5f-3       2Au5f-2       2Au5f-1       2Au5f0        2Au5f+1       2Au5f+2       2Au5f+3       2Au6f-3       2Au6f-2   
   36    2Au6f-1       2Au6f0        2Au6f+1       2Au6f+2       2Au6f+3       2Au7f-3       2Au7f-2       2Au7f-1       2Au7f0        2Au7f+1   
   37    2Au7f+2       2Au7f+3       2Au8f-3       2Au8f-2       2Au8f-1       2Au8f0        2Au8f+1       2Au8f+2       2Au8f+3       2Au1g-4   
   38    2Au1g-3       2Au1g-2       2Au1g-1       2Au1g0        2Au1g+1       2Au1g+2       2Au1g+3       2Au1g+4       2Au2g-4       2Au2g-3   
   39    2Au2g-2       2Au2g-1       2Au2g0        2Au2g+1       2Au2g+2       2Au2g+3       2Au2g+4       2Au3g-4       2Au3g-3       2Au3g-2   
   40    2Au3g-1       2Au3g0        2Au3g+1       2Au3g+2       2Au3g+3       2Au3g+4       2Au4g-4       2Au4g-3       2Au4g-2       2Au4g-1   
   41    2Au4g0        2Au4g+1       2Au4g+2       2Au4g+3       2Au4g+4       2Au5g-4       2Au5g-3       2Au5g-2       2Au5g-1       2Au5g0    
   42    2Au5g+1       2Au5g+2       2Au5g+3       2Au5g+4       2Au6g-4       2Au6g-3       2Au6g-2       2Au6g-1       2Au6g0        2Au6g+1   
   43    2Au6g+2       2Au6g+3       2Au6g+4       2Au7g-4       2Au7g-3       2Au7g-2       2Au7g-1       2Au7g0        2Au7g+1       2Au7g+2   
   44    2Au7g+3       2Au7g+4       2Au1h-5       2Au1h-4       2Au1h-3       2Au1h-2       2Au1h-1       2Au1h0        2Au1h+1       2Au1h+2   
   45    2Au1h+3       2Au1h+4       2Au1h+5       2Au2h-5       2Au2h-4       2Au2h-3       2Au2h-2       2Au2h-1       2Au2h0        2Au2h+1   
   46    2Au2h+2       2Au2h+3       2Au2h+4       2Au2h+5       2Au3h-5       2Au3h-4       2Au3h-3       2Au3h-2       2Au3h-1       2Au3h0    
   47    2Au3h+1       2Au3h+2       2Au3h+3       2Au3h+4       2Au3h+5       2Au4h-5       2Au4h-4       2Au4h-3       2Au4h-2       2Au4h-1   
   48    2Au4h0        2Au4h+1       2Au4h+2       2Au4h+3       2Au4h+4       2Au4h+5       3Au1s         3Au2s         3Au3s         3Au4s     
   49    3Au5s         3Au6s         3Au7s         3Au8s         3Au9s         3Au10s        3Au1pz        3Au1py        3Au1px        3Au2pz    
   50    3Au2py        3Au2px        3Au3pz        3Au3py        3Au3px        3Au4pz        3Au4py        3Au4px        3Au5pz        3Au5py    
   51    3Au5px        3Au6pz        3Au6py        3Au6px        3Au7pz        3Au7py        3Au7px        3Au8pz        3Au8py        3Au8px    
   52    3Au9pz        3Au9py        3Au9px        3Au10pz       3Au10py       3Au10px       3Au1d-2       3Au1d-1       3Au1d0        3Au1d+1   
   53    3Au1d+2       3Au2d-2       3Au2d-1       3Au2d0        3Au2d+1       3Au2d+2       3Au3d-2       3Au3d-1       3Au3d0        3Au3d+1   
   54    3Au3d+2       3Au4d-2       3Au4d-1       3Au4d0        3Au4d+1       3Au4d+2       3Au5d-2       3Au5d-1       3Au5d0        3Au5d+1   
   55    3Au5d+2       3Au6d-2       3Au6d-1       3Au6d0        3Au6d+1       3Au6d+2       3Au7d-2       3Au7d-1       3Au7d0        3Au7d+1   
   56    3Au7d+2       3Au8d-2       3Au8d-1       3Au8d0        3Au8d+1       3Au8d+2       3Au1f-3       3Au1f-2       3Au1f-1       3Au1f0    
   57    3Au1f+1       3Au1f+2       3Au1f+3       3Au2f-3       3Au2f-2       3Au2f-1       3Au2f0        3Au2f+1       3Au2f+2       3Au2f+3   
   58    3Au3f-3       3Au3f-2       3Au3f-1       3Au3f0        3Au3f+1       3Au3f+2       3Au3f+3       3Au4f-3       3Au4f-2       3Au4f-1   
   59    3Au4f0        3Au4f+1       3Au4f+2       3Au4f+3       3Au5f-3       3Au5f-2       3Au5f-1       3Au5f0        3Au5f+1       3Au5f+2   
   60    3Au5f+3       3Au6f-3       3Au6f-2       3Au6f-1       3Au6f0        3Au6f+1       3Au6f+2       3Au6f+3       3Au7f-3       3Au7f-2   
   61    3Au7f-1       3Au7f0        3Au7f+1       3Au7f+2       3Au7f+3       3Au8f-3       3Au8f-2       3Au8f-1       3Au8f0        3Au8f+1   
   62    3Au8f+2       3Au8f+3       3Au1g-4       3Au1g-3       3Au1g-2       3Au1g-1       3Au1g0        3Au1g+1       3Au1g+2       3Au1g+3   
   63    3Au1g+4       3Au2g-4       3Au2g-3       3Au2g-2       3Au2g-1       3Au2g0        3Au2g+1       3Au2g+2       3Au2g+3       3Au2g+4   
   64    3Au3g-4       3Au3g-3       3Au3g-2       3Au3g-1       3Au3g0        3Au3g+1       3Au3g+2       3Au3g+3       3Au3g+4       3Au4g-4   
   65    3Au4g-3       3Au4g-2       3Au4g-1       3Au4g0        3Au4g+1       3Au4g+2       3Au4g+3       3Au4g+4       3Au5g-4       3Au5g-3   
   66    3Au5g-2       3Au5g-1       3Au5g0        3Au5g+1       3Au5g+2       3Au5g+3       3Au5g+4       3Au6g-4       3Au6g-3       3Au6g-2   
   67    3Au6g-1       3Au6g0        3Au6g+1       3Au6g+2       3Au6g+3       3Au6g+4       3Au7g-4       3Au7g-3       3Au7g-2       3Au7g-1   
   68    3Au7g0        3Au7g+1       3Au7g+2       3Au7g+3       3Au7g+4       3Au1h-5       3Au1h-4       3Au1h-3       3Au1h-2       3Au1h-1   
   69    3Au1h0        3Au1h+1       3Au1h+2       3Au1h+3       3Au1h+4       3Au1h+5       3Au2h-5       3Au2h-4       3Au2h-3       3Au2h-2   
   70    3Au2h-1       3Au2h0        3Au2h+1       3Au2h+2       3Au2h+3       3Au2h+4       3Au2h+5       3Au3h-5       3Au3h-4       3Au3h-3   
   71    3Au3h-2       3Au3h-1       3Au3h0        3Au3h+1       3Au3h+2       3Au3h+3       3Au3h+4       3Au3h+5       3Au4h-5       3Au4h-4   
   72    3Au4h-3       3Au4h-2       3Au4h-1       3Au4h0        3Au4h+1       3Au4h+2       3Au4h+3       3Au4h+4       3Au4h+5       4Au1s     
   73    4Au2s         4Au3s         4Au4s         4Au5s         4Au6s         4Au7s         4Au8s         4Au9s         4Au10s        4Au1pz    
   74    4Au1py        4Au1px        4Au2pz        4Au2py        4Au2px        4Au3pz        4Au3py        4Au3px        4Au4pz        4Au4py    
   75    4Au4px        4Au5pz        4Au5py        4Au5px        4Au6pz        4Au6py        4Au6px        4Au7pz        4Au7py        4Au7px    
   76    4Au8pz        4Au8py        4Au8px        4Au9pz        4Au9py        4Au9px        4Au10pz       4Au10py       4Au10px       4Au1d-2   
   77    4Au1d-1       4Au1d0        4Au1d+1       4Au1d+2       4Au2d-2       4Au2d-1       4Au2d0        4Au2d+1       4Au2d+2       4Au3d-2   
   78    4Au3d-1       4Au3d0        4Au3d+1       4Au3d+2       4Au4d-2       4Au4d-1       4Au4d0        4Au4d+1       4Au4d+2       4Au5d-2   
   79    4Au5d-1       4Au5d0        4Au5d+1       4Au5d+2       4Au6d-2       4Au6d-1       4Au6d0        4Au6d+1       4Au6d+2       4Au7d-2   
   80    4Au7d-1       4Au7d0        4Au7d+1       4Au7d+2       4Au8d-2       4Au8d-1       4Au8d0        4Au8d+1       4Au8d+2       4Au1f-3   
   81    4Au1f-2       4Au1f-1       4Au1f0        4Au1f+1       4Au1f+2       4Au1f+3       4Au2f-3       4Au2f-2       4Au2f-1       4Au2f0    
   82    4Au2f+1       4Au2f+2       4Au2f+3       4Au3f-3       4Au3f-2       4Au3f-1       4Au3f0        4Au3f+1       4Au3f+2       4Au3f+3   
   83    4Au4f-3       4Au4f-2       4Au4f-1       4Au4f0        4Au4f+1       4Au4f+2       4Au4f+3       4Au5f-3       4Au5f-2       4Au5f-1   
   84    4Au5f0        4Au5f+1       4Au5f+2       4Au5f+3       4Au6f-3       4Au6f-2       4Au6f-1       4Au6f0        4Au6f+1       4Au6f+2   
   85    4Au6f+3       4Au7f-3       4Au7f-2       4Au7f-1       4Au7f0        4Au7f+1       4Au7f+2       4Au7f+3       4Au8f-3       4Au8f-2   
   86    4Au8f-1       4Au8f0        4Au8f+1       4Au8f+2       4Au8f+3       4Au1g-4       4Au1g-3       4Au1g-2       4Au1g-1       4Au1g0    
   87    4Au1g+1       4Au1g+2       4Au1g+3       4Au1g+4       4Au2g-4       4Au2g-3       4Au2g-2       4Au2g-1       4Au2g0        4Au2g+1   
   88    4Au2g+2       4Au2g+3       4Au2g+4       4Au3g-4       4Au3g-3       4Au3g-2       4Au3g-1       4Au3g0        4Au3g+1       4Au3g+2   
   89    4Au3g+3       4Au3g+4       4Au4g-4       4Au4g-3       4Au4g-2       4Au4g-1       4Au4g0        4Au4g+1       4Au4g+2       4Au4g+3   
   90    4Au4g+4       4Au5g-4       4Au5g-3       4Au5g-2       4Au5g-1       4Au5g0        4Au5g+1       4Au5g+2       4Au5g+3       4Au5g+4   
   91    4Au6g-4       4Au6g-3       4Au6g-2       4Au6g-1       4Au6g0        4Au6g+1       4Au6g+2       4Au6g+3       4Au6g+4       4Au7g-4   
   92    4Au7g-3       4Au7g-2       4Au7g-1       4Au7g0        4Au7g+1       4Au7g+2       4Au7g+3       4Au7g+4       4Au1h-5       4Au1h-4   
   93    4Au1h-3       4Au1h-2       4Au1h-1       4Au1h0        4Au1h+1       4Au1h+2       4Au1h+3       4Au1h+4       4Au1h+5       4Au2h-5   
   94    4Au2h-4       4Au2h-3       4Au2h-2       4Au2h-1       4Au2h0        4Au2h+1       4Au2h+2       4Au2h+3       4Au2h+4       4Au2h+5   
   95    4Au3h-5       4Au3h-4       4Au3h-3       4Au3h-2       4Au3h-1       4Au3h0        4Au3h+1       4Au3h+2       4Au3h+3       4Au3h+4   
   96    4Au3h+5       4Au4h-5       4Au4h-4       4Au4h-3       4Au4h-2       4Au4h-1       4Au4h0        4Au4h+1       4Au4h+2       4Au4h+3   
   97    4Au4h+4       4Au4h+5   
 
 Maximum number of basis functions per shell:   63
 Total number of basis functions:    972
 
 
 Old basis set for SCF restart
 
   1  Au def2-svp [ 7s 6p 5d 1f | 6s 3p 2d 1f ]
   2  Au def2-svp [ 7s 6p 5d 1f | 6s 3p 2d 1f ]
   3  Au def2-svp [ 7s 6p 5d 1f | 6s 3p 2d 1f ]
   4  Au def2-svp [ 7s 6p 5d 1f | 6s 3p 2d 1f ]
 
 Basis functions:
            1             2             3             4             5             6             7             8             9            10
    0    1Au1s         1Au2s         1Au3s         1Au4s         1Au5s         1Au6s         1Au1pz        1Au1py        1Au1px        1Au2pz    
    1    1Au2py        1Au2px        1Au3pz        1Au3py        1Au3px        1Au1d-2       1Au1d-1       1Au1d0        1Au1d+1       1Au1d+2   
    2    1Au2d-2       1Au2d-1       1Au2d0        1Au2d+1       1Au2d+2       1Au1f-3       1Au1f-2       1Au1f-1       1Au1f0        1Au1f+1   
    3    1Au1f+2       1Au1f+3       2Au1s         2Au2s         2Au3s         2Au4s         2Au5s         2Au6s         2Au1pz        2Au1py    
    4    2Au1px        2Au2pz        2Au2py        2Au2px        2Au3pz        2Au3py        2Au3px        2Au1d-2       2Au1d-1       2Au1d0    
    5    2Au1d+1       2Au1d+2       2Au2d-2       2Au2d-1       2Au2d0        2Au2d+1       2Au2d+2       2Au1f-3       2Au1f-2       2Au1f-1   
    6    2Au1f0        2Au1f+1       2Au1f+2       2Au1f+3       3Au1s         3Au2s         3Au3s         3Au4s         3Au5s         3Au6s     
    7    3Au1pz        3Au1py        3Au1px        3Au2pz        3Au2py        3Au2px        3Au3pz        3Au3py        3Au3px        3Au1d-2   
    8    3Au1d-1       3Au1d0        3Au1d+1       3Au1d+2       3Au2d-2       3Au2d-1       3Au2d0        3Au2d+1       3Au2d+2       3Au1f-3   
    9    3Au1f-2       3Au1f-1       3Au1f0        3Au1f+1       3Au1f+2       3Au1f+3       4Au1s         4Au2s         4Au3s         4Au4s     
   10    4Au5s         4Au6s         4Au1pz        4Au1py        4Au1px        4Au2pz        4Au2py        4Au2px        4Au3pz        4Au3py    
   11    4Au3px        4Au1d-2       4Au1d-1       4Au1d0        4Au1d+1       4Au1d+2       4Au2d-2       4Au2d-1       4Au2d0        4Au2d+1   
   12    4Au2d+2       4Au1f-3       4Au1f-2       4Au1f-1       4Au1f0        4Au1f+1       4Au1f+2       4Au1f+3   
 
 Maximum number of basis functions per shell:   63
 Total number of basis functions:    128
 
 
 Effective core potentials:
 
   2  Au mcdhf-ecp-60        
 
 Calculation of prescreening integrals...
 CPU time [min]:     0.938                   Wall time [min]:     0.044
 
 Calculation of two-center Coulomb integrals...
   1% done.
  15% done.
  26% done.
  41% done.
  56% done.
  69% done.
  91% done.
 100% done.
 CPU time [min]:     0.951                   Wall time [min]:     0.045
 
 Calculation of inverse square root of the two-center integral matrix...
 CPU time [min]:     1.004                   Wall time [min]:     0.047
 
 Calculation of three-center Coulomb integrals...
   1% done.
  18% done.
  34% done.
  46% done.
  60% done.
  86% done.
 100% done.
 CPU time [min]:     1.423                   Wall time [min]:     0.076

 ************************ 2022-11-05 21:51:49 *************************
 Executing drpa...

 Three-index integral transformation
 
 Allocation of 150.0 Gbytes of memory...

 Alpha-alpha contribution
 Minimal memory requirement for (ai|P) and (ij|P) integrals:        9.5 MB

 Calculating (ai|P) and (ij|P) integrals...
 Number of integral batches:    1
 Occupied indices per batch:   10
 
 Transforming integrals of batch 1...
 CPU time [min]:     0.339                   Wall time [min]:     0.016

 Calculating (ab|P) integrals...
 Minimal memory requirement for (ab|P) integrals:        7.4 MB
 Number of integral batches:    1
 Virtual indices per batch:   270

 Transforming integrals of batch 1...
 CPU time [min]:     0.860                   Wall time [min]:     0.079


 Beta-beta and alpha-beta contribution
 Minimal memory requirement for (ai|P) and (ij|P) integrals:       28.2 MB

 Calculating (ai|P) and (ij|P) integrals...
 Number of integral batches:    1
 Occupied indices per batch:    9
 
 Transforming integrals of batch 1...
 CPU time [min]:     1.187                   Wall time [min]:     0.093

 Calculating (ab|P) integrals...
 Minimal memory requirement for (ab|P) integrals:        7.4 MB
 Number of integral batches:    1
 Virtual indices per batch:   271

 Transforming integrals of batch 1...
 CPU time [min]:     1.705                   Wall time [min]:     0.155

 ************************ 2022-11-05 21:52:01 *************************
 Executing uccsd...

 Allocation of 150.0 Gbytes of memory...
 
 UHF reference wavefunction.
 Canonical DF-CCSD(T) calculation.
 Number of correlated alpha electrons:       10
 Number of correlated beta electrons:         9
 Number of virtual alpha orbitals:          270
 Number of virtual beta orbitals:           271
 Number of auxiliary basis functions:       972
 Minimal memory requirement for CCSD:   1.15 GB
 Disk space requirement for CCSD:       5.04 GB
 Minimal memory requirement for (T):    1.12 GB
 Disk space requirement for (T):        7.08 GB
 
 Assembling four center integrals... Done!
 CPU time [min]:     1.364                   Wall time [min]:     0.406
 
 Reference energy [au]:                     -134.780845100610
 T1 contributions [au]:                       -0.000000000000
 Same spin MP2 energy [au]:                   -0.191861688591
 Opposite spin MP2 energy [au]:               -0.377904314606
 MP2 correlation energy [au]:                 -0.569766003197
 Total MP2 energy [au]:                     -135.350611103807
 
 Projected  S^2 /   T1,    T2, total/   -0.000000  -0.001161   0.751636
 
 Starting CCSD iterations...
 
                     Residual norm     Correlation energy [au]
 -------------------------------------------------------------
 Iteration  1       0.095359729041        -0.513419528322
 Iteration  2       0.028514840343        -0.529738748576
 Iteration  3       0.012371034936        -0.531942619449
 Iteration  4       0.003349311678        -0.531284954904
 Iteration  5       0.000758375283        -0.531139243081
 Iteration  6       0.000204207115        -0.531149598537
 Iteration  7       0.000074160260        -0.531153609053
 Iteration  8       0.000030574759        -0.531153428770
 Iteration  9       0.000019736618        -0.531153358832
 Iteration 10       0.000016394003        -0.531153536231
 Iteration 11       0.000013147530        -0.531153605377
 Iteration 12       0.000007016496        -0.531153478165
 
 CCSD iteration has converged in 12 steps.
 
 T1 contribution [au]:                                 -0.000000000000
 Opposite spin CCSD energy [au]:                       -0.368380607629
 Same spin CCSD energy [au]:                           -0.162772870536
 CCSD correlation energy [au]:                         -0.531153478165
 Total CCSD energy [au]:                             -135.311998578775
 
 Projected  S^2 /   T1,    T2, total/   -0.000997  -0.001431   0.750368
 
 Alpha T1 diagnostic:      2.295E-02      D1 diagnostic:      6.485E-02
 Beta  T1 diagnostic:      1.712E-02      D1 diagnostic:      2.305E-02
 CPU time [min]:   392.386                   Wall time [min]:    40.016
 
 Calculation of (T) correction...
   1% done.
  12% done.
  24% done.
  35% done.
  47% done.
  58% done.
  72% done.
  86% done.
 100% done.
 
 (T) correction [au]:                                 -0.016495741595
 CCSD(T) correlation energy [au]:                     -0.547649219760
 Total CCSD(T) energy [au]:                         -135.328494320369
 CPU time [min]:   445.351                   Wall time [min]:    45.238
 
 ************************ 2022-11-05 22:37:16 *************************
                      Normal termination of mrcc.
 **********************************************************************
