 vasp.6.3.0 20Jan22 (build Apr  1 2022 16:44:48) complex                         
 executed on        HPECrayEX_GCC date 2023.01.06  22:08:01
 running  768 mpi-ranks, with    1 threads/rank
 distrk:  each k-point on  384 cores,    2 groups
 distr:  one band on NCORE=   4 cores,   96 groups


--------------------------------------------------------------------------------------------------------


 INCAR:
   SYSTEM = MgO-rocksalt
   ISMEAR = 0
   SIGMA = 0.05
   EDIFF = 1E-6
   ALGO = ALL
   ISTART = 0
   IBRION = -1
   NSW = 0
   ISYM = 2
   METAGGA = R2SCAN
   IVDW = 13
   VDW_S8 = 0.6019
   VDW_A1 = 0.5156
   VDW_A2 = 5.7734
   ENCUT = 520
   PREC = Accurate
   LASPH = .TRUE.
   LREAL = Auto
   ISPIN = 1
   NELM = 200
   NELMIN = 8
   NCORE = 4
   KPAR = 2
   LWAVE = .FALSE.
   LCHARG = .FALSE.

 POTCAR:    PAW_PBE Cu 22Jun2005                  
 POTCAR:    PAW_PBE Cu 22Jun2005                  
   SHA256 =  0e71e558f37a4e8407882b4609ceaae59938afaad9ced71dfe8490308a0ab630 Cu/POTCAR             
   COPYR  = (c) Copyright 22Jun2005 Georg Kresse                                                    
   COPYR  = This file is part of the software VASP. Any use, copying, and all other rights are regul
   COPYR  = If you do not have a valid VASP license, you may not use, copy or distribute this file. 
   VRHFIN =Cu: d10 p1                                                                               
   LEXCH  = PE                                                                                      
   EATOM  =  1390.9808 eV,  102.2342 Ry                                                             
                                                                                                    
   TITEL  = PAW_PBE Cu 22Jun2005                                                                    
   LULTRA =        F    use ultrasoft PP ?                                                          
   IUNSCR =        1    unscreen: 0-lin 1-nonlin 2-no                                               
   RPACOR =    2.000    partial core radius                                                         
   POMASS =   63.546; ZVAL   =   11.000    mass and valenz                                          
   RCORE  =    2.300    outmost cutoff radius                                                       
   RWIGS  =    2.200; RWIGS  =    1.164    wigner-seitz radius (au A)                               
   ENMAX  =  295.446; ENMIN  =  221.585 eV                                                          
   ICORE  =        3    local potential                                                             
   LCOR   =        T    correct aug charges                                                         
   LPAW   =        T    paw PP                                                                      
   EAUG   =  586.980                                                                                
   DEXC   =    0.000                                                                                
   RMAX   =    2.344    core radius for proj-oper                                                   
   RAUG   =    1.300    factor for augmentation sphere                                              
   RDEP   =    2.302    radius for radial grids                                                     
   RDEPT  =    1.771    core radius for aug-charge                                                  
                                                                                                    
   Atomic configuration                                                                             
    9 entries                                                                                       
     n  l   j            E        occ.                                                              
     1  0  0.50     -8850.2468   2.0000                                                             
     2  0  0.50     -1062.3498   2.0000                                                             
     2  1  1.50      -916.8226   6.0000                                                             
     3  0  0.50      -114.6929   2.0000                                                             
     3  1  1.50       -72.1325   6.0000                                                             
     3  2  2.50        -5.0394  10.0000                                                             
     4  0  0.50        -4.6097   1.0000                                                             
     4  1  0.50        -4.0817   0.0000                                                             
     4  3  2.50        -1.3606   0.0000                                                             
   Description                                                                                      
     l       E           TYP  RCUT    TYP  RCUT                                                     
     2     -5.0393973     23  2.200                                                                 
     2     10.8846608     23  2.200                                                                 
     0     -4.6097109     23  2.200                                                                 
     0      8.2520465     23  2.200                                                                 
     1     -2.7211652     23  2.200                                                                 
     1     21.7055443     23  2.200                                                                 
     3      2.7211652     23  2.300                                                                 
  local pseudopotential read in
  partial core-charges read in
  partial kinetic energy density read in
  atomic valenz-charges read in
  non local Contribution for L=           2  read in
    real space projection operators read in
  non local Contribution for L=           2  read in
    real space projection operators read in
  non local Contribution for L=           0  read in
    real space projection operators read in
  non local Contribution for L=           0  read in
    real space projection operators read in
  non local Contribution for L=           1  read in
    real space projection operators read in
  non local Contribution for L=           1  read in
    real space projection operators read in
    PAW grid and wavefunctions read in

   number of l-projection  operators is LMAX  =           6
   number of lm-projection operators is LMMAX =          18

 -----------------------------------------------------------------------------
|                                                                             |
|               ----> ADVICE to this user running VASP <----                  |
|                                                                             |
|     You have a (more or less) 'small supercell' and for smaller cells       |
|     it is recommended to use the reciprocal-space projection scheme!        |
|     The real-space optimization is not efficient for small cells and it     |
|     is also less accurate ...                                               |
|     Therefore, set LREAL=.FALSE. in the INCAR file.                         |
|                                                                             |
 -----------------------------------------------------------------------------

 Optimization of the real space projectors (new method)

 maximal supplied QI-value         = 16.25
 optimisation between [QCUT,QGAM] = [ 11.54, 23.24] = [ 37.28,151.24] Ry 
 Optimized for a Real-space Cutoff    1.53 Angstroem

   l    n(q)    QCUT    max X(q) W(low)/X(q) W(high)/X(q)  e(spline) 
   2     10    11.539     4.610    0.96E-04    0.13E-03    0.19E-06
   2     10    11.539     8.522    0.16E-03    0.21E-03    0.28E-06
   0     11    11.539    51.609    0.45E-04    0.31E-04    0.11E-06
   0     11    11.539    27.747    0.39E-04    0.29E-04    0.10E-06
   1     10    11.539    20.408    0.70E-05    0.38E-04    0.18E-06
   1     10    11.539    13.425    0.66E-05    0.34E-04    0.17E-06
  PAW_PBE Cu 22Jun2005                  :
 energy of atom  1       EATOM=-1390.9808
 kinetic energy error for atom=    0.0037 (will be added to EATOM!!)


 POSCAR: Cu
  positions in direct lattice
  velocities in cartesian coordinates

 METAGGA = R2SCA    LMAXTAU =  6    LMIXTAU =  F

 WARNING: Using user supplied parameters
     VDW_S8 = 0.602
     VDW_A1 = 0.516
     VDW_A2 = 5.773
     because the xc functional is not supported. Required parameters not
     defined in the INCAR file will be replaced with PBE defaults ones.

 exchange correlation table for  LEXCH =        8
   RHO(1)=    0.500       N(1)  =     2000
   RHO(2)=  100.500       N(2)  =     4000



--------------------------------------------------------------------------------------------------------


 ion  position               nearest neighbor table
   1  0.464  0.363  0.539-   3 2.27   4 2.37
   2  0.527  0.524  0.455-   5 2.27   4 2.30   3 2.32   6 2.56
   3  0.473  0.476  0.545-   1 2.27   6 2.30   2 2.32   4 2.57
   4  0.519  0.410  0.445-   2 2.30   1 2.37   3 2.57
   5  0.536  0.637  0.461-   2 2.27   6 2.37
   6  0.481  0.590  0.555-   3 2.30   5 2.37   2 2.56

  LATTYP: Found a simple cubic cell.
 ALAT       =    20.0000000000
  
  Lattice vectors:
  
 A1 = (  20.0000000000,   0.0000000000,   0.0000000000)
 A2 = (   0.0000000000,  20.0000000000,   0.0000000000)
 A3 = (   0.0000000000,   0.0000000000,  20.0000000000)


Analysis of symmetry for initial positions (statically):
=====================================================================
 Subroutine PRICEL returns:
 Original cell was already a primitive cell.
 

 Routine SETGRP: Setting up the symmetry group for a 
 simple cubic supercell.


 Subroutine GETGRP returns: Found  1 space group operations
 (whereof  1 operations were pure point group operations)
 out of a pool of 48 trial point group operations.


The static configuration has the point symmetry C_1 .


Analysis of symmetry for dynamics (positions and initial velocities):
=====================================================================
 Subroutine PRICEL returns:
 Original cell was already a primitive cell.
 

 Routine SETGRP: Setting up the symmetry group for a 
 simple cubic supercell.


 Subroutine GETGRP returns: Found  1 space group operations
 (whereof  1 operations were pure point group operations)
 out of a pool of 48 trial point group operations.


The dynamic configuration has the point symmetry C_1 .


 Subroutine INISYM returns: Found  1 space group operations
 (whereof  1 operations are pure point group operations),
 and found     1 'primitive' translations


----------------------------------------------------------------------------------------

                                     Primitive cell                                     

  volume of cell :    8000.0000

  direct lattice vectors                    reciprocal lattice vectors
    20.000000000  0.000000000  0.000000000     0.050000000  0.000000000  0.000000000
     0.000000000 20.000000000  0.000000000     0.000000000  0.050000000  0.000000000
     0.000000000  0.000000000 20.000000000     0.000000000  0.000000000  0.050000000

  length of vectors
    20.000000000 20.000000000 20.000000000     0.050000000  0.050000000  0.050000000

  position of ions in fractional coordinates (direct lattice)
     0.463861605  0.362943860  0.539041434
     0.526807433  0.524354844  0.454638303
     0.473147078  0.475674870  0.545437132
     0.519029009  0.410065366  0.445228241
     0.536124165  0.637077440  0.460911059
     0.480962396  0.589964968  0.554753541

  ion indices of the primitive-cell ions
   primitive index   ion index
                 1           1
                 2           2
                 3           3
                 4           4
                 5           5
                 6           6

----------------------------------------------------------------------------------------



 KPOINTS: KPOINTS created by Atomic Simulation Env

Automatic generation of k-mesh.
 Grid dimensions read from file:
 generate k-points for:    1    1    1

 Generating k-lattice:

  Cartesian coordinates                     Fractional coordinates (reciprocal lattice)
     0.050000000  0.000000000  0.000000000     1.000000000  0.000000000  0.000000000
     0.000000000  0.050000000  0.000000000     0.000000000  1.000000000  0.000000000
     0.000000000  0.000000000  0.050000000     0.000000000  0.000000000  1.000000000

  Length of vectors
     0.050000000  0.050000000  0.050000000

  Shift w.r.t. Gamma in fractional coordinates (k-lattice)
     0.000000000  0.000000000  0.000000000

 
 Subroutine IBZKPT returns following result:
 ===========================================
 
 Found      1 irreducible k-points:
 
 Following reciprocal coordinates:
            Coordinates               Weight
  0.000000  0.000000  0.000000      1.000000
 
 Following cartesian coordinates:
            Coordinates               Weight
  0.000000  0.000000  0.000000      1.000000
 


--------------------------------------------------------------------------------------------------------




 Dimension of arrays:
   k-points           NKPTS =      1   k-points in BZ     NKDIM =      1   number of bands    NBANDS=     96
   number of dos      NEDOS =    301   number of ions     NIONS =      6
   non local maximal  LDIM  =      6   non local SUM 2l+1 LMDIM =     18
   total plane-waves  NPLWV = ******
   max r-space proj   IRMAX =   6426   max aug-charges    IRDMAX=  12418
   dimension x,y,z NGX =   150 NGY =  150 NGZ =  150
   dimension x,y,z NGXF=   300 NGYF=  300 NGZF=  300
   support grid    NGXF=   300 NGYF=  300 NGZF=  300
   ions per type =               6
   NGX,Y,Z   is equivalent  to a cutoff of  12.47, 12.47, 12.47 a.u.
   NGXF,Y,Z  is equivalent  to a cutoff of  24.94, 24.94, 24.94 a.u.

 SYSTEM =  MgO-rocksalt                            
 POSCAR =  Cu                                      

 Startparameter for this run:
   NWRITE =      2    write-flag & timer
   PREC   = accura    normal or accurate (medium, high low for compatibility)
   ISTART =      0    job   : 0-new  1-cont  2-samecut
   ICHARG =      2    charge: 1-file 2-atom 10-const
   ISPIN  =      1    spin polarized calculation?
   LNONCOLLINEAR =      F non collinear calculations
   LSORBIT =      F    spin-orbit coupling
   INIWAV =      1    electr: 0-lowe 1-rand  2-diag
   LASPH  =      T    aspherical Exc in radial PAW
 Electronic Relaxation 1
   ENCUT  =  520.0 eV  38.22 Ry    6.18 a.u.  37.19 37.19 37.19*2*pi/ulx,y,z
   ENINI  =  520.0     initial cutoff
   ENAUG  =  587.0 eV  augmentation charge cutoff
   NELM   =    200;   NELMIN=  8; NELMDL= -5     # of ELM steps 
   EDIFF  = 0.1E-05   stopping-criterion for ELM
   LREAL  =      T    real-space projection
   NLSPLINE    = F    spline interpolate recip. space projectors
   LCOMPAT=      F    compatible to vasp.4.4
   GGA_COMPAT  = T    GGA compatible to vasp.4.4-vasp.4.6
   LMAXPAW     = -100 max onsite density
   LMAXMIX     =    2 max onsite mixed and CHGCAR
   VOSKOWN=      0    Vosko Wilk Nusair interpolation
   ROPT   =   -0.00025
 Ionic relaxation
   EDIFFG = 0.1E-04   stopping-criterion for IOM
   NSW    =      0    number of steps for IOM
   NBLOCK =      1;   KBLOCK =      1    inner block; outer block 
   IBRION =     -1    ionic relax: 0-MD 1-quasi-New 2-CG
   NFREE  =      0    steps in history (QN), initial steepest desc. (CG)
   ISIF   =      2    stress and relaxation
   IWAVPR =     10    prediction:  0-non 1-charg 2-wave 3-comb
   ISYM   =      2    0-nonsym 1-usesym 2-fastsym
   LCORR  =      T    Harris-Foulkes like correction to forces

   POTIM  = 0.5000    time-step for ionic-motion
   TEIN   =    0.0    initial temperature
   TEBEG  =    0.0;   TEEND  =   0.0 temperature during run
   SMASS  =  -3.00    Nose mass-parameter (am)
   estimated Nose-frequenzy (Omega)   =  0.10E-29 period in steps = 0.13E+47 mass=  -0.914E-26a.u.
   SCALEE = 1.0000    scale energy and forces
   NPACO  =    256;   APACO  = 10.0  distance and # of slots for P.C.
   PSTRESS=    0.0 pullay stress

  Mass of Ions in am
   POMASS =  63.55
  Ionic Valenz
   ZVAL   =  11.00
  Atomic Wigner-Seitz radii
   RWIGS  =  -1.00
  virtual crystal weights 
   VCA    =   1.00
   NELECT =      66.0000    total number of electrons
   NUPDOWN=      -1.0000    fix difference up-down

 DOS related values:
   EMIN   =  10.00;   EMAX   =-10.00  energy-range for DOS
   EFERMI =   0.00
   ISMEAR =     0;   SIGMA  =   0.05  broadening in eV -4-tet -1-fermi 0-gaus

 Electronic relaxation 2 (details)
   IALGO  =     58    algorithm
   LDIAG  =      T    sub-space diagonalisation (order eigenvalues)
   LSUBROT=      F    optimize rotation matrix (better conditioning)
   TURBO    =      0    0=normal 1=particle mesh
   IRESTART =      0    0=no restart 2=restart with 2 vectors
   NREBOOT  =      0    no. of reboots
   NMIN     =      0    reboot dimension
   EREF     =   0.00    reference energy to select bands
   IMIX   =      4    mixing-type and parameters
     AMIX     =   0.40;   BMIX     =  1.00
     AMIX_MAG =   1.60;   BMIX_MAG =  1.00
     AMIN     =   0.10
     WC   =   100.;   INIMIX=   1;  MIXPRE=   1;  MAXMIX= -45

 Intra band minimization:
   WEIMIN = 0.0000     energy-eigenvalue tresh-hold
   EBREAK =  0.26E-08  absolut break condition
   DEPER  =   0.30     relativ break condition  

   TIME   =   0.40     timestep for ELM

  volume/ion in A,a.u.               =    1333.33      8997.78
  Fermi-wavevector in a.u.,A,eV,Ry     =   0.330795  0.625113  1.488826  0.109426
  Thomas-Fermi vector in A             =   1.226404

 Write flags
   LWAVE        =      F    write WAVECAR
   LDOWNSAMPLE  =      F    k-point downsampling of WAVECAR
   LCHARG       =      F    write CHGCAR
   LVTOT        =      F    write LOCPOT, total local potential
   LVHAR        =      F    write LOCPOT, Hartree potential only
   LELF         =      F    write electronic localiz. function (ELF)
   LORBIT       =      0    0 simple, 1 ext, 2 COOP (PROOUT), +10 PAW based schemes


 Dipole corrections
   LMONO  =      F    monopole corrections only (constant potential shift)
   LDIPOL =      F    correct potential (dipole corrections)
   IDIPOL =      0    1-x, 2-y, 3-z, 4-all directions 
   EPSILON=  1.0000000 bulk dielectric constant

 Exchange correlation treatment:
   GGA     =    --    GGA type
   LEXCH   =     8    internal setting for exchange type
   LIBXC   =     F    Libxc                    
   VOSKOWN =     0    Vosko Wilk Nusair interpolation
   LHFCALC =     F    Hartree Fock is set to
   LHFONE  =     F    Hartree Fock one center treatment
   AEXX    =    0.0000 exact exchange contribution

 Linear response parameters
   LEPSILON=     F    determine dielectric tensor
   LRPA    =     F    only Hartree local field effects (RPA)
   LNABLA  =     F    use nabla operator in PAW spheres
   LVEL    =     F    velocity operator in full k-point grid
   CSHIFT  =0.1000    complex shift for real part using Kramers Kronig
   OMEGAMAX=  -1.0    maximum frequency
   DEG_THRESHOLD= 0.2000000E-02 threshold for treating states as degnerate
   RTIME   =   -0.100 relaxation time in fs
  (WPLASMAI=    0.000 imaginary part of plasma frequency in eV, 0.658/RTIME)
   DFIELD  = 0.0000000 0.0000000 0.0000000 field for delta impulse in time

  Optional k-point grid parameters
   LKPOINTS_OPT  =     F    use optional k-point grid
   KPOINTS_OPT_MODE=     1    mode for optional k-point grid

 Orbital magnetization related:
   ORBITALMAG=     F  switch on orbital magnetization
   LCHIMAG   =     F  perturbation theory with respect to B field
   DQ        =  0.001000  dq finite difference perturbation B field
   LLRAUG    =     F  two centre corrections for induced B field



--------------------------------------------------------------------------------------------------------


 Static calculation
 charge density and potential will be updated during run
 non-spin polarized calculation
 Conjugate gradient for all bands (Freysoldt, et al. PRB 79, 241103 (2009))
 preconditioned conjugated gradient                                        
 perform sub-space diagonalisation
    before iterative eigenvector-optimisation
 modified Broyden-mixing scheme, WC =      100.0
 initial mixing is a Kerker type mixing with AMIX =  0.4000 and BMIX =      1.0000
 Hartree-type preconditioning will be used
 using additional bands           63
 real space projection scheme for non local part
 use partial core corrections
 no Harris-corrections to forces 
 use gradient corrections 
 use of overlap-Matrix (Vanderbilt PP)
 Gauss-broadening in eV      SIGMA  =   0.05


--------------------------------------------------------------------------------------------------------


  energy-cutoff  :      520.00
  volume of cell :     8000.00
      direct lattice vectors                 reciprocal lattice vectors
    20.000000000  0.000000000  0.000000000     0.050000000  0.000000000  0.000000000
     0.000000000 20.000000000  0.000000000     0.000000000  0.050000000  0.000000000
     0.000000000  0.000000000 20.000000000     0.000000000  0.000000000  0.050000000

  length of vectors
    20.000000000 20.000000000 20.000000000     0.050000000  0.050000000  0.050000000



 k-points in units of 2pi/SCALE and weight: KPOINTS created by Atomic Simulation Env
   0.00000000  0.00000000  0.00000000       1.000

 k-points in reciprocal lattice and weights: KPOINTS created by Atomic Simulation Env
   0.00000000  0.00000000  0.00000000       1.000

 position of ions in fractional coordinates (direct lattice) 
   0.46386160  0.36294386  0.53904143
   0.52680743  0.52435484  0.45463830
   0.47314708  0.47567487  0.54543713
   0.51902901  0.41006537  0.44522824
   0.53612417  0.63707744  0.46091106
   0.48096240  0.58996497  0.55475354

 position of ions in cartesian coordinates  (Angst):
   9.27723209  7.25887721 10.78082867
  10.53614866 10.48709687  9.09276606
   9.46294156  9.51349741 10.90874263
  10.38058017  8.20130731  8.90456482
  10.72248330 12.74154879  9.21822118
   9.61924792 11.79929936 11.09507083



--------------------------------------------------------------------------------------------------------


 k-point   1 :   0.0000 0.0000 0.0000  plane waves:  215503

 maximum and minimum number of plane-waves per node :     53900    53857

 maximum number of plane-waves:    215503
 maximum index in each direction: 
   IXMAX=   37   IYMAX=   37   IZMAX=   37
   IXMIN=  -37   IYMIN=  -37   IZMIN=  -37


 real space projection operators:
  total allocation   :       5227.45 KBytes
  max/ min on nodes  :       1307.53       1305.56


 parallel 3D FFT for wavefunctions:
    minimum data exchange during FFTs selected (reduces bandwidth)
 parallel 3D FFT for charge:
    minimum data exchange during FFTs selected (reduces bandwidth)


 total amount of memory used by VASP MPI-rank0   129951. kBytes
=======================================================================

   base      :      30000. kBytes
   nonlr-proj:       2260. kBytes
   fftplans  :      28354. kBytes
   grid      :      66714. kBytes
   one-center:         31. kBytes
   wavefun   :       2592. kBytes

     INWAV:  cpu time      0.0001: real time      0.0001
 Broyden mixing: mesh for mixing (old mesh)
   NGX = 75   NGY = 75   NGZ = 75
  (NGX  =300   NGY  =300   NGZ  =300)
  gives a total of 421875 points

 initial charge density was supplied:
 charge density of overlapping atoms calculated
 number of electron      66.0000000 magnetization 
 keeping initial charge density in first step


--------------------------------------------------------------------------------------------------------


 Maximum index for non-local projection operator         1572
 Maximum index for augmentation-charges            0 (set IRDMAX)


--------------------------------------------------------------------------------------------------------


 First call to EWALD:  gamma=   0.089
 Maximum number of real-space cells 3x 3x 3
 Maximum number of reciprocal cells 3x 3x 3

    FEWALD:  cpu time      0.0012: real time      0.0012


--------------------------------------- Iteration      1(   1)  ---------------------------------------


    POTLOK:  cpu time      0.3122: real time      0.3124
    SETDIJ:  cpu time      0.6343: real time      0.6344
    TRIAL :  cpu time      1.2927: real time      1.2930
    CORREC:  cpu time      0.0020: real time      0.0020
    --------------------------------------------
      LOOP:  cpu time      2.2424: real time      2.2431

 eigenvalue-minimisations  :   192
 total energy-change (2. order) : 0.3510818E+03  (-0.1510490E+04)
 number of electron      66.0000000 magnetization 
 augmentation part       66.0000000 magnetization 

 Free energy of the ion-electron system (eV)
  ---------------------------------------------------
  alpha Z        PSCENC =         3.29097617
  Ewald energy   TEWEN  =      4635.36272728
  -Hartree energ DENC   =    -12246.59109509
  -exchange      EXHF   =         0.00000000
  -V(xc)+E(xc)   XCENC  =       327.74158049
  PAW double counting   =      7306.04296485    -8005.70703098
  entropy T*S    EENTRO =        -0.10232217
  eigenvalues    EBANDS =       -14.81828910
  atomic energy  EATOM  =      8345.86232397
  ---------------------------------------------------
  free energy    TOTEN  =       351.08183541 eV

  energy without entropy =      351.18415758  energy(sigma->0) =      351.13299649


--------------------------------------------------------------------------------------------------------




--------------------------------------- Iteration      1(   2)  ---------------------------------------


    TRIAL :  cpu time      1.2575: real time      1.2576
    CORREC:  cpu time      0.0008: real time      0.0008
    --------------------------------------------
      LOOP:  cpu time      1.2609: real time      1.2655

 eigenvalue-minimisations  :   192
 total energy-change (2. order) :-0.4092589E+03  (-0.4082028E+03)
 number of electron      66.0000000 magnetization 
 augmentation part       66.0000000 magnetization 

 Free energy of the ion-electron system (eV)
  ---------------------------------------------------
  alpha Z        PSCENC =         3.29097617
  Ewald energy   TEWEN  =      4635.36272728
  -Hartree energ DENC   =    -12246.59109509
  -exchange      EXHF   =         0.00000000
  -V(xc)+E(xc)   XCENC  =       327.74158049
  PAW double counting   =      7306.04296485    -8005.70703098
  entropy T*S    EENTRO =        -0.00000000
  eigenvalues    EBANDS =      -424.17953056
  atomic energy  EATOM  =      8345.86232397
  ---------------------------------------------------
  free energy    TOTEN  =       -58.17708388 eV

  energy without entropy =      -58.17708388  energy(sigma->0) =      -58.17708388


--------------------------------------------------------------------------------------------------------




--------------------------------------- Iteration      1(   3)  ---------------------------------------


    TRIAL :  cpu time      1.2664: real time      1.2665
    CORREC:  cpu time      0.0005: real time      0.0005
    --------------------------------------------
      LOOP:  cpu time      1.2692: real time      1.2740

 eigenvalue-minimisations  :   192
 total energy-change (2. order) :-0.8703683E+01  (-0.8703683E+01)
 number of electron      66.0000000 magnetization 
 augmentation part       66.0000000 magnetization 

 Free energy of the ion-electron system (eV)
  ---------------------------------------------------
  alpha Z        PSCENC =         3.29097617
  Ewald energy   TEWEN  =      4635.36272728
  -Hartree energ DENC   =    -12246.59109509
  -exchange      EXHF   =         0.00000000
  -V(xc)+E(xc)   XCENC  =       327.74158049
  PAW double counting   =      7306.04296485    -8005.70703098
  entropy T*S    EENTRO =        -0.00000000
  eigenvalues    EBANDS =      -432.88321360
  atomic energy  EATOM  =      8345.86232397
  ---------------------------------------------------
  free energy    TOTEN  =       -66.88076692 eV

  energy without entropy =      -66.88076692  energy(sigma->0) =      -66.88076692


--------------------------------------------------------------------------------------------------------




--------------------------------------- Iteration      1(   4)  ---------------------------------------


    TRIAL :  cpu time      2.9442: real time      2.9444
    CORREC:  cpu time      0.0003: real time      0.0003
    --------------------------------------------
      LOOP:  cpu time      2.9513: real time      2.9518

 eigenvalue-minimisations  :   384
 total energy-change (2. order) :-0.1659677E+00  (-0.1659677E+00)
 number of electron      66.0000000 magnetization 
 augmentation part       66.0000000 magnetization 

 Free energy of the ion-electron system (eV)
  ---------------------------------------------------
  alpha Z        PSCENC =         3.29097617
  Ewald energy   TEWEN  =      4635.36272728
  -Hartree energ DENC   =    -12246.59109509
  -exchange      EXHF   =         0.00000000
  -V(xc)+E(xc)   XCENC  =       327.74158049
  PAW double counting   =      7306.04296485    -8005.70703098
  entropy T*S    EENTRO =        -0.00000000
  eigenvalues    EBANDS =      -433.04918132
  atomic energy  EATOM  =      8345.86232397
  ---------------------------------------------------
  free energy    TOTEN  =       -67.04673464 eV

  energy without entropy =      -67.04673464  energy(sigma->0) =      -67.04673464


--------------------------------------------------------------------------------------------------------




--------------------------------------- Iteration      1(   5)  ---------------------------------------


    TRIAL :  cpu time      1.2636: real time      1.2637
    CORREC:  cpu time      0.0004: real time      0.0004
    CHARGE:  cpu time      0.2562: real time      0.2565
    --------------------------------------------
      LOOP:  cpu time      1.5230: real time      1.5279

 eigenvalue-minimisations  :   192
 total energy-change (2. order) :-0.2221112E-04  (-0.2221077E-04)
 number of electron      66.0000014 magnetization 
 augmentation part       40.5864487 magnetization 

 Free energy of the ion-electron system (eV)
  ---------------------------------------------------
  alpha Z        PSCENC =         3.29097617
  Ewald energy   TEWEN  =      4635.36272728
  -Hartree energ DENC   =    -12246.59109509
  -exchange      EXHF   =         0.00000000
  -V(xc)+E(xc)   XCENC  =       327.74158049
  PAW double counting   =      7306.04296485    -8005.70703098
  entropy T*S    EENTRO =        -0.00000000
  eigenvalues    EBANDS =      -433.04920353
  atomic energy  EATOM  =      8345.86232397
  ---------------------------------------------------
  free energy    TOTEN  =       -67.04675685 eV

  energy without entropy =      -67.04675685  energy(sigma->0) =      -67.04675685


--------------------------------------------------------------------------------------------------------




--------------------------------------- Iteration      1(   6)  ---------------------------------------


    POTLOK:  cpu time      0.3009: real time      0.3010
    SETDIJ:  cpu time      0.6235: real time      0.6235
    TRIAL :  cpu time      2.1102: real time      2.1104
    CORREC:  cpu time      1.4529: real time      1.4530
    CHARGE:  cpu time      0.2472: real time      0.2472
    --------------------------------------------
      LOOP:  cpu time      4.7382: real time      4.7438

 eigenvalue-minimisations  :     0
 total energy-change (2. order) : 0.2345369E+02  (-0.8464069E+01)
 number of electron      66.0000015 magnetization 
 augmentation part       42.5895440 magnetization 

 Free energy of the ion-electron system (eV)
  ---------------------------------------------------
  alpha Z        PSCENC =         3.29097617
  Ewald energy   TEWEN  =      4635.36272728
  -Hartree energ DENC   =    -12050.39196013
  -exchange      EXHF   =         0.00000000
  -V(xc)+E(xc)   XCENC  =       317.24674041
  PAW double counting   =      7668.80378869    -8318.77252820
  entropy T*S    EENTRO =        -0.00000000
  eigenvalues    EBANDS =      -644.99513258
  atomic energy  EATOM  =      8345.86232397
  ---------------------------------------------------
  free energy    TOTEN  =       -43.59306440 eV

  energy without entropy =      -43.59306440  energy(sigma->0) =      -43.59306440


--------------------------------------------------------------------------------------------------------




--------------------------------------- Iteration      1(   7)  ---------------------------------------


    POTLOK:  cpu time      0.2865: real time      0.2865
    SETDIJ:  cpu time      0.6362: real time      0.6362
    TRIAL :  cpu time      0.9743: real time      0.9744
    CORREC:  cpu time      1.4460: real time      1.4461
    CHARGE:  cpu time      0.2474: real time      0.2474
    --------------------------------------------
      LOOP:  cpu time      3.6011: real time      3.6015

 eigenvalue-minimisations  :     0
 total energy-change (2. order) :-0.7589524E+01  (-0.8593477E+00)
 number of electron      66.0000015 magnetization 
 augmentation part       42.2753955 magnetization 

 Free energy of the ion-electron system (eV)
  ---------------------------------------------------
  alpha Z        PSCENC =         3.29097617
  Ewald energy   TEWEN  =      4635.36272728
  -Hartree energ DENC   =    -12297.00314567
  -exchange      EXHF   =         0.00000000
  -V(xc)+E(xc)   XCENC  =       328.40712854
  PAW double counting   =      7799.36477053    -8522.90069878
  entropy T*S    EENTRO =        -0.00000000
  eigenvalues    EBANDS =      -343.56666994
  atomic energy  EATOM  =      8345.86232397
  ---------------------------------------------------
  free energy    TOTEN  =       -51.18258790 eV

  energy without entropy =      -51.18258790  energy(sigma->0) =      -51.18258790


--------------------------------------------------------------------------------------------------------




--------------------------------------- Iteration      1(   8)  ---------------------------------------


    POTLOK:  cpu time      0.2913: real time      0.2913
    SETDIJ:  cpu time      0.6324: real time      0.6324
    TRIAL :  cpu time      0.9696: real time      0.9702
    CORREC:  cpu time      1.4474: real time      1.4475
    CHARGE:  cpu time      0.2483: real time      0.2483
    --------------------------------------------
      LOOP:  cpu time      3.5996: real time      3.6008

 eigenvalue-minimisations  :     0
 total energy-change (2. order) :-0.8571713E+00  (-0.3251241E+00)
 number of electron      66.0000016 magnetization 
 augmentation part       42.6441301 magnetization 

 Free energy of the ion-electron system (eV)
  ---------------------------------------------------
  alpha Z        PSCENC =         3.29097617
  Ewald energy   TEWEN  =      4635.36272728
  -Hartree energ DENC   =    -12215.36670742
  -exchange      EXHF   =         0.00000000
  -V(xc)+E(xc)   XCENC  =       326.23874915
  PAW double counting   =      7755.47589267    -8462.42445374
  entropy T*S    EENTRO =        -0.00000007
  eigenvalues    EBANDS =      -440.47926722
  atomic energy  EATOM  =      8345.86232397
  ---------------------------------------------------
  free energy    TOTEN  =       -52.03975915 eV

  energy without entropy =      -52.03975908  energy(sigma->0) =      -52.03975912


--------------------------------------------------------------------------------------------------------




--------------------------------------- Iteration      1(   9)  ---------------------------------------


    POTLOK:  cpu time      0.2922: real time      0.2922
    SETDIJ:  cpu time      0.6270: real time      0.6270
    TRIAL :  cpu time      0.9701: real time      0.9702
    CORREC:  cpu time      1.4469: real time      1.4469
    CHARGE:  cpu time      0.2496: real time      0.2496
    --------------------------------------------
      LOOP:  cpu time      3.5943: real time      3.5982

 eigenvalue-minimisations  :     0
 total energy-change (2. order) :-0.3189245E+00  (-0.1780172E+00)
 number of electron      66.0000016 magnetization 
 augmentation part       42.5360503 magnetization 

 Free energy of the ion-electron system (eV)
  ---------------------------------------------------
  alpha Z        PSCENC =         3.29097617
  Ewald energy   TEWEN  =      4635.36272728
  -Hartree energ DENC   =    -12252.93266128
  -exchange      EXHF   =         0.00000000
  -V(xc)+E(xc)   XCENC  =       328.33687578
  PAW double counting   =      7779.37651181    -8497.64202961
  entropy T*S    EENTRO =        -0.00000028
  eigenvalues    EBANDS =      -394.01340768
  atomic energy  EATOM  =      8345.86232397
  ---------------------------------------------------
  free energy    TOTEN  =       -52.35868364 eV

  energy without entropy =      -52.35868336  energy(sigma->0) =      -52.35868350


--------------------------------------------------------------------------------------------------------




--------------------------------------- Iteration      1(  10)  ---------------------------------------


    POTLOK:  cpu time      0.2927: real time      0.2928
    SETDIJ:  cpu time      0.6277: real time      0.6278
    TRIAL :  cpu time      0.9718: real time      0.9719
    CORREC:  cpu time      1.4442: real time      1.4443
    CHARGE:  cpu time      0.2499: real time      0.2499
    --------------------------------------------
      LOOP:  cpu time      3.5973: real time      3.5977

 eigenvalue-minimisations  :     0
 total energy-change (2. order) :-0.1787871E+00  (-0.4804119E-01)
 number of electron      66.0000016 magnetization 
 augmentation part       42.6803768 magnetization 

 Free energy of the ion-electron system (eV)
  ---------------------------------------------------
  alpha Z        PSCENC =         3.29097617
  Ewald energy   TEWEN  =      4635.36272728
  -Hartree energ DENC   =    -12244.45170841
  -exchange      EXHF   =         0.00000000
  -V(xc)+E(xc)   XCENC  =       327.84327931
  PAW double counting   =      7777.53156084    -8488.45848798
  entropy T*S    EENTRO =        -0.00000033
  eigenvalues    EBANDS =      -409.51814162
  atomic energy  EATOM  =      8345.86232397
  ---------------------------------------------------
  free energy    TOTEN  =       -52.53747073 eV

  energy without entropy =      -52.53747040  energy(sigma->0) =      -52.53747056


--------------------------------------------------------------------------------------------------------




--------------------------------------- Iteration      1(  11)  ---------------------------------------


    POTLOK:  cpu time      0.2874: real time      0.2874
    SETDIJ:  cpu time      0.6295: real time      0.6295
    TRIAL :  cpu time      0.9702: real time      0.9703
    CORREC:  cpu time      1.4479: real time      1.4480
    CHARGE:  cpu time      0.2498: real time      0.2498
    --------------------------------------------
      LOOP:  cpu time      3.5919: real time      3.5956

 eigenvalue-minimisations  :     0
 total energy-change (2. order) :-0.4763004E-01  (-0.3098077E-01)
 number of electron      66.0000016 magnetization 
 augmentation part       42.6316470 magnetization 

 Free energy of the ion-electron system (eV)
  ---------------------------------------------------
  alpha Z        PSCENC =         3.29097617
  Ewald energy   TEWEN  =      4635.36272728
  -Hartree energ DENC   =    -12264.94912141
  -exchange      EXHF   =         0.00000000
  -V(xc)+E(xc)   XCENC  =       328.68652696
  PAW double counting   =      7787.08331372    -8502.34309923
  entropy T*S    EENTRO =        -0.00000029
  eigenvalues    EBANDS =      -385.57874789
  atomic energy  EATOM  =      8345.86232397
  ---------------------------------------------------
  free energy    TOTEN  =       -52.58510077 eV

  energy without entropy =      -52.58510048  energy(sigma->0) =      -52.58510063


--------------------------------------------------------------------------------------------------------




--------------------------------------- Iteration      1(  12)  ---------------------------------------


    POTLOK:  cpu time      0.2876: real time      0.2876
    SETDIJ:  cpu time      0.6330: real time      0.6330
    TRIAL :  cpu time      0.9700: real time      0.9700
    CORREC:  cpu time      1.4522: real time      1.4522
    CHARGE:  cpu time      0.2484: real time      0.2485
    --------------------------------------------
      LOOP:  cpu time      3.5968: real time      3.6021

 eigenvalue-minimisations  :     0
 total energy-change (2. order) :-0.3095817E-01  (-0.6724114E-02)
 number of electron      66.0000016 magnetization 
 augmentation part       42.6764639 magnetization 

 Free energy of the ion-electron system (eV)
  ---------------------------------------------------
  alpha Z        PSCENC =         3.29097617
  Ewald energy   TEWEN  =      4635.36272728
  -Hartree energ DENC   =    -12255.49711555
  -exchange      EXHF   =         0.00000000
  -V(xc)+E(xc)   XCENC  =       328.31309893
  PAW double counting   =      7777.05968679    -8489.35981590
  entropy T*S    EENTRO =        -0.00000027
  eigenvalues    EBANDS =      -397.64794034
  atomic energy  EATOM  =      8345.86232397
  ---------------------------------------------------
  free energy    TOTEN  =       -52.61605895 eV

  energy without entropy =      -52.61605868  energy(sigma->0) =      -52.61605881


--------------------------------------------------------------------------------------------------------




--------------------------------------- Iteration      1(  13)  ---------------------------------------


    POTLOK:  cpu time      0.2953: real time      0.2953
    SETDIJ:  cpu time      0.6239: real time      0.6239
    TRIAL :  cpu time      0.9716: real time      0.9717
    CORREC:  cpu time      1.4446: real time      1.4447
    CHARGE:  cpu time      0.2497: real time      0.2503
    --------------------------------------------
      LOOP:  cpu time      3.5960: real time      3.5970

 eigenvalue-minimisations  :     0
 total energy-change (2. order) :-0.6725182E-02  (-0.4442947E-02)
 number of electron      66.0000016 magnetization 
 augmentation part       42.6645677 magnetization 

 Free energy of the ion-electron system (eV)
  ---------------------------------------------------
  alpha Z        PSCENC =         3.29097617
  Ewald energy   TEWEN  =      4635.36272728
  -Hartree energ DENC   =    -12260.11529744
  -exchange      EXHF   =         0.00000000
  -V(xc)+E(xc)   XCENC  =       328.53632091
  PAW double counting   =      7778.48573431    -8492.30030110
  entropy T*S    EENTRO =        -0.00000022
  eigenvalues    EBANDS =      -391.74526796
  atomic energy  EATOM  =      8345.86232397
  ---------------------------------------------------
  free energy    TOTEN  =       -52.62278413 eV

  energy without entropy =      -52.62278391  energy(sigma->0) =      -52.62278402


--------------------------------------------------------------------------------------------------------




--------------------------------------- Iteration      1(  14)  ---------------------------------------


    POTLOK:  cpu time      0.2917: real time      0.2917
    SETDIJ:  cpu time      0.6255: real time      0.6255
    TRIAL :  cpu time      0.9705: real time      0.9706
    CORREC:  cpu time      1.4445: real time      1.4446
    CHARGE:  cpu time      0.2478: real time      0.2478
    --------------------------------------------
      LOOP:  cpu time      3.5880: real time      3.5912

 eigenvalue-minimisations  :     0
 total energy-change (2. order) :-0.4431723E-02  (-0.7340781E-03)
 number of electron      66.0000016 magnetization 
 augmentation part       42.6656943 magnetization 

 Free energy of the ion-electron system (eV)
  ---------------------------------------------------
  alpha Z        PSCENC =         3.29097617
  Ewald energy   TEWEN  =      4635.36272728
  -Hartree energ DENC   =    -12257.28098120
  -exchange      EXHF   =         0.00000000
  -V(xc)+E(xc)   XCENC  =       328.42571253
  PAW double counting   =      7776.37744616    -8489.61252058
  entropy T*S    EENTRO =        -0.00000020
  eigenvalues    EBANDS =      -395.05289997
  atomic energy  EATOM  =      8345.86232397
  ---------------------------------------------------
  free energy    TOTEN  =       -52.62721585 eV

  energy without entropy =      -52.62721565  energy(sigma->0) =      -52.62721575


--------------------------------------------------------------------------------------------------------




--------------------------------------- Iteration      1(  15)  ---------------------------------------


    POTLOK:  cpu time      0.2935: real time      0.2936
    SETDIJ:  cpu time      0.6291: real time      0.6291
    TRIAL :  cpu time      0.9710: real time      0.9711
    CORREC:  cpu time      1.4565: real time      1.4566
    CHARGE:  cpu time      0.2516: real time      0.2516
    --------------------------------------------
      LOOP:  cpu time      3.6083: real time      3.6134

 eigenvalue-minimisations  :     0
 total energy-change (2. order) :-0.7350481E-03  (-0.4977263E-03)
 number of electron      66.0000016 magnetization 
 augmentation part       42.6724523 magnetization 

 Free energy of the ion-electron system (eV)
  ---------------------------------------------------
  alpha Z        PSCENC =         3.29097617
  Ewald energy   TEWEN  =      4635.36272728
  -Hartree energ DENC   =    -12257.14032396
  -exchange      EXHF   =         0.00000000
  -V(xc)+E(xc)   XCENC  =       328.42648747
  PAW double counting   =      7776.67672914    -8489.93813892
  entropy T*S    EENTRO =        -0.00000015
  eigenvalues    EBANDS =      -395.16873184
  atomic energy  EATOM  =      8345.86232397
  ---------------------------------------------------
  free energy    TOTEN  =       -52.62795090 eV

  energy without entropy =      -52.62795075  energy(sigma->0) =      -52.62795082


--------------------------------------------------------------------------------------------------------




--------------------------------------- Iteration      1(  16)  ---------------------------------------


    POTLOK:  cpu time      0.2905: real time      0.2905
    SETDIJ:  cpu time      0.6298: real time      0.6299
    TRIAL :  cpu time      0.9695: real time      0.9696
    CORREC:  cpu time      1.4503: real time      1.4506
    CHARGE:  cpu time      0.2483: real time      0.2483
    --------------------------------------------
      LOOP:  cpu time      3.5940: real time      3.5985

 eigenvalue-minimisations  :     0
 total energy-change (2. order) :-0.4781906E-03  (-0.1873567E-03)
 number of electron      66.0000016 magnetization 
 augmentation part       42.6672870 magnetization 

 Free energy of the ion-electron system (eV)
  ---------------------------------------------------
  alpha Z        PSCENC =         3.29097617
  Ewald energy   TEWEN  =      4635.36272728
  -Hartree energ DENC   =    -12257.95422084
  -exchange      EXHF   =         0.00000000
  -V(xc)+E(xc)   XCENC  =       328.46345698
  PAW double counting   =      7778.20153366    -8491.68911412
  entropy T*S    EENTRO =        -0.00000013
  eigenvalues    EBANDS =      -394.16611204
  atomic energy  EATOM  =      8345.86232397
  ---------------------------------------------------
  free energy    TOTEN  =       -52.62842909 eV

  energy without entropy =      -52.62842896  energy(sigma->0) =      -52.62842903


--------------------------------------------------------------------------------------------------------




--------------------------------------- Iteration      1(  17)  ---------------------------------------


    POTLOK:  cpu time      0.2839: real time      0.2839
    SETDIJ:  cpu time      0.6369: real time      0.6370
    TRIAL :  cpu time      0.9702: real time      0.9705
    CORREC:  cpu time      1.4521: real time      1.4521
    CHARGE:  cpu time      0.2491: real time      0.2491
    --------------------------------------------
      LOOP:  cpu time      3.5977: real time      3.6033

 eigenvalue-minimisations  :     0
 total energy-change (2. order) :-0.1924419E-03  (-0.5983994E-04)
 number of electron      66.0000016 magnetization 
 augmentation part       42.6674930 magnetization 

 Free energy of the ion-electron system (eV)
  ---------------------------------------------------
  alpha Z        PSCENC =         3.29097617
  Ewald energy   TEWEN  =      4635.36272728
  -Hartree energ DENC   =    -12257.17228023
  -exchange      EXHF   =         0.00000000
  -V(xc)+E(xc)   XCENC  =       328.43212296
  PAW double counting   =      7778.44063024    -8491.71274558
  entropy T*S    EENTRO =        -0.00000012
  eigenvalues    EBANDS =      -395.13237621
  atomic energy  EATOM  =      8345.86232397
  ---------------------------------------------------
  free energy    TOTEN  =       -52.62862153 eV

  energy without entropy =      -52.62862141  energy(sigma->0) =      -52.62862147


--------------------------------------------------------------------------------------------------------




--------------------------------------- Iteration      1(  18)  ---------------------------------------


    POTLOK:  cpu time      0.2938: real time      0.2938
    SETDIJ:  cpu time      0.6306: real time      0.6306
    TRIAL :  cpu time      0.9727: real time      0.9727
    CORREC:  cpu time      1.4561: real time      1.4562
    CHARGE:  cpu time      0.2525: real time      0.2525
    --------------------------------------------
      LOOP:  cpu time      3.6163: real time      3.6167

 eigenvalue-minimisations  :     0
 total energy-change (2. order) :-0.5804236E-04  (-0.3583493E-04)
 number of electron      66.0000016 magnetization 
 augmentation part       42.6683765 magnetization 

 Free energy of the ion-electron system (eV)
  ---------------------------------------------------
  alpha Z        PSCENC =         3.29097617
  Ewald energy   TEWEN  =      4635.36272728
  -Hartree energ DENC   =    -12257.14049670
  -exchange      EXHF   =         0.00000000
  -V(xc)+E(xc)   XCENC  =       328.43285052
  PAW double counting   =      7778.89012662    -8492.16728283
  entropy T*S    EENTRO =        -0.00000011
  eigenvalues    EBANDS =      -395.15990448
  atomic energy  EATOM  =      8345.86232397
  ---------------------------------------------------
  free energy    TOTEN  =       -52.62867958 eV

  energy without entropy =      -52.62867947  energy(sigma->0) =      -52.62867952


--------------------------------------------------------------------------------------------------------




--------------------------------------- Iteration      1(  19)  ---------------------------------------


    POTLOK:  cpu time      0.2897: real time      0.2897
    SETDIJ:  cpu time      0.6341: real time      0.6342
    TRIAL :  cpu time      0.9726: real time      0.9726
    CORREC:  cpu time      1.4529: real time      1.4530
    CHARGE:  cpu time      0.2476: real time      0.2476
    --------------------------------------------
      LOOP:  cpu time      3.6027: real time      3.6069

 eigenvalue-minimisations  :     0
 total energy-change (2. order) :-0.3868184E-04  (-0.1545784E-04)
 number of electron      66.0000016 magnetization 
 augmentation part       42.6668974 magnetization 

 Free energy of the ion-electron system (eV)
  ---------------------------------------------------
  alpha Z        PSCENC =         3.29097617
  Ewald energy   TEWEN  =      4635.36272728
  -Hartree energ DENC   =    -12257.23959960
  -exchange      EXHF   =         0.00000000
  -V(xc)+E(xc)   XCENC  =       328.43707931
  PAW double counting   =      7779.31863027    -8492.62704614
  entropy T*S    EENTRO =        -0.00000011
  eigenvalues    EBANDS =      -395.03380940
  atomic energy  EATOM  =      8345.86232397
  ---------------------------------------------------
  free energy    TOTEN  =       -52.62871826 eV

  energy without entropy =      -52.62871815  energy(sigma->0) =      -52.62871821


--------------------------------------------------------------------------------------------------------




--------------------------------------- Iteration      1(  20)  ---------------------------------------


    POTLOK:  cpu time      0.2939: real time      0.2940
    SETDIJ:  cpu time      0.6264: real time      0.6264
    TRIAL :  cpu time      0.9705: real time      0.9705
    CORREC:  cpu time      1.4546: real time      1.4546
    CHARGE:  cpu time      0.2462: real time      0.2462
    --------------------------------------------
      LOOP:  cpu time      3.6041: real time      3.6070

 eigenvalue-minimisations  :     0
 total energy-change (2. order) :-0.1482785E-04  (-0.7368986E-05)
 number of electron      66.0000016 magnetization 
 augmentation part       42.6683245 magnetization 

 Free energy of the ion-electron system (eV)
  ---------------------------------------------------
  alpha Z        PSCENC =         3.29097617
  Ewald energy   TEWEN  =      4635.36272728
  -Hartree energ DENC   =    -12256.96622934
  -exchange      EXHF   =         0.00000000
  -V(xc)+E(xc)   XCENC  =       328.42704558
  PAW double counting   =      7779.41795353    -8492.67188092
  entropy T*S    EENTRO =        -0.00000010
  eigenvalues    EBANDS =      -395.35164925
  atomic energy  EATOM  =      8345.86232397
  ---------------------------------------------------
  free energy    TOTEN  =       -52.62873309 eV

  energy without entropy =      -52.62873298  energy(sigma->0) =      -52.62873303


--------------------------------------------------------------------------------------------------------




--------------------------------------- Iteration      1(  21)  ---------------------------------------


    POTLOK:  cpu time      0.2933: real time      0.2933
    SETDIJ:  cpu time      0.6313: real time      0.6313
    TRIAL :  cpu time      0.9700: real time      0.9701
    CORREC:  cpu time      1.4493: real time      1.4493
    CHARGE:  cpu time      0.2477: real time      0.2477
    --------------------------------------------
      LOOP:  cpu time      3.6022: real time      3.6029

 eigenvalue-minimisations  :     0
 total energy-change (2. order) :-0.7838100E-05  (-0.1924889E-05)
 number of electron      66.0000016 magnetization 
 augmentation part       42.6678590 magnetization 

 Free energy of the ion-electron system (eV)
  ---------------------------------------------------
  alpha Z        PSCENC =         3.29097617
  Ewald energy   TEWEN  =      4635.36272728
  -Hartree energ DENC   =    -12257.12494697
  -exchange      EXHF   =         0.00000000
  -V(xc)+E(xc)   XCENC  =       328.43460417
  PAW double counting   =      7779.61298842    -8492.92254511
  entropy T*S    EENTRO =        -0.00000010
  eigenvalues    EBANDS =      -395.14486874
  atomic energy  EATOM  =      8345.86232397
  ---------------------------------------------------
  free energy    TOTEN  =       -52.62874092 eV

  energy without entropy =      -52.62874082  energy(sigma->0) =      -52.62874087


--------------------------------------------------------------------------------------------------------




--------------------------------------- Iteration      1(  22)  ---------------------------------------


    POTLOK:  cpu time      0.2989: real time      0.2990
    SETDIJ:  cpu time      0.6197: real time      0.6197
    TRIAL :  cpu time      0.9768: real time      0.9768
    CORREC:  cpu time      1.4488: real time      1.4494
    CHARGE:  cpu time      0.2464: real time      0.2464
    --------------------------------------------
      LOOP:  cpu time      3.5963: real time      3.6010

 eigenvalue-minimisations  :     0
 total energy-change (2. order) :-0.1915516E-05  (-0.6501025E-06)
 number of electron      66.0000016 magnetization 
 augmentation part       42.6677596 magnetization 

 Free energy of the ion-electron system (eV)
  ---------------------------------------------------
  alpha Z        PSCENC =         3.29097617
  Ewald energy   TEWEN  =      4635.36272728
  -Hartree energ DENC   =    -12257.04134601
  -exchange      EXHF   =         0.00000000
  -V(xc)+E(xc)   XCENC  =       328.43146166
  PAW double counting   =      7779.59113559    -8492.88301304
  entropy T*S    EENTRO =        -0.00000010
  eigenvalues    EBANDS =      -395.24300834
  atomic energy  EATOM  =      8345.86232397
  ---------------------------------------------------
  free energy    TOTEN  =       -52.62874284 eV

  energy without entropy =      -52.62874274  energy(sigma->0) =      -52.62874279


--------------------------------------------------------------------------------------------------------




--------------------------------------- Iteration      1(  23)  ---------------------------------------


    POTLOK:  cpu time      0.2915: real time      0.2916
    SETDIJ:  cpu time      0.6301: real time      0.6301
    TRIAL :  cpu time      0.9704: real time      0.9705
    CORREC:  cpu time      1.4424: real time      1.4425
    EDDIAG:  cpu time      0.2692: real time      0.2692
    CHARGE:  cpu time      0.2453: real time      0.2453
    --------------------------------------------
      LOOP:  cpu time      3.8598: real time      3.8605

 eigenvalue-minimisations  :     0
 total energy-change (2. order) :-0.4155945E-06  (-0.5239309E-06)
 number of electron      66.0000016 magnetization 
 augmentation part       42.6680485 magnetization 

 Free energy of the ion-electron system (eV)
  ---------------------------------------------------
  alpha Z        PSCENC =         3.29097617
  Ewald energy   TEWEN  =      4635.36272728
  -Hartree energ DENC   =    -12257.02215775
  -exchange      EXHF   =         0.00000000
  -V(xc)+E(xc)   XCENC  =       328.43080894
  PAW double counting   =      7779.58149188    -8492.86953582
  entropy T*S    EENTRO =        -0.00000010
  eigenvalues    EBANDS =      -395.26537782
  atomic energy  EATOM  =      8345.86232397
  ---------------------------------------------------
  free energy    TOTEN  =       -52.62874326 eV

  energy without entropy =      -52.62874315  energy(sigma->0) =      -52.62874320


--------------------------------------------------------------------------------------------------------


  average scaling for gradient   1.4428


 average (electrostatic) potential at core
  the test charge radii are     0.9430
  (the norm of the test charge is              1.0000)
       1 -79.8113       2 -79.7582       3 -79.7576       4 -79.7570       5 -79.8103
       6 -79.7570



 E-fermi :  -4.0111     XC(G=0):  -0.2763     alpha+bet : -0.1189

 Fermi energy:        -4.0111096476

 k-point     1 :       0.0000    0.0000    0.0000
  band No.  band energies     occupation 
      1      -8.6904      2.00000
      2      -7.5802      2.00000
      3      -7.4170      2.00000
      4      -7.0970      2.00000
      5      -6.7857      2.00000
      6      -6.6788      2.00000
      7      -6.6047      2.00000
      8      -6.5045      2.00000
      9      -6.4763      2.00000
     10      -6.4230      2.00000
     11      -6.2184      2.00000
     12      -6.1665      2.00000
     13      -6.0728      2.00000
     14      -6.0131      2.00000
     15      -6.0012      2.00000
     16      -5.8457      2.00000
     17      -5.7890      2.00000
     18      -5.7374      2.00000
     19      -5.6946      2.00000
     20      -5.5710      2.00000
     21      -5.5650      2.00000
     22      -5.5217      2.00000
     23      -5.4884      2.00000
     24      -5.4613      2.00000
     25      -5.4408      2.00000
     26      -5.3468      2.00000
     27      -5.3217      2.00000
     28      -5.2458      2.00000
     29      -5.2302      2.00000
     30      -5.2046      2.00000
     31      -5.1518      2.00000
     32      -5.0675      2.00000
     33      -4.1950      2.00000
     34      -3.8318      0.00000
     35      -2.6626      0.00000
     36      -2.1111      0.00000
     37      -1.6476      0.00000
     38      -1.4109      0.00000
     39      -0.8013      0.00000
     40      -0.7427      0.00000
     41       0.0056      0.00000
     42       0.1870      0.00000
     43       0.1924      0.00000
     44       0.2870      0.00000
     45       0.4477      0.00000
     46       0.4729      0.00000
     47       0.4929      0.00000
     48       0.5277      0.00000
     49       0.5691      0.00000
     50       0.5839      0.00000
     51       0.7328      0.00000
     52       0.8023      0.00000
     53       0.8213      0.00000
     54       0.8290      0.00000
     55       0.8358      0.00000
     56       0.8653      0.00000
     57       0.8720      0.00000
     58       0.8874      0.00000
     59       0.9050      0.00000
     60       0.9128      0.00000
     61       0.9642      0.00000
     62       1.0279      0.00000
     63       1.0546      0.00000
     64       1.1949      0.00000
     65       1.2107      0.00000
     66       1.2284      0.00000
     67       1.2298      0.00000
     68       1.2530      0.00000
     69       1.2544      0.00000
     70       1.2858      0.00000
     71       1.3697      0.00000
     72       1.5410      0.00000
     73       1.5652      0.00000
     74       1.6085      0.00000
     75       1.6335      0.00000
     76       1.6571      0.00000
     77       1.6607      0.00000
     78       1.7069      0.00000
     79       1.8591      0.00000
     80       1.8783      0.00000
     81       1.8846      0.00000
     82       1.9048      0.00000
     83       1.9099      0.00000
     84       1.9295      0.00000
     85       1.9411      0.00000
     86       1.9548      0.00000
     87       1.9594      0.00000
     88       1.9663      0.00000
     89       1.9699      0.00000
     90       1.9729      0.00000
     91       1.9840      0.00000
     92       2.0070      0.00000
     93       2.0272      0.00000
     94       2.0468      0.00000
     95       2.0492      0.00000
     96       2.0849      0.00000


--------------------------------------------------------------------------------------------------------


 soft charge-density along one line, spin component           1
         0         1         2         3         4         5         6         7         8         9
 total charge-density along one line

 pseudopotential strength for first ion, spin component:           1
-10.732   0.022   0.013   0.006  -0.001   1.084  -0.018  -0.011
  0.022 -10.759   0.004  -0.014  -0.004  -0.018   1.106  -0.004
  0.013   0.004 -10.713   0.010  -0.040  -0.011  -0.004   1.068
  0.006  -0.014   0.010 -10.683   0.019  -0.006   0.012  -0.008
 -0.001  -0.004  -0.040   0.019 -10.729   0.000   0.005   0.032
  1.084  -0.018  -0.011  -0.006   0.000   6.463   0.016   0.009
 -0.018   1.106  -0.004   0.012   0.005   0.016   6.444   0.001
 -0.011  -0.004   1.068  -0.008   0.032   0.009   0.001   6.471
 -0.006   0.012  -0.008   1.043  -0.016   0.003  -0.007   0.007
  0.000   0.005   0.032  -0.016   1.081  -0.000  -0.004  -0.024
  0.007  -0.005  -0.002  -0.011  -0.016  -0.000  -0.001  -0.002
  0.012  -0.008  -0.003  -0.021  -0.029   0.000  -0.002  -0.004
 -0.007   0.005   0.019  -0.001   0.032   0.001   0.004  -0.005
 -0.001  -0.026   0.010  -0.008   0.001  -0.001  -0.000  -0.001
 -0.027  -0.001   0.003   0.007  -0.007  -0.002  -0.001   0.003
 -0.007   0.003   0.022  -0.001   0.037  -0.001   0.007  -0.004
 -0.001  -0.026   0.011  -0.009   0.002  -0.001  -0.005   0.001
 -0.027  -0.001   0.002   0.008  -0.007  -0.007  -0.001   0.004
 total augmentation occupancy for first ion, spin component:           1
  1.973   0.003   0.006  -0.000   0.002  -0.017  -0.003  -0.002  -0.003  -0.001  -0.032   0.001   0.027   0.000   0.061  -0.012
  0.003   1.970  -0.002   0.000  -0.005  -0.003  -0.014  -0.004   0.005  -0.001   0.031  -0.002  -0.015   0.065  -0.002   0.014
  0.006  -0.002   1.963   0.008  -0.013  -0.002  -0.004  -0.011  -0.007   0.015   0.022  -0.005  -0.064  -0.056   0.001   0.025
 -0.000   0.000   0.008   1.975   0.009  -0.003   0.005  -0.007  -0.019  -0.005   0.025   0.006  -0.000   0.043  -0.036   0.000
  0.002  -0.005  -0.013   0.009   1.966  -0.001  -0.001   0.015  -0.005  -0.006   0.062  -0.000  -0.112  -0.018   0.023   0.043
 -0.017  -0.003  -0.002  -0.003  -0.001   0.005  -0.002  -0.000  -0.001  -0.000   0.026  -0.004   0.007  -0.006   0.011  -0.001
 -0.003  -0.014  -0.004   0.005  -0.001  -0.002   0.007  -0.001   0.002   0.000  -0.017   0.004  -0.006   0.017  -0.005   0.001
 -0.002  -0.004  -0.011  -0.007   0.015  -0.000  -0.001   0.004  -0.001   0.002  -0.009   0.001  -0.008  -0.008   0.001   0.001
 -0.003   0.005  -0.007  -0.019  -0.005  -0.001   0.002  -0.001   0.004  -0.000  -0.040   0.005  -0.005   0.011  -0.008   0.001
 -0.001  -0.001   0.015  -0.005  -0.006  -0.000   0.000   0.002  -0.000   0.007  -0.064   0.006  -0.019   0.000   0.001   0.003
 -0.032   0.031   0.022   0.025   0.062   0.026  -0.017  -0.009  -0.040  -0.064   1.826  -0.171   0.312  -0.120   0.099  -0.045
  0.001  -0.002  -0.005   0.006  -0.000  -0.004   0.004   0.001   0.005   0.006  -0.171   0.018  -0.033   0.018  -0.013   0.005
  0.027  -0.015  -0.064  -0.000  -0.112   0.007  -0.006  -0.008  -0.005  -0.019   0.312  -0.033   0.086  -0.017   0.016  -0.014
  0.000   0.065  -0.056   0.043  -0.018  -0.006   0.017  -0.008   0.011   0.000  -0.120   0.018  -0.017   0.075  -0.028   0.003
  0.061  -0.002   0.001  -0.036   0.023   0.011  -0.005   0.001  -0.008   0.001   0.099  -0.013   0.016  -0.028   0.042  -0.003
 -0.012   0.014   0.025   0.000   0.043  -0.001   0.001   0.001   0.001   0.003  -0.045   0.005  -0.014   0.003  -0.003   0.003
  0.000  -0.046   0.018  -0.013   0.001   0.001  -0.001   0.001  -0.001  -0.000   0.018  -0.002   0.003  -0.009   0.003  -0.001
 -0.045   0.000   0.007   0.015  -0.013  -0.001   0.001  -0.000   0.001   0.000  -0.015   0.002  -0.003   0.003  -0.006   0.000


------------------------ aborting loop because EDIFF is reached ----------------------------------------


    FORLOC:  cpu time      0.0027: real time      0.0027
    FORNL :  cpu time      0.1039: real time      0.1040
    STRESS:  cpu time      3.3030: real time      3.3033
    FORCOR:  cpu time      0.1960: real time      0.1960
    OFIELD:  cpu time      0.0002: real time      0.0002
    FORVDW:  cpu time      0.0041: real time      0.0041

  FORCE on cell =-STRESS in cart. coord.  units (eV):
  Direction    XX          YY          ZZ          XY          YZ          ZX
  --------------------------------------------------------------------------------------
  Alpha Z     3.29098     3.29098     3.29098
  Ewald    -705.89319  4298.69392  1042.56009   681.75315  -123.88589 -1335.03426
  Hartree  2226.97836  6379.13495  3650.95564   558.74511  -101.78303 -1081.08886
  E(xc)    -425.97688  -425.46240  -425.62347     0.08000    -0.01022    -0.26845
  Local   -2101.72474-11222.94927 -5263.36917 -1235.20296   224.28938  2407.48456
  n-local  -140.56995  -140.85205  -138.88446    -0.37132     0.75377    -1.09254
  augment   595.30453   576.90914   587.94946    -2.58975     0.29063     5.65416
  Kinetic   548.31646   529.48059   542.14393    -2.63056     0.37346     4.84871
  Fock        0.00000     0.00000     0.00000     0.00000     0.00000     0.00000
  vdW        -0.00177    -0.02699    -0.00383    -0.00353     0.00114     0.00192
  -------------------------------------------------------------------------------------
  Total      -0.27620    -1.78113    -0.98083    -0.21986     0.02924     0.50524
  in kB      -0.05532    -0.35671    -0.19643    -0.04403     0.00586     0.10118
  external pressure =       -0.20 kB  Pullay stress =        0.00 kB


 VOLUME and BASIS-vectors are now :
 -----------------------------------------------------------------------------
  energy-cutoff  :      520.00
  volume of cell :     8000.00
      direct lattice vectors                 reciprocal lattice vectors
    20.000000000  0.000000000  0.000000000     0.050000000  0.000000000  0.000000000
     0.000000000 20.000000000  0.000000000     0.000000000  0.050000000  0.000000000
     0.000000000  0.000000000 20.000000000     0.000000000  0.000000000  0.050000000

  length of vectors
    20.000000000 20.000000000 20.000000000     0.050000000  0.050000000  0.050000000


 FORCES acting on ions:
    Electron-Ion                     Ewald-Force                    Non-Local-Force
 -----------------------------------------------------------------------------------------------
   0.229E+03 0.685E+03 -.285E+03   -.226E+03 -.673E+03 0.281E+03   -.369E+01 -.127E+02 0.424E+01
   -.274E+03 -.850E+02 0.498E+03   0.274E+03 0.851E+02 -.498E+03   -.131E+00 -.126E+00 0.158E+00
   0.274E+03 0.853E+02 -.498E+03   -.274E+03 -.854E+02 0.498E+03   0.131E+00 0.107E+00 -.152E+00
   -.228E+03 0.500E+03 0.534E+03   0.225E+03 -.493E+03 -.528E+03   0.254E+01 -.689E+01 -.616E+01
   -.229E+03 -.685E+03 0.286E+03   0.226E+03 0.672E+03 -.282E+03   0.368E+01 0.127E+02 -.424E+01
   0.228E+03 -.500E+03 -.534E+03   -.225E+03 0.493E+03 0.528E+03   -.254E+01 0.691E+01 0.616E+01
 -----------------------------------------------------------------------------------------------
   0.420E-02 0.105E-02 -.411E-02   0.568E-13 0.000E+00 0.000E+00   -.231E-02 -.155E-02 0.452E-02


 POSITION                                       TOTAL-FORCE (eV/Angst)
 -----------------------------------------------------------------------------------
      9.27723      7.25888     10.78083         0.062613      0.253261     -0.075573
     10.53615     10.48710      9.09277        -0.110000      0.002392      0.168372
      9.46294      9.51350     10.90874         0.110397     -0.004251     -0.167769
     10.38058      8.20131      8.90456        -0.065650      0.158683      0.210430
     10.72248     12.74155      9.21822        -0.062273     -0.251418      0.075836
      9.61925     11.79930     11.09507         0.064913     -0.158666     -0.211296
 -----------------------------------------------------------------------------------
    total drift:                                0.001893     -0.000501      0.000410


--------------------------------------------------------------------------------------------------------



  FREE ENERGIE OF THE ION-ELECTRON SYSTEM (eV)
  ---------------------------------------------------
  free  energy   TOTEN  =       -52.69979954 eV

  energy  without entropy=      -52.69979943  energy(sigma->0) =      -52.69979948



--------------------------------------------------------------------------------------------------------


    POTLOK:  cpu time      1.0162: real time      1.0163


--------------------------------------------------------------------------------------------------------


     LOOP+:  cpu time     80.7038: real time     80.7768
    4ORBIT:  cpu time      0.0000: real time      0.0000

 total amount of memory used by VASP MPI-rank0   129951. kBytes
=======================================================================

   base      :      30000. kBytes
   nonlr-proj:       2260. kBytes
   fftplans  :      28354. kBytes
   grid      :      66714. kBytes
   one-center:         31. kBytes
   wavefun   :       2592. kBytes

  
  
 General timing and accounting informations for this job:
 ========================================================
  
                  Total CPU time used (sec):      101.720
                            User time (sec):      100.060
                          System time (sec):        1.660
                         Elapsed time (sec):      103.475
  
                   Maximum memory used (kb):      403964.
                   Average memory used (kb):          N/A
  
                          Minor page faults:        29625
                          Major page faults:            0
                 Voluntary context switches:         9928
