 vasp.6.3.0 20Jan22 (build Apr  1 2022 16:44:48) complex                         
 executed on        HPECrayEX_GCC date 2022.08.15  20:26:49
 running  512 mpi-ranks, with    1 threads/rank
 distrk:  each k-point on  256 cores,    2 groups
 distr:  one band on NCORE=   4 cores,   64 groups


--------------------------------------------------------------------------------------------------------


 INCAR:
   SYSTEM = MgO-rocksalt
   ISMEAR = 0
   SIGMA = 0.05
   EDIFF = 1E-6
   ALGO = ALL
   ISTART = 0
   IBRION = -1
   NSW = 0
   ISYM = 2
   DIPOL = 0.5 0.5 0.5
   IDIPOL = 3
   LDIPOL = .TRUE.
   GGA = MK
   PARAM1 = 0.1234
   PARAM2 = 1.0
   LUSE_VDW = .TRUE.
   AGGAC = 0.0
   ENCUT = 520
   PREC = Accurate
   LASPH = .TRUE.
   LREAL = Auto
   ISPIN = 1
   NELM = 200
   NELMIN = 8
   NCORE = 4
   KPAR = 2
   LWAVE = .FALSE.
   LCHARG = .FALSE.

 POTCAR:    PAW_PBE Au 04Oct2007                  
 -----------------------------------------------------------------------------
|                                                                             |
|               ----> ADVICE to this user running VASP <----                  |
|                                                                             |
|     You have switched on vdW-DFT.                                           |
|     This routine was written and supplied by Jiri Klimes. We recommend      |
|     that you carefully read and cite the following publications:            |
|       J. Klimes, D.R. Bowler, A. Michelides                                 |
|          J. Phys.: Cond Matt. 22 022201 (2010)                              |
|       J. Klimes, D.R. Bowler, A. Michelides                                 |
|          Phys. Rev. B. 83, 195131 (2011)                                    |
|     and references therein.                                                 |
|                                                                             |
 -----------------------------------------------------------------------------

 POTCAR:    PAW_PBE Au 04Oct2007                  
   SHA256 =  d0044ae04e2bdce24051b198fc5c053d722a5bc6fe3c3b100514a13fc5d2db88 Au/POTCAR             
   COPYR  = (c) Copyright 04Oct2007 Georg Kresse                                                    
   COPYR  = This file is part of the software VASP. Any use, copying, and all other rights are regul
   COPYR  = If you do not have a valid VASP license, you may not use, copy or distribute this file. 
   VRHFIN =Au: s1d10                                                                                
   LEXCH  = PE                                                                                      
   EATOM  =   926.0867 eV,   68.0654 Ry                                                             
                                                                                                    
   TITEL  = PAW_PBE Au 04Oct2007                                                                    
   LULTRA =        F    use ultrasoft PP ?                                                          
   IUNSCR =        1    unscreen: 0-lin 1-nonlin 2-no                                               
   RPACOR =    2.330    partial core radius                                                         
   POMASS =  196.966; ZVAL   =   11.000    mass and valenz                                          
   RCORE  =    2.500    outmost cutoff radius                                                       
   RWIGS  =    2.840; RWIGS  =    1.503    wigner-seitz radius (au A)                               
   ENMAX  =  229.943; ENMIN  =  172.457 eV                                                          
   ICORE  =        3    local potential                                                             
   LCOR   =        T    correct aug charges                                                         
   LPAW   =        T    paw PP                                                                      
   EAUG   =  356.670                                                                                
   DEXC   =    0.000                                                                                
   RMAX   =    2.562    core radius for proj-oper                                                   
   RAUG   =    1.300    factor for augmentation sphere                                              
   RDEP   =    2.598    radius for radial grids                                                     
   RDEPT  =    2.193    core radius for aug-charge                                                  
                                                                                                    
   Atomic configuration                                                                             
   16 entries                                                                                       
     n  l   j            E        occ.                                                              
     1  0  0.50    -80748.5001   2.0000                                                             
     2  0  0.50    -14244.7466   2.0000                                                             
     2  1  1.50    -12310.9591   6.0000                                                             
     3  0  0.50     -3362.1768   2.0000                                                             
     3  1  1.50     -2801.5463   6.0000                                                             
     3  2  2.50     -2203.8206  10.0000                                                             
     4  0  0.50      -729.8168   2.0000                                                             
     4  1  1.50      -546.0527   6.0000                                                             
     4  2  2.50      -325.7302  10.0000                                                             
     4  3  3.50       -81.1472  14.0000                                                             
     5  0  0.50      -108.3201   2.0000                                                             
     5  1  1.50       -59.7479   6.0000                                                             
     5  2  2.50        -6.8783  10.0000                                                             
     6  0  0.50        -5.7602   1.0000                                                             
     6  1  1.50        -6.8029   0.0000                                                             
     5  3  2.50        -1.3606   0.0000                                                             
   Description                                                                                      
     l       E           TYP  RCUT    TYP  RCUT                                                     
     2     -6.8782861     23  2.500                                                                 
     2     -8.2388687     23  2.500                                                                 
     0     -5.7601759     23  2.500                                                                 
     0     -0.8493231     23  2.500                                                                 
     1     -2.7211652     23  2.500                                                                 
     1     27.2116520     23  2.500                                                                 
     3     -1.3605826     23  2.500                                                                 
  local pseudopotential read in
  partial core-charges read in
  partial kinetic energy density read in
  atomic valenz-charges read in
  non local Contribution for L=           2  read in
    real space projection operators read in
  non local Contribution for L=           2  read in
    real space projection operators read in
  non local Contribution for L=           0  read in
    real space projection operators read in
  non local Contribution for L=           0  read in
    real space projection operators read in
  non local Contribution for L=           1  read in
    real space projection operators read in
  non local Contribution for L=           1  read in
    real space projection operators read in
    PAW grid and wavefunctions read in

   number of l-projection  operators is LMAX  =           6
   number of lm-projection operators is LMMAX =          18

 -----------------------------------------------------------------------------
|                                                                             |
|               ----> ADVICE to this user running VASP <----                  |
|                                                                             |
|     You have a (more or less) 'small supercell' and for smaller cells       |
|     it is recommended to use the reciprocal-space projection scheme!        |
|     The real-space optimization is not efficient for small cells and it     |
|     is also less accurate ...                                               |
|     Therefore, set LREAL=.FALSE. in the INCAR file.                         |
|                                                                             |
 -----------------------------------------------------------------------------

 Optimization of the real space projectors (new method)

 maximal supplied QI-value         = 15.12
 optimisation between [QCUT,QGAM] = [ 11.64, 23.28] = [ 37.95,151.78] Ry 
 Optimized for a Real-space Cutoff    1.49 Angstroem

   l    n(q)    QCUT    max X(q) W(low)/X(q) W(high)/X(q)  e(spline) 
   2      9    11.641    60.898    0.24E-03    0.10E-03    0.19E-06
   2      9    11.641    58.894    0.25E-03    0.10E-03    0.19E-06
   0     10    11.641   109.617    0.73E-04    0.33E-04    0.11E-06
   0     10    11.641    75.026    0.71E-04    0.32E-04    0.11E-06
   1     10    11.641    16.344    0.27E-04    0.97E-04    0.16E-06
   1     10    11.641    10.160    0.23E-04    0.77E-04    0.13E-06
 -----------------------------------------------------------------------------
|                                                                             |
|               ----> ADVICE to this user running VASP <----                  |
|                                                                             |
|     You enforced a specific xc type in the INCAR file but a different       |
|     type was found in the POTCAR file.                                      |
|     I HOPE YOU KNOW WHAT YOU ARE DOING!                                     |
|                                                                             |
 -----------------------------------------------------------------------------

  PAW_PBE Au 04Oct2007                  :
 energy of atom  1       EATOM= -926.0867
 kinetic energy error for atom=    0.0034 (will be added to EATOM!!)


 POSCAR: Au
  positions in direct lattice
  No initial velocities read in
 exchange correlation table for  LEXCH =       43
   RHO(1)=    0.500       N(1)  =     2000
   RHO(2)=  100.500       N(2)  =     4000



--------------------------------------------------------------------------------------------------------


 ion  position               nearest neighbor table
   1  0.543  0.457  0.618-   2 2.55
   2  0.457  0.543  0.618-   1 2.55

  LATTYP: Found a simple tetragonal cell.
 ALAT       =    21.1388521970
 C/A-ratio  =     1.0461251639
  
  Lattice vectors:
  
 A1 = (  21.1388521970,   0.0000000000,   0.0000000000)
 A2 = (   0.0000000000,  21.1388521970,   0.0000000000)
 A3 = (   0.0000000000,   0.0000000000,  22.1138852197)


Analysis of symmetry for initial positions (statically):
=====================================================================
 Subroutine PRICEL returns:
 Original cell was already a primitive cell.
 

 Routine SETGRP: Setting up the symmetry group for a 
 simple tetragonal supercell.


 Subroutine GETGRP returns: Found  8 space group operations
 (whereof  4 operations were pure point group operations)
 out of a pool of 16 trial point group operations.


The static configuration has the point symmetry C_2v.
 The point group associated with its full space group is D_2h.


Analysis of symmetry for dynamics (positions and initial velocities):
=====================================================================
 Subroutine PRICEL returns:
 Original cell was already a primitive cell.
 

 Routine SETGRP: Setting up the symmetry group for a 
 simple tetragonal supercell.


 Subroutine GETGRP returns: Found  8 space group operations
 (whereof  4 operations were pure point group operations)
 out of a pool of 16 trial point group operations.


The dynamic configuration has the point symmetry C_2v.
 The point group associated with its full space group is D_2h.


 Subroutine INISYM returns: Found  8 space group operations
 (whereof  4 operations are pure point group operations),
 and found     1 'primitive' translations


----------------------------------------------------------------------------------------

                                     Primitive cell                                     

  volume of cell :    9881.6133

  direct lattice vectors                    reciprocal lattice vectors
    21.138852197  0.000000000  0.000000000     0.047306258  0.000000000  0.000000000
     0.000000000 21.138852197  0.000000000     0.000000000  0.047306258  0.000000000
     0.000000000  0.000000000 22.113885220     0.000000000  0.000000000  0.045220457

  length of vectors
    21.138852197 21.138852197 22.113885220     0.047306258  0.047306258  0.045220457

  position of ions in fractional coordinates (direct lattice)
     0.542717991  0.457282009  0.618300337
     0.457282009  0.542717991  0.618300337

  ion indices of the primitive-cell ions
   primitive index   ion index
                 1           1
                 2           2

----------------------------------------------------------------------------------------



 KPOINTS: KPOINTS created by Atomic Simulation Env

Automatic generation of k-mesh.
 Grid dimensions read from file:
 generate k-points for:    1    1    1

 Generating k-lattice:

  Cartesian coordinates                     Fractional coordinates (reciprocal lattice)
     0.047306258  0.000000000  0.000000000     1.000000000  0.000000000  0.000000000
     0.000000000  0.047306258  0.000000000     0.000000000  1.000000000  0.000000000
     0.000000000  0.000000000  0.045220457     0.000000000  0.000000000  1.000000000

  Length of vectors
     0.047306258  0.047306258  0.045220457

  Shift w.r.t. Gamma in fractional coordinates (k-lattice)
     0.000000000  0.000000000  0.000000000

 
 Subroutine IBZKPT returns following result:
 ===========================================
 
 Found      1 irreducible k-points:
 
 Following reciprocal coordinates:
            Coordinates               Weight
  0.000000  0.000000  0.000000      1.000000
 
 Following cartesian coordinates:
            Coordinates               Weight
  0.000000  0.000000  0.000000      1.000000
 


--------------------------------------------------------------------------------------------------------




 Dimension of arrays:
   k-points           NKPTS =      1   k-points in BZ     NKDIM =      1   number of bands    NBANDS=     64
   number of dos      NEDOS =    301   number of ions     NIONS =      2
   non local maximal  LDIM  =      6   non local SUM 2l+1 LMDIM =     18
   total plane-waves  NPLWV = ******
   max r-space proj   IRMAX =   6070   max aug-charges    IRDMAX=  26812
   dimension x,y,z NGX =   160 NGY =  160 NGZ =  168
   dimension x,y,z NGXF=   320 NGYF=  320 NGZF=  336
   support grid    NGXF=   320 NGYF=  320 NGZF=  336
   ions per type =               2
   NGX,Y,Z   is equivalent  to a cutoff of  12.58, 12.58, 12.63 a.u.
   NGXF,Y,Z  is equivalent  to a cutoff of  25.17, 25.17, 25.26 a.u.

 SYSTEM =  MgO-rocksalt                            
 POSCAR =  Au                                      

 Startparameter for this run:
   NWRITE =      2    write-flag & timer
   PREC   = accura    normal or accurate (medium, high low for compatibility)
   ISTART =      0    job   : 0-new  1-cont  2-samecut
   ICHARG =      2    charge: 1-file 2-atom 10-const
   ISPIN  =      1    spin polarized calculation?
   LNONCOLLINEAR =      F non collinear calculations
   LSORBIT =      F    spin-orbit coupling
   INIWAV =      1    electr: 0-lowe 1-rand  2-diag
   LASPH  =      T    aspherical Exc in radial PAW
 Electronic Relaxation 1
   ENCUT  =  520.0 eV  38.22 Ry    6.18 a.u.  39.30 39.30 41.12*2*pi/ulx,y,z
   ENINI  =  520.0     initial cutoff
   ENAUG  =  356.7 eV  augmentation charge cutoff
   NELM   =    200;   NELMIN=  8; NELMDL= -5     # of ELM steps 
   EDIFF  = 0.1E-05   stopping-criterion for ELM
   LREAL  =      T    real-space projection
   NLSPLINE    = F    spline interpolate recip. space projectors
   LCOMPAT=      F    compatible to vasp.4.4
   GGA_COMPAT  = T    GGA compatible to vasp.4.4-vasp.4.6
   LMAXPAW     = -100 max onsite density
   LMAXMIX     =    2 max onsite mixed and CHGCAR
   VOSKOWN=      0    Vosko Wilk Nusair interpolation
   ROPT   =   -0.00025
 Ionic relaxation
   EDIFFG = 0.1E-04   stopping-criterion for IOM
   NSW    =      0    number of steps for IOM
   NBLOCK =      1;   KBLOCK =      1    inner block; outer block 
   IBRION =     -1    ionic relax: 0-MD 1-quasi-New 2-CG
   NFREE  =      0    steps in history (QN), initial steepest desc. (CG)
   ISIF   =      2    stress and relaxation
   IWAVPR =     10    prediction:  0-non 1-charg 2-wave 3-comb
   ISYM   =      2    0-nonsym 1-usesym 2-fastsym
   LCORR  =      T    Harris-Foulkes like correction to forces

   POTIM  = 0.5000    time-step for ionic-motion
   TEIN   =    0.0    initial temperature
   TEBEG  =    0.0;   TEEND  =   0.0 temperature during run
   SMASS  =  -3.00    Nose mass-parameter (am)
   estimated Nose-frequenzy (Omega)   =  0.10E-29 period in steps = 0.13E+47 mass=  -0.102E-25a.u.
   SCALEE = 1.0000    scale energy and forces
   NPACO  =    256;   APACO  = 10.0  distance and # of slots for P.C.
   PSTRESS=    0.0 pullay stress

  Mass of Ions in am
   POMASS = 196.97
  Ionic Valenz
   ZVAL   =  11.00
  Atomic Wigner-Seitz radii
   RWIGS  =  -1.00
  virtual crystal weights 
   VCA    =   1.00
   NELECT =      22.0000    total number of electrons
   NUPDOWN=      -1.0000    fix difference up-down

 DOS related values:
   EMIN   =  10.00;   EMAX   =-10.00  energy-range for DOS
   EFERMI =   0.00
   ISMEAR =     0;   SIGMA  =   0.05  broadening in eV -4-tet -1-fermi 0-gaus

 Electronic relaxation 2 (details)
   IALGO  =     58    algorithm
   LDIAG  =      T    sub-space diagonalisation (order eigenvalues)
   LSUBROT=      F    optimize rotation matrix (better conditioning)
   TURBO    =      0    0=normal 1=particle mesh
   IRESTART =      0    0=no restart 2=restart with 2 vectors
   NREBOOT  =      0    no. of reboots
   NMIN     =      0    reboot dimension
   EREF     =   0.00    reference energy to select bands
   IMIX   =      4    mixing-type and parameters
     AMIX     =   0.40;   BMIX     =  1.00
     AMIX_MAG =   1.60;   BMIX_MAG =  1.00
     AMIN     =   0.10
     WC   =   100.;   INIMIX=   1;  MIXPRE=   1;  MAXMIX= -45

 Intra band minimization:
   WEIMIN = 0.0000     energy-eigenvalue tresh-hold
   EBREAK =  0.39E-08  absolut break condition
   DEPER  =   0.30     relativ break condition  

   TIME   =   0.40     timestep for ELM

  volume/ion in A,a.u.               =    4940.81     33342.21
  Fermi-wavevector in a.u.,A,eV,Ry     =   0.213767  0.403960  0.621734  0.045696
  Thomas-Fermi vector in A             =   0.985879

 Write flags
   LWAVE        =      F    write WAVECAR
   LDOWNSAMPLE  =      F    k-point downsampling of WAVECAR
   LCHARG       =      F    write CHGCAR
   LVTOT        =      F    write LOCPOT, total local potential
   LVHAR        =      F    write LOCPOT, Hartree potential only
   LELF         =      F    write electronic localiz. function (ELF)
   LORBIT       =      0    0 simple, 1 ext, 2 COOP (PROOUT), +10 PAW based schemes


 Dipole corrections
   LMONO  =      F    monopole corrections only (constant potential shift)
   LDIPOL =      T    correct potential (dipole corrections)
   IDIPOL =      3    1-x, 2-y, 3-z, 4-all directions 
   EPSILON=  1.0000000 bulk dielectric constant

 Exchange correlation treatment:
   GGA     =    MK    GGA type
   LEXCH   =    43    internal setting for exchange type
   LIBXC   =     F    Libxc                    
   VOSKOWN =     0    Vosko Wilk Nusair interpolation
   LHFCALC =     F    Hartree Fock is set to
   LHFONE  =     F    Hartree Fock one center treatment
   AEXX    =    0.0000 exact exchange contribution

 vdW DFT:
   LUSE_VDW   =     T    switch on vdW DFT
   Zab_VDW    =-.8491    correlation parameter
   PARAM1     =0.1234
   PARAM2     =1.0000
   PARAM3     =0.0000
   -- rVV10 --
   BPARAM     = 6.3000
   CPARAM     = 0.0093

 Linear response parameters
   LEPSILON=     F    determine dielectric tensor
   LRPA    =     F    only Hartree local field effects (RPA)
   LNABLA  =     F    use nabla operator in PAW spheres
   LVEL    =     F    velocity operator in full k-point grid
   CSHIFT  =0.1000    complex shift for real part using Kramers Kronig
   OMEGAMAX=  -1.0    maximum frequency
   DEG_THRESHOLD= 0.2000000E-02 threshold for treating states as degnerate
   RTIME   =   -0.100 relaxation time in fs
  (WPLASMAI=    0.000 imaginary part of plasma frequency in eV, 0.658/RTIME)
   DFIELD  = 0.0000000 0.0000000 0.0000000 field for delta impulse in time

  Optional k-point grid parameters
   LKPOINTS_OPT  =     F    use optional k-point grid
   KPOINTS_OPT_MODE=     1    mode for optional k-point grid

 Orbital magnetization related:
   ORBITALMAG=     F  switch on orbital magnetization
   LCHIMAG   =     F  perturbation theory with respect to B field
   DQ        =  0.001000  dq finite difference perturbation B field
   LLRAUG    =     F  two centre corrections for induced B field



--------------------------------------------------------------------------------------------------------


 Static calculation
 charge density and potential will be updated during run
 non-spin polarized calculation
 Conjugate gradient for all bands (Freysoldt, et al. PRB 79, 241103 (2009))
 preconditioned conjugated gradient                                        
 perform sub-space diagonalisation
    before iterative eigenvector-optimisation
 modified Broyden-mixing scheme, WC =      100.0
 initial mixing is a Kerker type mixing with AMIX =  0.4000 and BMIX =      1.0000
 Hartree-type preconditioning will be used
 using additional bands           53
 real space projection scheme for non local part
 use partial core corrections
 no Harris-corrections to forces 
 use gradient corrections 
 use of overlap-Matrix (Vanderbilt PP)
 Gauss-broadening in eV      SIGMA  =   0.05


--------------------------------------------------------------------------------------------------------


  energy-cutoff  :      520.00
  volume of cell :     9881.61
      direct lattice vectors                 reciprocal lattice vectors
    21.138852197  0.000000000  0.000000000     0.047306258  0.000000000  0.000000000
     0.000000000 21.138852197  0.000000000     0.000000000  0.047306258  0.000000000
     0.000000000  0.000000000 22.113885220     0.000000000  0.000000000  0.045220457

  length of vectors
    21.138852197 21.138852197 22.113885220     0.047306258  0.047306258  0.045220457



 k-points in units of 2pi/SCALE and weight: KPOINTS created by Atomic Simulation Env
   0.00000000  0.00000000  0.00000000       1.000

 k-points in reciprocal lattice and weights: KPOINTS created by Atomic Simulation Env
   0.00000000  0.00000000  0.00000000       1.000

 position of ions in fractional coordinates (direct lattice) 
   0.54271799  0.45728201  0.61830034
   0.45728201  0.54271799  0.61830034

 position of ions in cartesian coordinates  (Angst):
  11.47243539  9.66641680 13.67302268
   9.66641680 11.47243539 13.67302268



--------------------------------------------------------------------------------------------------------


 k-point   1 :   0.0000 0.0000 0.0000  plane waves:  265979

 maximum and minimum number of plane-waves per node :     66495    66494

 maximum number of plane-waves:    265979
 maximum index in each direction: 
   IXMAX=   39   IYMAX=   39   IZMAX=   41
   IXMIN=  -39   IYMIN=  -39   IZMIN=  -41


 real space projection operators:
  total allocation   :       1640.53 KBytes
  max/ min on nodes  :        413.30        405.84


 parallel 3D FFT for wavefunctions:
    minimum data exchange during FFTs selected (reduces bandwidth)
 parallel 3D FFT for charge:
    minimum data exchange during FFTs selected (reduces bandwidth)


 total amount of memory used by VASP MPI-rank0   125810. kBytes
=======================================================================

   base      :      30000. kBytes
   nonlr-proj:        706. kBytes
   fftplans  :      38424. kBytes
   grid      :      53473. kBytes
   one-center:         15. kBytes
   wavefun   :       3192. kBytes

     INWAV:  cpu time      0.0001: real time      0.0004
 Broyden mixing: mesh for mixing (old mesh)
   NGX = 79   NGY = 79   NGZ = 83
  (NGX  =320   NGY  =320   NGZ  =336)
  gives a total of 518003 points

 initial charge density was supplied:
 charge density of overlapping atoms calculated
 number of electron      22.0000000 magnetization 
 keeping initial charge density in first step


--------------------------------------------------------------------------------------------------------


 Maximum index for non-local projection operator         1451
 Maximum index for augmentation-charges            0 (set IRDMAX)


--------------------------------------------------------------------------------------------------------


 First call to EWALD:  gamma=   0.083
 Maximum number of real-space cells 3x 3x 3
 Maximum number of reciprocal cells 3x 3x 3

    FEWALD:  cpu time      0.0009: real time      0.0009


--------------------------------------- Iteration      1(   1)  ---------------------------------------


vdW kernel read from vdw_kernel.bindat
  0.0000  0.2424  0.5071  0.7962  1.1119  1.4567  1.8333  2.2446  2.6937  3.1842
  3.7199  4.3049  4.9438  5.6415  6.4036  7.2358  8.1446  9.1372 10.2212 11.4050
 12.6979 14.1099 15.6519 17.3360 19.1751 21.1837 23.3773 25.7729 28.3892 31.2465
 34.3669 37.7748 41.4965 45.5611 50.0000

    POTLOK:  cpu time      2.0932: real time      2.0944
    SETDIJ:  cpu time      0.1348: real time      0.1349
    TRIAL :  cpu time      0.4352: real time      0.4357
    CORREC:  cpu time      0.0008: real time      0.0008
    --------------------------------------------
      LOOP:  cpu time      2.6664: real time      2.6684

 eigenvalue-minimisations  :   128
 total energy-change (2. order) : 0.1515092E+03  (-0.3775562E+03)
 number of electron      22.0000000 magnetization 
 augmentation part       22.0000000 magnetization 

 DIPCOR: dipole corrections for dipol
 direction  3 min pos     1,
 dipolmoment           0.000000      0.000000     -0.000012 electrons x Angstroem
 Tr[quadrupol]     -4110.734252

 energy correction for charged system         0.000000 eV
 dipol+quadrupol energy correction           -0.000000 eV
 added-field ion interaction          0.000014 eV  (added to PSCEN)


 Free energy of the ion-electron system (eV)
  ---------------------------------------------------
  alpha Z        PSCENC =         0.47151422
  Ewald energy   TEWEN  =       224.31077076
  -Hartree energ DENC   =     -1998.48365710
  -exchange      EXHF   =         0.00000000
  -V(xc)+E(xc)   XCENC  =        28.07469255
  PAW double counting   =      1750.22284273    -1702.92424135
  entropy T*S    EENTRO =        -0.00682095
  eigenvalues    EBANDS =        -8.42238981
  atomic energy  EATOM  =      1858.26651772
  ---------------------------------------------------
  free energy    TOTEN  =       151.50922877 eV

  energy without entropy =      151.51604972  energy(sigma->0) =      151.51263924


--------------------------------------------------------------------------------------------------------




--------------------------------------- Iteration      1(   2)  ---------------------------------------


    TRIAL :  cpu time      0.9415: real time      0.9417
    CORREC:  cpu time      0.0003: real time      0.0003
    --------------------------------------------
      LOOP:  cpu time      0.9466: real time      0.9553

 eigenvalue-minimisations  :   256
 total energy-change (2. order) :-0.1373880E+03  (-0.1373325E+03)
 number of electron      22.0000000 magnetization 
 augmentation part       22.0000000 magnetization 

 DIPCOR: dipole corrections for dipol
 direction  3 min pos     1,
 dipolmoment           0.000000      0.000000     -0.000012 electrons x Angstroem
 Tr[quadrupol]     -4110.734252

 energy correction for charged system         0.000000 eV
 dipol+quadrupol energy correction           -0.000000 eV
 added-field ion interaction          0.000014 eV  (added to PSCEN)


 Free energy of the ion-electron system (eV)
  ---------------------------------------------------
  alpha Z        PSCENC =         0.47151422
  Ewald energy   TEWEN  =       224.31077076
  -Hartree energ DENC   =     -1998.48365710
  -exchange      EXHF   =         0.00000000
  -V(xc)+E(xc)   XCENC  =        28.07469255
  PAW double counting   =      1750.22284273    -1702.92424135
  entropy T*S    EENTRO =        -0.00000000
  eigenvalues    EBANDS =      -145.81721216
  atomic energy  EATOM  =      1858.26651772
  ---------------------------------------------------
  free energy    TOTEN  =        14.12122737 eV

  energy without entropy =       14.12122737  energy(sigma->0) =       14.12122737


--------------------------------------------------------------------------------------------------------




--------------------------------------- Iteration      1(   3)  ---------------------------------------


    TRIAL :  cpu time      0.4266: real time      0.4266
    CORREC:  cpu time      0.0002: real time      0.0002
    --------------------------------------------
      LOOP:  cpu time      0.4312: real time      0.4391

 eigenvalue-minimisations  :   128
 total energy-change (2. order) :-0.1120175E+02  (-0.1120175E+02)
 number of electron      22.0000000 magnetization 
 augmentation part       22.0000000 magnetization 

 DIPCOR: dipole corrections for dipol
 direction  3 min pos     1,
 dipolmoment           0.000000      0.000000     -0.000012 electrons x Angstroem
 Tr[quadrupol]     -4110.734252

 energy correction for charged system         0.000000 eV
 dipol+quadrupol energy correction           -0.000000 eV
 added-field ion interaction          0.000014 eV  (added to PSCEN)


 Free energy of the ion-electron system (eV)
  ---------------------------------------------------
  alpha Z        PSCENC =         0.47151422
  Ewald energy   TEWEN  =       224.31077076
  -Hartree energ DENC   =     -1998.48365710
  -exchange      EXHF   =         0.00000000
  -V(xc)+E(xc)   XCENC  =        28.07469255
  PAW double counting   =      1750.22284273    -1702.92424135
  entropy T*S    EENTRO =        -0.00000000
  eigenvalues    EBANDS =      -157.01895954
  atomic energy  EATOM  =      1858.26651772
  ---------------------------------------------------
  free energy    TOTEN  =         2.91947999 eV

  energy without entropy =        2.91947999  energy(sigma->0) =        2.91947999


--------------------------------------------------------------------------------------------------------




--------------------------------------- Iteration      1(   4)  ---------------------------------------


    TRIAL :  cpu time      0.4270: real time      0.4271
    CORREC:  cpu time      0.0002: real time      0.0002
    --------------------------------------------
      LOOP:  cpu time      0.4319: real time      0.4392

 eigenvalue-minimisations  :   128
 total energy-change (2. order) :-0.7349305E-01  (-0.7349305E-01)
 number of electron      22.0000000 magnetization 
 augmentation part       22.0000000 magnetization 

 DIPCOR: dipole corrections for dipol
 direction  3 min pos     1,
 dipolmoment           0.000000      0.000000     -0.000012 electrons x Angstroem
 Tr[quadrupol]     -4110.734252

 energy correction for charged system         0.000000 eV
 dipol+quadrupol energy correction           -0.000000 eV
 added-field ion interaction          0.000014 eV  (added to PSCEN)


 Free energy of the ion-electron system (eV)
  ---------------------------------------------------
  alpha Z        PSCENC =         0.47151422
  Ewald energy   TEWEN  =       224.31077076
  -Hartree energ DENC   =     -1998.48365710
  -exchange      EXHF   =         0.00000000
  -V(xc)+E(xc)   XCENC  =        28.07469255
  PAW double counting   =      1750.22284273    -1702.92424135
  entropy T*S    EENTRO =        -0.00000000
  eigenvalues    EBANDS =      -157.09245258
  atomic energy  EATOM  =      1858.26651772
  ---------------------------------------------------
  free energy    TOTEN  =         2.84598694 eV

  energy without entropy =        2.84598694  energy(sigma->0) =        2.84598694


--------------------------------------------------------------------------------------------------------




--------------------------------------- Iteration      1(   5)  ---------------------------------------


    TRIAL :  cpu time      0.9243: real time      0.9250
    CORREC:  cpu time      0.0006: real time      0.0006
    CHARGE:  cpu time      0.5722: real time      0.5729
    --------------------------------------------
      LOOP:  cpu time      1.5016: real time      1.5108

 eigenvalue-minimisations  :   256
 total energy-change (2. order) :-0.1289767E-02  (-0.1289767E-02)
 number of electron      21.9999998 magnetization 
 augmentation part        8.0282243 magnetization 

 DIPCOR: dipole corrections for dipol
 direction  3 min pos     1,
 dipolmoment           0.000000      0.000000     -0.000012 electrons x Angstroem
 Tr[quadrupol]     -4110.734252

 energy correction for charged system         0.000000 eV
 dipol+quadrupol energy correction           -0.000000 eV
 added-field ion interaction          0.000014 eV  (added to PSCEN)


 Free energy of the ion-electron system (eV)
  ---------------------------------------------------
  alpha Z        PSCENC =         0.47151422
  Ewald energy   TEWEN  =       224.31077076
  -Hartree energ DENC   =     -1998.48365710
  -exchange      EXHF   =         0.00000000
  -V(xc)+E(xc)   XCENC  =        28.07469255
  PAW double counting   =      1750.22284273    -1702.92424135
  entropy T*S    EENTRO =        -0.00000000
  eigenvalues    EBANDS =      -157.09374235
  atomic energy  EATOM  =      1858.26651772
  ---------------------------------------------------
  free energy    TOTEN  =         2.84469718 eV

  energy without entropy =        2.84469718  energy(sigma->0) =        2.84469718


--------------------------------------------------------------------------------------------------------




--------------------------------------- Iteration      1(   6)  ---------------------------------------


    POTLOK:  cpu time      1.6975: real time      1.6976
    SETDIJ:  cpu time      0.1232: real time      0.1232
    TRIAL :  cpu time      0.2425: real time      0.2430
    CORREC:  cpu time      2.5195: real time      2.5197
    CHARGE:  cpu time      0.5663: real time      0.5664
    --------------------------------------------
      LOOP:  cpu time      5.1613: real time      5.1626

 eigenvalue-minimisations  :     0
 total energy-change (2. order) : 0.8467402E+00  (-0.3918827E+00)
 number of electron      21.9999998 magnetization 
 augmentation part        8.1649524 magnetization 

 DIPCOR: dipole corrections for dipol
 direction  3 min pos     1,
 dipolmoment           0.000000      0.000000     -0.000474 electrons x Angstroem
 Tr[quadrupol]     -4110.520270

 energy correction for charged system         0.000000 eV
 dipol+quadrupol energy correction           -0.000000 eV
 added-field ion interaction          0.000540 eV  (added to PSCEN)


 Free energy of the ion-electron system (eV)
  ---------------------------------------------------
  alpha Z        PSCENC =         0.47150220
  Ewald energy   TEWEN  =       224.31077076
  -Hartree energ DENC   =     -1992.47444384
  -exchange      EXHF   =         0.00000000
  -V(xc)+E(xc)   XCENC  =        27.57784429
  PAW double counting   =      1834.47910755    -1789.56489856
  entropy T*S    EENTRO =        -0.00000000
  eigenvalues    EBANDS =      -159.37496271
  atomic energy  EATOM  =      1858.26651772
  ---------------------------------------------------
  free energy    TOTEN  =         3.69143740 eV

  energy without entropy =        3.69143740  energy(sigma->0) =        3.69143740


--------------------------------------------------------------------------------------------------------




--------------------------------------- Iteration      1(   7)  ---------------------------------------


    POTLOK:  cpu time      1.7562: real time      1.7563
    SETDIJ:  cpu time      0.1209: real time      0.1209
    TRIAL :  cpu time      0.2371: real time      0.2371
    CORREC:  cpu time      2.5123: real time      2.5129
    CHARGE:  cpu time      0.5628: real time      0.5628
    --------------------------------------------
      LOOP:  cpu time      5.1938: real time      5.2034

 eigenvalue-minimisations  :     0
 total energy-change (2. order) :-0.3920180E+00  (-0.6047001E-01)
 number of electron      21.9999998 magnetization 
 augmentation part        8.1420945 magnetization 

 DIPCOR: dipole corrections for dipol
 direction  3 min pos     1,
 dipolmoment           0.000000      0.000000     -0.000352 electrons x Angstroem
 Tr[quadrupol]     -4110.503863

 energy correction for charged system         0.000000 eV
 dipol+quadrupol energy correction           -0.000000 eV
 added-field ion interaction          0.000401 eV  (added to PSCEN)


 Free energy of the ion-electron system (eV)
  ---------------------------------------------------
  alpha Z        PSCENC =         0.47209076
  Ewald energy   TEWEN  =       224.31077076
  -Hartree energ DENC   =     -2001.30703275
  -exchange      EXHF   =         0.00000000
  -V(xc)+E(xc)   XCENC  =        28.03339503
  PAW double counting   =      1850.42546864    -1805.11477786
  entropy T*S    EENTRO =        -0.00000000
  eigenvalues    EBANDS =      -151.78701293
  atomic energy  EATOM  =      1858.26651772
  ---------------------------------------------------
  free energy    TOTEN  =         3.29941938 eV

  energy without entropy =        3.29941938  energy(sigma->0) =        3.29941938


--------------------------------------------------------------------------------------------------------




--------------------------------------- Iteration      1(   8)  ---------------------------------------


    POTLOK:  cpu time      1.7563: real time      1.7565
    SETDIJ:  cpu time      0.1205: real time      0.1205
    TRIAL :  cpu time      0.2359: real time      0.2359
    CORREC:  cpu time      2.5181: real time      2.5183
    CHARGE:  cpu time      0.5635: real time      0.5636
    --------------------------------------------
      LOOP:  cpu time      5.2075: real time      5.2087

 eigenvalue-minimisations  :     0
 total energy-change (2. order) :-0.5969228E-01  (-0.2101619E-01)
 number of electron      21.9999998 magnetization 
 augmentation part        8.1761780 magnetization 

 DIPCOR: dipole corrections for dipol
 direction  3 min pos     1,
 dipolmoment           0.000000      0.000000     -0.000056 electrons x Angstroem
 Tr[quadrupol]     -4110.539229

 energy correction for charged system         0.000000 eV
 dipol+quadrupol energy correction           -0.000000 eV
 added-field ion interaction          0.000064 eV  (added to PSCEN)


 Free energy of the ion-electron system (eV)
  ---------------------------------------------------
  alpha Z        PSCENC =         0.47179552
  Ewald energy   TEWEN  =       224.31077076
  -Hartree energ DENC   =     -1993.61642898
  -exchange      EXHF   =         0.00000000
  -V(xc)+E(xc)   XCENC  =        27.80363028
  PAW double counting   =      1836.46539153    -1791.05942224
  entropy T*S    EENTRO =        -0.00000000
  eigenvalues    EBANDS =      -159.40252749
  atomic energy  EATOM  =      1858.26651772
  ---------------------------------------------------
  free energy    TOTEN  =         3.23972709 eV

  energy without entropy =        3.23972709  energy(sigma->0) =        3.23972709


--------------------------------------------------------------------------------------------------------




--------------------------------------- Iteration      1(   9)  ---------------------------------------


    POTLOK:  cpu time      1.7476: real time      1.7477
    SETDIJ:  cpu time      0.1213: real time      0.1213
    TRIAL :  cpu time      0.2360: real time      0.2360
    CORREC:  cpu time      2.4750: real time      2.4756
    CHARGE:  cpu time      0.5628: real time      0.5628
    --------------------------------------------
      LOOP:  cpu time      5.1478: real time      5.1561

 eigenvalue-minimisations  :     0
 total energy-change (2. order) :-0.2104460E-01  (-0.5364518E-02)
 number of electron      21.9999998 magnetization 
 augmentation part        8.1778980 magnetization 

 DIPCOR: dipole corrections for dipol
 direction  3 min pos     1,
 dipolmoment           0.000000      0.000000     -0.000007 electrons x Angstroem
 Tr[quadrupol]     -4110.559883

 energy correction for charged system         0.000000 eV
 dipol+quadrupol energy correction           -0.000000 eV
 added-field ion interaction          0.000008 eV  (added to PSCEN)


 Free energy of the ion-electron system (eV)
  ---------------------------------------------------
  alpha Z        PSCENC =         0.47153325
  Ewald energy   TEWEN  =       224.31077076
  -Hartree energ DENC   =     -1998.40144249
  -exchange      EXHF   =         0.00000000
  -V(xc)+E(xc)   XCENC  =        27.94851277
  PAW double counting   =      1843.51013865    -1797.96819543
  entropy T*S    EENTRO =        -0.00000000
  eigenvalues    EBANDS =      -154.91915274
  atomic energy  EATOM  =      1858.26651772
  ---------------------------------------------------
  free energy    TOTEN  =         3.21868250 eV

  energy without entropy =        3.21868250  energy(sigma->0) =        3.21868250


--------------------------------------------------------------------------------------------------------




--------------------------------------- Iteration      1(  10)  ---------------------------------------


    POTLOK:  cpu time      1.7083: real time      1.7085
    SETDIJ:  cpu time      0.1229: real time      0.1229
    TRIAL :  cpu time      0.2356: real time      0.2356
    CORREC:  cpu time      2.4545: real time      2.4547
    CHARGE:  cpu time      0.5600: real time      0.5600
    --------------------------------------------
      LOOP:  cpu time      5.0937: real time      5.0945

 eigenvalue-minimisations  :     0
 total energy-change (2. order) :-0.5362562E-02  (-0.9447364E-03)
 number of electron      21.9999998 magnetization 
 augmentation part        8.1753875 magnetization 

 DIPCOR: dipole corrections for dipol
 direction  3 min pos     1,
 dipolmoment           0.000000      0.000000     -0.000002 electrons x Angstroem
 Tr[quadrupol]     -4110.559701

 energy correction for charged system         0.000000 eV
 dipol+quadrupol energy correction           -0.000000 eV
 added-field ion interaction          0.000003 eV  (added to PSCEN)


 Free energy of the ion-electron system (eV)
  ---------------------------------------------------
  alpha Z        PSCENC =         0.47150473
  Ewald energy   TEWEN  =       224.31077076
  -Hartree energ DENC   =     -1998.18002942
  -exchange      EXHF   =         0.00000000
  -V(xc)+E(xc)   XCENC  =        27.94161246
  PAW double counting   =      1842.35137732    -1796.74667847
  entropy T*S    EENTRO =        -0.00000000
  eigenvalues    EBANDS =      -155.20175516
  atomic energy  EATOM  =      1858.26651772
  ---------------------------------------------------
  free energy    TOTEN  =         3.21331993 eV

  energy without entropy =        3.21331993  energy(sigma->0) =        3.21331993


--------------------------------------------------------------------------------------------------------




--------------------------------------- Iteration      1(  11)  ---------------------------------------


    POTLOK:  cpu time      1.7025: real time      1.7026
    SETDIJ:  cpu time      0.1245: real time      0.1245
    TRIAL :  cpu time      0.2359: real time      0.2359
    CORREC:  cpu time      2.4534: real time      2.4541
    CHARGE:  cpu time      0.5610: real time      0.5610
    --------------------------------------------
      LOOP:  cpu time      5.0821: real time      5.0917

 eigenvalue-minimisations  :     0
 total energy-change (2. order) :-0.9458362E-03  (-0.1865864E-03)
 number of electron      21.9999998 magnetization 
 augmentation part        8.1784991 magnetization 

 DIPCOR: dipole corrections for dipol
 direction  3 min pos     1,
 dipolmoment           0.000000      0.000000     -0.000002 electrons x Angstroem
 Tr[quadrupol]     -4110.562085

 energy correction for charged system         0.000000 eV
 dipol+quadrupol energy correction           -0.000000 eV
 added-field ion interaction          0.000002 eV  (added to PSCEN)


 Free energy of the ion-electron system (eV)
  ---------------------------------------------------
  alpha Z        PSCENC =         0.47150314
  Ewald energy   TEWEN  =       224.31077076
  -Hartree energ DENC   =     -1997.59939482
  -exchange      EXHF   =         0.00000000
  -V(xc)+E(xc)   XCENC  =        27.92417070
  PAW double counting   =      1840.78144197    -1795.16862637
  entropy T*S    EENTRO =        -0.00000000
  eigenvalues    EBANDS =      -155.77400900
  atomic energy  EATOM  =      1858.26651772
  ---------------------------------------------------
  free energy    TOTEN  =         3.21237410 eV

  energy without entropy =        3.21237410  energy(sigma->0) =        3.21237410


--------------------------------------------------------------------------------------------------------




--------------------------------------- Iteration      1(  12)  ---------------------------------------


    POTLOK:  cpu time      1.6992: real time      1.6993
    SETDIJ:  cpu time      0.1226: real time      0.1226
    TRIAL :  cpu time      0.2366: real time      0.2366
    CORREC:  cpu time      2.4505: real time      2.4507
    CHARGE:  cpu time      0.5574: real time      0.5574
    --------------------------------------------
      LOOP:  cpu time      5.0704: real time      5.0793

 eigenvalue-minimisations  :     0
 total energy-change (2. order) :-0.1863455E-03  (-0.4842467E-04)
 number of electron      21.9999998 magnetization 
 augmentation part        8.1777818 magnetization 

 DIPCOR: dipole corrections for dipol
 direction  3 min pos     1,
 dipolmoment           0.000000      0.000000     -0.000002 electrons x Angstroem
 Tr[quadrupol]     -4110.561482

 energy correction for charged system         0.000000 eV
 dipol+quadrupol energy correction           -0.000000 eV
 added-field ion interaction          0.000002 eV  (added to PSCEN)


 Free energy of the ion-electron system (eV)
  ---------------------------------------------------
  alpha Z        PSCENC =         0.47150249
  Ewald energy   TEWEN  =       224.31077076
  -Hartree energ DENC   =     -1998.09195401
  -exchange      EXHF   =         0.00000000
  -V(xc)+E(xc)   XCENC  =        27.93990835
  PAW double counting   =      1841.42184357    -1795.80366786
  entropy T*S    EENTRO =        -0.00000000
  eigenvalues    EBANDS =      -155.30273327
  atomic energy  EATOM  =      1858.26651772
  ---------------------------------------------------
  free energy    TOTEN  =         3.21218775 eV

  energy without entropy =        3.21218775  energy(sigma->0) =        3.21218775


--------------------------------------------------------------------------------------------------------




--------------------------------------- Iteration      1(  13)  ---------------------------------------


    POTLOK:  cpu time      1.6993: real time      1.6995
    SETDIJ:  cpu time      0.1217: real time      0.1217
    TRIAL :  cpu time      0.2362: real time      0.2362
    CORREC:  cpu time      2.4521: real time      2.4527
    CHARGE:  cpu time      0.5593: real time      0.5593
    --------------------------------------------
      LOOP:  cpu time      5.0770: real time      5.0860

 eigenvalue-minimisations  :     0
 total energy-change (2. order) :-0.4863861E-04  (-0.7890684E-05)
 number of electron      21.9999998 magnetization 
 augmentation part        8.1777261 magnetization 

 DIPCOR: dipole corrections for dipol
 direction  3 min pos     1,
 dipolmoment           0.000000      0.000000     -0.000002 electrons x Angstroem
 Tr[quadrupol]     -4110.560736

 energy correction for charged system         0.000000 eV
 dipol+quadrupol energy correction           -0.000000 eV
 added-field ion interaction          0.000002 eV  (added to PSCEN)


 Free energy of the ion-electron system (eV)
  ---------------------------------------------------
  alpha Z        PSCENC =         0.47150226
  Ewald energy   TEWEN  =       224.31077076
  -Hartree energ DENC   =     -1997.94641371
  -exchange      EXHF   =         0.00000000
  -V(xc)+E(xc)   XCENC  =        27.93496812
  PAW double counting   =      1841.13961709    -1795.52268781
  entropy T*S    EENTRO =        -0.00000000
  eigenvalues    EBANDS =      -155.44213533
  atomic energy  EATOM  =      1858.26651772
  ---------------------------------------------------
  free energy    TOTEN  =         3.21213911 eV

  energy without entropy =        3.21213911  energy(sigma->0) =        3.21213911


--------------------------------------------------------------------------------------------------------




--------------------------------------- Iteration      1(  14)  ---------------------------------------


    POTLOK:  cpu time      1.6968: real time      1.6970
    SETDIJ:  cpu time      0.1234: real time      0.1234
    TRIAL :  cpu time      0.2362: real time      0.2362
    CORREC:  cpu time      2.4547: real time      2.4550
    CHARGE:  cpu time      0.5612: real time      0.5612
    --------------------------------------------
      LOOP:  cpu time      5.0850: real time      5.0859

 eigenvalue-minimisations  :     0
 total energy-change (2. order) :-0.7937932E-05  (-0.1348856E-05)
 number of electron      21.9999998 magnetization 
 augmentation part        8.1778648 magnetization 

 DIPCOR: dipole corrections for dipol
 direction  3 min pos     1,
 dipolmoment           0.000000      0.000000     -0.000002 electrons x Angstroem
 Tr[quadrupol]     -4110.560738

 energy correction for charged system         0.000000 eV
 dipol+quadrupol energy correction           -0.000000 eV
 added-field ion interaction          0.000002 eV  (added to PSCEN)


 Free energy of the ion-electron system (eV)
  ---------------------------------------------------
  alpha Z        PSCENC =         0.47150220
  Ewald energy   TEWEN  =       224.31077076
  -Hartree energ DENC   =     -1997.92344834
  -exchange      EXHF   =         0.00000000
  -V(xc)+E(xc)   XCENC  =        27.93434130
  PAW double counting   =      1841.15131559    -1795.53464534
  entropy T*S    EENTRO =        -0.00000000
  eigenvalues    EBANDS =      -155.46422271
  atomic energy  EATOM  =      1858.26651772
  ---------------------------------------------------
  free energy    TOTEN  =         3.21213118 eV

  energy without entropy =        3.21213118  energy(sigma->0) =        3.21213118


--------------------------------------------------------------------------------------------------------




--------------------------------------- Iteration      1(  15)  ---------------------------------------


    POTLOK:  cpu time      1.6989: real time      1.6990
    SETDIJ:  cpu time      0.1207: real time      0.1207
    TRIAL :  cpu time      0.2356: real time      0.2357
    CORREC:  cpu time      2.4517: real time      2.4524
    CHARGE:  cpu time      0.5577: real time      0.5577
    --------------------------------------------
      LOOP:  cpu time      5.0705: real time      5.0791

 eigenvalue-minimisations  :     0
 total energy-change (2. order) :-0.1287501E-05  (-0.2475805E-06)
 number of electron      21.9999998 magnetization 
 augmentation part        8.1777436 magnetization 

 DIPCOR: dipole corrections for dipol
 direction  3 min pos     1,
 dipolmoment           0.000000      0.000000     -0.000002 electrons x Angstroem
 Tr[quadrupol]     -4110.560549

 energy correction for charged system         0.000000 eV
 dipol+quadrupol energy correction           -0.000000 eV
 added-field ion interaction          0.000002 eV  (added to PSCEN)


 Free energy of the ion-electron system (eV)
  ---------------------------------------------------
  alpha Z        PSCENC =         0.47150218
  Ewald energy   TEWEN  =       224.31077076
  -Hartree energ DENC   =     -1997.95214308
  -exchange      EXHF   =         0.00000000
  -V(xc)+E(xc)   XCENC  =        27.93526141
  PAW double counting   =      1841.22846202    -1795.61195248
  entropy T*S    EENTRO =        -0.00000000
  eigenvalues    EBANDS =      -155.43628863
  atomic energy  EATOM  =      1858.26651772
  ---------------------------------------------------
  free energy    TOTEN  =         3.21212989 eV

  energy without entropy =        3.21212989  energy(sigma->0) =        3.21212989


--------------------------------------------------------------------------------------------------------




--------------------------------------- Iteration      1(  16)  ---------------------------------------


    POTLOK:  cpu time      1.6987: real time      1.6989
    SETDIJ:  cpu time      0.1209: real time      0.1209
    TRIAL :  cpu time      0.2356: real time      0.2356
    CORREC:  cpu time      2.4521: real time      2.4523
    EDDIAG:  cpu time      0.0996: real time      0.1003
    CHARGE:  cpu time      0.5625: real time      0.5626
    --------------------------------------------
      LOOP:  cpu time      5.1752: real time      5.1846

 eigenvalue-minimisations  :     0
 total energy-change (2. order) :-0.2388713E-06  (-0.6328131E-07)
 number of electron      21.9999998 magnetization 
 augmentation part        8.1776987 magnetization 

 DIPCOR: dipole corrections for dipol
 direction  3 min pos     1,
 dipolmoment           0.000000      0.000000     -0.000002 electrons x Angstroem
 Tr[quadrupol]     -4110.560487

 energy correction for charged system         0.000000 eV
 dipol+quadrupol energy correction           -0.000000 eV
 added-field ion interaction          0.000002 eV  (added to PSCEN)


 Free energy of the ion-electron system (eV)
  ---------------------------------------------------
  alpha Z        PSCENC =         0.47150218
  Ewald energy   TEWEN  =       224.31077076
  -Hartree energ DENC   =     -1997.93381424
  -exchange      EXHF   =         0.00000000
  -V(xc)+E(xc)   XCENC  =        27.93467803
  PAW double counting   =      1841.20468931    -1795.58852481
  entropy T*S    EENTRO =        -0.00000000
  eigenvalues    EBANDS =      -155.45368930
  atomic energy  EATOM  =      1858.26651772
  ---------------------------------------------------
  free energy    TOTEN  =         3.21212965 eV

  energy without entropy =        3.21212965  energy(sigma->0) =        3.21212965


--------------------------------------------------------------------------------------------------------


  average scaling for gradient   1.4662


 average (electrostatic) potential at core
  the test charge radii are     1.2098
  (the norm of the test charge is              1.0000)
       1 -76.5717       2 -76.5717



 E-fermi :  -6.1415     XC(G=0):  -0.2321     alpha+bet : -0.0481

 Fermi energy:        -6.1415447422

 k-point     1 :       0.0000    0.0000    0.0000
  band No.  band energies     occupation 
      1      -8.9876      2.00000
      2      -7.8626      2.00000
      3      -7.8626      2.00000
      4      -6.9627      2.00000
      5      -6.9627      2.00000
      6      -6.6646      2.00000
      7      -6.6646      2.00000
      8      -6.5100      2.00000
      9      -6.4372      2.00000
     10      -6.4371      2.00000
     11      -6.3788      2.00000
     12      -4.4506      0.00000
     13      -1.3280      0.00000
     14      -1.3279      0.00000
     15      -1.0197      0.00000
     16      -0.0845      0.00000
     17       0.0591      0.00000
     18       0.1079      0.00000
     19       0.1435      0.00000
     20       0.2092      0.00000
     21       0.2381      0.00000
     22       0.2713      0.00000
     23       0.3184      0.00000
     24       0.4190      0.00000
     25       0.5023      0.00000
     26       0.5325      0.00000
     27       0.5342      0.00000
     28       0.5709      0.00000
     29       0.5835      0.00000
     30       0.6076      0.00000
     31       0.6140      0.00000
     32       0.6230      0.00000
     33       0.6406      0.00000
     34       0.6426      0.00000
     35       0.6634      0.00000
     36       0.7251      0.00000
     37       0.8768      0.00000
     38       0.8929      0.00000
     39       0.9068      0.00000
     40       0.9118      0.00000
     41       0.9170      0.00000
     42       0.9213      0.00000
     43       0.9314      0.00000
     44       1.0376      0.00000
     45       1.0677      0.00000
     46       1.1642      0.00000
     47       1.1891      0.00000
     48       1.2554      0.00000
     49       1.2597      0.00000
     50       1.3485      0.00000
     51       1.3631      0.00000
     52       1.3851      0.00000
     53       1.4052      0.00000
     54       1.4370      0.00000
     55       1.4747      0.00000
     56       1.4819      0.00000
     57       1.4839      0.00000
     58       1.4916      0.00000
     59       1.5180      0.00000
     60       1.5310      0.00000
     61       1.5716      0.00000
     62       1.5794      0.00000
     63       1.5837      0.00000
     64       1.5915      0.00000


--------------------------------------------------------------------------------------------------------


 soft charge-density along one line, spin component           1
         0         1         2         3         4         5         6         7         8         9
 total charge-density along one line

 pseudopotential strength for first ion, spin component:           1
 -9.273   0.000  -0.065  -0.000  -0.000  -9.396   0.000  -0.064
  0.000  -9.207   0.000   0.047  -0.000   0.000  -9.331   0.000
 -0.065   0.000  -9.198  -0.000  -0.000  -0.064   0.000  -9.322
 -0.000   0.047  -0.000  -9.207  -0.000  -0.000   0.046  -0.000
 -0.000  -0.000  -0.000  -0.000  -9.254  -0.000  -0.000  -0.000
 -9.396   0.000  -0.064  -0.000  -0.000  -9.503   0.000  -0.063
  0.000  -9.331   0.000   0.046  -0.000   0.000  -9.440   0.000
 -0.064   0.000  -9.322  -0.000  -0.000  -0.063   0.000  -9.431
 -0.000   0.046  -0.000  -9.331  -0.000  -0.000   0.045  -0.000
 -0.000  -0.000  -0.000  -0.000  -9.377  -0.000  -0.000  -0.000
 -0.039   0.000  -0.022  -0.000   0.000  -0.039   0.000  -0.022
 -0.056   0.000  -0.033  -0.000   0.000  -0.057   0.000  -0.033
  0.026  -0.000   0.015   0.000   0.027   0.026  -0.000   0.015
  0.000  -0.027   0.000   0.027   0.000   0.000  -0.026   0.000
 -0.026   0.000  -0.015  -0.000   0.027  -0.026   0.000  -0.015
  0.031   0.000   0.018   0.000   0.030   0.030   0.000   0.018
  0.000  -0.030   0.000   0.030   0.000   0.000  -0.030   0.000
 -0.031   0.000  -0.018   0.000   0.030  -0.030   0.000  -0.018
 total augmentation occupancy for first ion, spin component:           1
  2.882   0.000   0.361   0.000  -0.000  -1.063   0.000  -0.531   0.000   0.000   1.312  -0.163   0.110   0.000  -0.110   0.015
 -0.000   2.450  -0.000  -0.193   0.000  -0.000  -0.375   0.000   0.232   0.000   0.000   0.000  -0.000  -0.026   0.000  -0.000
  0.361  -0.000   2.465   0.000  -0.000  -0.531   0.000  -0.449  -0.000   0.000   0.757  -0.094   0.064   0.000  -0.064   0.008
  0.000  -0.193   0.000   2.450   0.000   0.000   0.232  -0.000  -0.375   0.000   0.000   0.000   0.000   0.026  -0.000   0.000
 -0.000   0.000  -0.000   0.000   2.643   0.000  -0.000   0.000  -0.000  -0.607  -0.000   0.000   0.026   0.000   0.026   0.027
 -1.063  -0.000  -0.531  -0.000   0.000   1.182   0.000   0.664   0.000  -0.000  -1.067   0.143  -0.169  -0.000   0.169   0.011
  0.000  -0.375   0.000   0.232  -0.000   0.000   0.297   0.000  -0.265  -0.000   0.000   0.000   0.000   0.051  -0.000   0.000
 -0.531  -0.000  -0.449  -0.000   0.000   0.664   0.000   0.415   0.000  -0.000  -0.616   0.082  -0.098   0.000   0.098   0.006
  0.000   0.232  -0.000  -0.375  -0.000   0.000  -0.265   0.000   0.297  -0.000  -0.000   0.000  -0.000  -0.051  -0.000   0.000
  0.000   0.000   0.000   0.000  -0.607  -0.000  -0.000  -0.000  -0.000   0.562   0.000  -0.000  -0.051   0.000  -0.051   0.000
  1.312  -0.000   0.757  -0.000  -0.000  -1.067  -0.000  -0.616   0.000   0.000   1.571  -0.144   0.164   0.000  -0.164  -0.007
 -0.163   0.000  -0.094   0.000   0.000   0.143   0.000   0.082  -0.000  -0.000  -0.144   0.018  -0.020   0.000   0.020   0.001
  0.110   0.000   0.064   0.000   0.026  -0.169   0.000  -0.098   0.000  -0.051   0.164  -0.020   0.031   0.000  -0.021  -0.003
  0.000  -0.026   0.000   0.026   0.000   0.000   0.051  -0.000  -0.051   0.000   0.000   0.000   0.000   0.010   0.000  -0.000
 -0.110   0.000  -0.064   0.000   0.026   0.169   0.000   0.098  -0.000  -0.051  -0.164   0.020  -0.021   0.000   0.031   0.002
  0.015  -0.000   0.008  -0.000   0.027   0.011   0.000   0.006   0.000   0.000  -0.007   0.001  -0.003  -0.000   0.002   0.001
 -0.000  -0.027   0.000   0.027   0.000  -0.000  -0.000  -0.000   0.000   0.000   0.000   0.000   0.000  -0.001   0.000   0.000
 -0.015   0.000  -0.008  -0.000   0.027  -0.011  -0.000  -0.006   0.000   0.000   0.007  -0.001   0.002  -0.000  -0.003  -0.000


------------------------ aborting loop because EDIFF is reached ----------------------------------------


    FORLOC:  cpu time      0.0024: real time      0.0024
    FORNL :  cpu time      0.1182: real time      0.1183
    STRESS:  cpu time      0.3569: real time      0.3570
    FORCOR:  cpu time      1.6381: real time      1.6383
    OFIELD:  cpu time      0.0008: real time      0.0008

  FORCE on cell =-STRESS in cart. coord.  units (eV):
  Direction    XX          YY          ZZ          XY          YZ          ZX
  --------------------------------------------------------------------------------------
  Alpha Z     0.47150     0.47150     0.47150
  Ewald     196.45008   196.45008  -168.58943  -337.27127    -0.00000    -0.00000
  Hartree   750.32070   750.32070   497.28562  -225.85362     0.00000    -0.00000
  E(xc)     -98.43521   -98.43521   -98.74590    -0.31068     0.00000    -0.00000
  Local   -1277.95361 -1277.95361  -674.29719   548.70809    -0.00000     0.00000
  n-local   -15.98517   -15.98517    -7.26815     8.71794     0.00000     0.00000
  augment   135.02796   135.02796   136.79512     1.76667    -0.00000    -0.00000
  Kinetic   309.36566   309.36566   314.31706     4.95023    -0.00000    -0.00000
  Fock        0.00000     0.00000     0.00000     0.00000     0.00000     0.00000
  -------------------------------------------------------------------------------------
  Total      -0.73810    -0.73810    -0.03138     0.70736     0.00000     0.00000
  in kB      -0.11967    -0.11967    -0.00509     0.11469     0.00000     0.00000
  external pressure =       -0.08 kB  Pullay stress =        0.00 kB


 VOLUME and BASIS-vectors are now :
 -----------------------------------------------------------------------------
  energy-cutoff  :      520.00
  volume of cell :     9881.61
      direct lattice vectors                 reciprocal lattice vectors
    21.138852197  0.000000000  0.000000000     0.047306258  0.000000000  0.000000000
     0.000000000 21.138852197  0.000000000     0.000000000  0.047306258  0.000000000
     0.000000000  0.000000000 22.113885220     0.000000000  0.000000000  0.045220457

  length of vectors
    21.138852197 21.138852197 22.113885220     0.047306258  0.047306258  0.045220457


 FORCES acting on ions:
    Electron-Ion                     Ewald-Force                    Non-Local-Force
 -----------------------------------------------------------------------------------------------
   -.193E+03 0.193E+03 0.171E-04   0.187E+03 -.187E+03 -.664E-16   0.494E+01 -.494E+01 0.171E-19
   0.193E+03 -.193E+03 0.171E-04   -.187E+03 0.187E+03 -.483E-17   -.494E+01 0.494E+01 -.335E-19
 -----------------------------------------------------------------------------------------------
   0.146E-06 0.110E-05 0.427E-04   0.000E+00 0.000E+00 -.713E-16   0.000E+00 0.000E+00 -.164E-19


 POSITION                                       TOTAL-FORCE (eV/Angst)
 -----------------------------------------------------------------------------------
     11.47244      9.66642     13.67302        -0.390279      0.390279      0.000000
      9.66642     11.47244     13.67302         0.390279     -0.390279     -0.000000
 -----------------------------------------------------------------------------------
    total drift:                                0.000000      0.000001      0.000043


--------------------------------------------------------------------------------------------------------



  FREE ENERGIE OF THE ION-ELECTRON SYSTEM (eV)
  ---------------------------------------------------
  free  energy   TOTEN  =         3.21212965 eV

  energy  without entropy=        3.21212965  energy(sigma->0) =        3.21212965



--------------------------------------------------------------------------------------------------------


    POTLOK:  cpu time      1.8403: real time      1.8411


--------------------------------------------------------------------------------------------------------


     LOOP+:  cpu time     66.4249: real time     66.5387
    4ORBIT:  cpu time      0.0000: real time      0.0000

 total amount of memory used by VASP MPI-rank0   125810. kBytes
=======================================================================

   base      :      30000. kBytes
   nonlr-proj:        706. kBytes
   fftplans  :      38424. kBytes
   grid      :      53473. kBytes
   one-center:         15. kBytes
   wavefun   :       3192. kBytes

  
  
 General timing and accounting informations for this job:
 ========================================================
  
                  Total CPU time used (sec):       80.961
                            User time (sec):       78.646
                          System time (sec):        2.315
                         Elapsed time (sec):       85.548
  
                   Maximum memory used (kb):      478492.
                   Average memory used (kb):          N/A
  
                          Minor page faults:        86882
                          Major page faults:            0
                 Voluntary context switches:         6540
