 vasp.6.3.0 20Jan22 (build Apr  1 2022 16:44:48) complex                         
 executed on        HPECrayEX_GCC date 2023.01.06  21:37:32
 running  768 mpi-ranks, with    1 threads/rank
 distrk:  each k-point on  384 cores,    2 groups
 distr:  one band on NCORE=   4 cores,   96 groups


--------------------------------------------------------------------------------------------------------


 INCAR:
   SYSTEM = MgO-rocksalt
   ISMEAR = 0
   SIGMA = 0.05
   EDIFF = 1E-6
   ALGO = ALL
   ISTART = 0
   IBRION = -1
   NSW = 0
   ISYM = 2
   GGA = MK
   PARAM1 = 0.1234
   PARAM2 = 1.0
   LUSE_VDW = .TRUE.
   AGGAC = 0.0
   ENCUT = 520
   PREC = Accurate
   LASPH = .TRUE.
   LREAL = Auto
   ISPIN = 1
   NELM = 200
   NELMIN = 8
   NCORE = 4
   KPAR = 2
   LWAVE = .FALSE.
   LCHARG = .FALSE.

 POTCAR:    PAW_PBE Cu 22Jun2005                  
 -----------------------------------------------------------------------------
|                                                                             |
|               ----> ADVICE to this user running VASP <----                  |
|                                                                             |
|     You have switched on vdW-DFT.                                           |
|     This routine was written and supplied by Jiri Klimes. We recommend      |
|     that you carefully read and cite the following publications:            |
|       J. Klimes, D.R. Bowler, A. Michelides                                 |
|          J. Phys.: Cond Matt. 22 022201 (2010)                              |
|       J. Klimes, D.R. Bowler, A. Michelides                                 |
|          Phys. Rev. B. 83, 195131 (2011)                                    |
|     and references therein.                                                 |
|                                                                             |
 -----------------------------------------------------------------------------

 POTCAR:    PAW_PBE Cu 22Jun2005                  
   SHA256 =  0e71e558f37a4e8407882b4609ceaae59938afaad9ced71dfe8490308a0ab630 Cu/POTCAR             
   COPYR  = (c) Copyright 22Jun2005 Georg Kresse                                                    
   COPYR  = This file is part of the software VASP. Any use, copying, and all other rights are regul
   COPYR  = If you do not have a valid VASP license, you may not use, copy or distribute this file. 
   VRHFIN =Cu: d10 p1                                                                               
   LEXCH  = PE                                                                                      
   EATOM  =  1390.9808 eV,  102.2342 Ry                                                             
                                                                                                    
   TITEL  = PAW_PBE Cu 22Jun2005                                                                    
   LULTRA =        F    use ultrasoft PP ?                                                          
   IUNSCR =        1    unscreen: 0-lin 1-nonlin 2-no                                               
   RPACOR =    2.000    partial core radius                                                         
   POMASS =   63.546; ZVAL   =   11.000    mass and valenz                                          
   RCORE  =    2.300    outmost cutoff radius                                                       
   RWIGS  =    2.200; RWIGS  =    1.164    wigner-seitz radius (au A)                               
   ENMAX  =  295.446; ENMIN  =  221.585 eV                                                          
   ICORE  =        3    local potential                                                             
   LCOR   =        T    correct aug charges                                                         
   LPAW   =        T    paw PP                                                                      
   EAUG   =  586.980                                                                                
   DEXC   =    0.000                                                                                
   RMAX   =    2.344    core radius for proj-oper                                                   
   RAUG   =    1.300    factor for augmentation sphere                                              
   RDEP   =    2.302    radius for radial grids                                                     
   RDEPT  =    1.771    core radius for aug-charge                                                  
                                                                                                    
   Atomic configuration                                                                             
    9 entries                                                                                       
     n  l   j            E        occ.                                                              
     1  0  0.50     -8850.2468   2.0000                                                             
     2  0  0.50     -1062.3498   2.0000                                                             
     2  1  1.50      -916.8226   6.0000                                                             
     3  0  0.50      -114.6929   2.0000                                                             
     3  1  1.50       -72.1325   6.0000                                                             
     3  2  2.50        -5.0394  10.0000                                                             
     4  0  0.50        -4.6097   1.0000                                                             
     4  1  0.50        -4.0817   0.0000                                                             
     4  3  2.50        -1.3606   0.0000                                                             
   Description                                                                                      
     l       E           TYP  RCUT    TYP  RCUT                                                     
     2     -5.0393973     23  2.200                                                                 
     2     10.8846608     23  2.200                                                                 
     0     -4.6097109     23  2.200                                                                 
     0      8.2520465     23  2.200                                                                 
     1     -2.7211652     23  2.200                                                                 
     1     21.7055443     23  2.200                                                                 
     3      2.7211652     23  2.300                                                                 
  local pseudopotential read in
  partial core-charges read in
  partial kinetic energy density read in
  atomic valenz-charges read in
  non local Contribution for L=           2  read in
    real space projection operators read in
  non local Contribution for L=           2  read in
    real space projection operators read in
  non local Contribution for L=           0  read in
    real space projection operators read in
  non local Contribution for L=           0  read in
    real space projection operators read in
  non local Contribution for L=           1  read in
    real space projection operators read in
  non local Contribution for L=           1  read in
    real space projection operators read in
    PAW grid and wavefunctions read in

   number of l-projection  operators is LMAX  =           6
   number of lm-projection operators is LMMAX =          18

 -----------------------------------------------------------------------------
|                                                                             |
|               ----> ADVICE to this user running VASP <----                  |
|                                                                             |
|     You have a (more or less) 'small supercell' and for smaller cells       |
|     it is recommended to use the reciprocal-space projection scheme!        |
|     The real-space optimization is not efficient for small cells and it     |
|     is also less accurate ...                                               |
|     Therefore, set LREAL=.FALSE. in the INCAR file.                         |
|                                                                             |
 -----------------------------------------------------------------------------

 Optimization of the real space projectors (new method)

 maximal supplied QI-value         = 16.25
 optimisation between [QCUT,QGAM] = [ 11.54, 23.24] = [ 37.28,151.24] Ry 
 Optimized for a Real-space Cutoff    1.53 Angstroem

   l    n(q)    QCUT    max X(q) W(low)/X(q) W(high)/X(q)  e(spline) 
   2     10    11.539     4.610    0.96E-04    0.13E-03    0.19E-06
   2     10    11.539     8.522    0.16E-03    0.21E-03    0.28E-06
   0     11    11.539    51.609    0.45E-04    0.31E-04    0.11E-06
   0     11    11.539    27.747    0.39E-04    0.29E-04    0.10E-06
   1     10    11.539    20.408    0.70E-05    0.38E-04    0.18E-06
   1     10    11.539    13.425    0.66E-05    0.34E-04    0.17E-06
 -----------------------------------------------------------------------------
|                                                                             |
|               ----> ADVICE to this user running VASP <----                  |
|                                                                             |
|     You enforced a specific xc type in the INCAR file but a different       |
|     type was found in the POTCAR file.                                      |
|     I HOPE YOU KNOW WHAT YOU ARE DOING!                                     |
|                                                                             |
 -----------------------------------------------------------------------------

  PAW_PBE Cu 22Jun2005                  :
 energy of atom  1       EATOM=-1390.9808
 kinetic energy error for atom=    0.0037 (will be added to EATOM!!)


 POSCAR: Cu
  positions in direct lattice
  velocities in cartesian coordinates
 exchange correlation table for  LEXCH =       43
   RHO(1)=    0.500       N(1)  =     2000
   RHO(2)=  100.500       N(2)  =     4000



--------------------------------------------------------------------------------------------------------


 ion  position               nearest neighbor table
   1  0.394  0.471  0.554-   4 2.33   2 2.33
   2  0.470  0.541  0.500-   1 2.33   5 2.33   4 2.39   3 2.40
   3  0.579  0.500  0.475-   6 2.33   5 2.33   2 2.40   4 2.40
   4  0.500  0.430  0.530-   1 2.33   6 2.33   2 2.39   3 2.40
   5  0.548  0.609  0.447-   2 2.33   3 2.33
   6  0.607  0.391  0.505-   4 2.33   3 2.33

  LATTYP: Found a simple cubic cell.
 ALAT       =    20.0000000000
  
  Lattice vectors:
  
 A1 = (  20.0000000000,   0.0000000000,   0.0000000000)
 A2 = (   0.0000000000,  20.0000000000,   0.0000000000)
 A3 = (   0.0000000000,   0.0000000000,  20.0000000000)


Analysis of symmetry for initial positions (statically):
=====================================================================
 Subroutine PRICEL returns:
 Original cell was already a primitive cell.
 

 Routine SETGRP: Setting up the symmetry group for a 
 simple cubic supercell.


 Subroutine GETGRP returns: Found  1 space group operations
 (whereof  1 operations were pure point group operations)
 out of a pool of 48 trial point group operations.


The static configuration has the point symmetry C_1 .


Analysis of symmetry for dynamics (positions and initial velocities):
=====================================================================
 Subroutine PRICEL returns:
 Original cell was already a primitive cell.
 

 Routine SETGRP: Setting up the symmetry group for a 
 simple cubic supercell.


 Subroutine GETGRP returns: Found  1 space group operations
 (whereof  1 operations were pure point group operations)
 out of a pool of 48 trial point group operations.


The dynamic configuration has the point symmetry C_1 .


 Subroutine INISYM returns: Found  1 space group operations
 (whereof  1 operations are pure point group operations),
 and found     1 'primitive' translations


----------------------------------------------------------------------------------------

                                     Primitive cell                                     

  volume of cell :    8000.0000

  direct lattice vectors                    reciprocal lattice vectors
    20.000000000  0.000000000  0.000000000     0.050000000  0.000000000  0.000000000
     0.000000000 20.000000000  0.000000000     0.000000000  0.050000000  0.000000000
     0.000000000  0.000000000 20.000000000     0.000000000  0.000000000  0.050000000

  length of vectors
    20.000000000 20.000000000 20.000000000     0.050000000  0.050000000  0.050000000

  position of ions in fractional coordinates (direct lattice)
     0.393703873  0.471222682  0.553557909
     0.469637415  0.541490206  0.500421234
     0.579136840  0.500178364  0.475035790
     0.499727263  0.429514446  0.530220389
     0.547903701  0.608579649  0.446519235
     0.606647900  0.391226891  0.505084819

  ion indices of the primitive-cell ions
   primitive index   ion index
                 1           1
                 2           2
                 3           3
                 4           4
                 5           5
                 6           6

----------------------------------------------------------------------------------------



 KPOINTS: KPOINTS created by Atomic Simulation Env

Automatic generation of k-mesh.
 Grid dimensions read from file:
 generate k-points for:    1    1    1

 Generating k-lattice:

  Cartesian coordinates                     Fractional coordinates (reciprocal lattice)
     0.050000000  0.000000000  0.000000000     1.000000000  0.000000000  0.000000000
     0.000000000  0.050000000  0.000000000     0.000000000  1.000000000  0.000000000
     0.000000000  0.000000000  0.050000000     0.000000000  0.000000000  1.000000000

  Length of vectors
     0.050000000  0.050000000  0.050000000

  Shift w.r.t. Gamma in fractional coordinates (k-lattice)
     0.000000000  0.000000000  0.000000000

 
 Subroutine IBZKPT returns following result:
 ===========================================
 
 Found      1 irreducible k-points:
 
 Following reciprocal coordinates:
            Coordinates               Weight
  0.000000  0.000000  0.000000      1.000000
 
 Following cartesian coordinates:
            Coordinates               Weight
  0.000000  0.000000  0.000000      1.000000
 


--------------------------------------------------------------------------------------------------------




 Dimension of arrays:
   k-points           NKPTS =      1   k-points in BZ     NKDIM =      1   number of bands    NBANDS=     96
   number of dos      NEDOS =    301   number of ions     NIONS =      6
   non local maximal  LDIM  =      6   non local SUM 2l+1 LMDIM =     18
   total plane-waves  NPLWV = ******
   max r-space proj   IRMAX =   6426   max aug-charges    IRDMAX=  12418
   dimension x,y,z NGX =   150 NGY =  150 NGZ =  150
   dimension x,y,z NGXF=   300 NGYF=  300 NGZF=  300
   support grid    NGXF=   300 NGYF=  300 NGZF=  300
   ions per type =               6
   NGX,Y,Z   is equivalent  to a cutoff of  12.47, 12.47, 12.47 a.u.
   NGXF,Y,Z  is equivalent  to a cutoff of  24.94, 24.94, 24.94 a.u.

 SYSTEM =  MgO-rocksalt                            
 POSCAR =  Cu                                      

 Startparameter for this run:
   NWRITE =      2    write-flag & timer
   PREC   = accura    normal or accurate (medium, high low for compatibility)
   ISTART =      0    job   : 0-new  1-cont  2-samecut
   ICHARG =      2    charge: 1-file 2-atom 10-const
   ISPIN  =      1    spin polarized calculation?
   LNONCOLLINEAR =      F non collinear calculations
   LSORBIT =      F    spin-orbit coupling
   INIWAV =      1    electr: 0-lowe 1-rand  2-diag
   LASPH  =      T    aspherical Exc in radial PAW
 Electronic Relaxation 1
   ENCUT  =  520.0 eV  38.22 Ry    6.18 a.u.  37.19 37.19 37.19*2*pi/ulx,y,z
   ENINI  =  520.0     initial cutoff
   ENAUG  =  587.0 eV  augmentation charge cutoff
   NELM   =    200;   NELMIN=  8; NELMDL= -5     # of ELM steps 
   EDIFF  = 0.1E-05   stopping-criterion for ELM
   LREAL  =      T    real-space projection
   NLSPLINE    = F    spline interpolate recip. space projectors
   LCOMPAT=      F    compatible to vasp.4.4
   GGA_COMPAT  = T    GGA compatible to vasp.4.4-vasp.4.6
   LMAXPAW     = -100 max onsite density
   LMAXMIX     =    2 max onsite mixed and CHGCAR
   VOSKOWN=      0    Vosko Wilk Nusair interpolation
   ROPT   =   -0.00025
 Ionic relaxation
   EDIFFG = 0.1E-04   stopping-criterion for IOM
   NSW    =      0    number of steps for IOM
   NBLOCK =      1;   KBLOCK =      1    inner block; outer block 
   IBRION =     -1    ionic relax: 0-MD 1-quasi-New 2-CG
   NFREE  =      0    steps in history (QN), initial steepest desc. (CG)
   ISIF   =      2    stress and relaxation
   IWAVPR =     10    prediction:  0-non 1-charg 2-wave 3-comb
   ISYM   =      2    0-nonsym 1-usesym 2-fastsym
   LCORR  =      T    Harris-Foulkes like correction to forces

   POTIM  = 0.5000    time-step for ionic-motion
   TEIN   =    0.0    initial temperature
   TEBEG  =    0.0;   TEEND  =   0.0 temperature during run
   SMASS  =  -3.00    Nose mass-parameter (am)
   estimated Nose-frequenzy (Omega)   =  0.10E-29 period in steps = 0.13E+47 mass=  -0.914E-26a.u.
   SCALEE = 1.0000    scale energy and forces
   NPACO  =    256;   APACO  = 10.0  distance and # of slots for P.C.
   PSTRESS=    0.0 pullay stress

  Mass of Ions in am
   POMASS =  63.55
  Ionic Valenz
   ZVAL   =  11.00
  Atomic Wigner-Seitz radii
   RWIGS  =  -1.00
  virtual crystal weights 
   VCA    =   1.00
   NELECT =      66.0000    total number of electrons
   NUPDOWN=      -1.0000    fix difference up-down

 DOS related values:
   EMIN   =  10.00;   EMAX   =-10.00  energy-range for DOS
   EFERMI =   0.00
   ISMEAR =     0;   SIGMA  =   0.05  broadening in eV -4-tet -1-fermi 0-gaus

 Electronic relaxation 2 (details)
   IALGO  =     58    algorithm
   LDIAG  =      T    sub-space diagonalisation (order eigenvalues)
   LSUBROT=      F    optimize rotation matrix (better conditioning)
   TURBO    =      0    0=normal 1=particle mesh
   IRESTART =      0    0=no restart 2=restart with 2 vectors
   NREBOOT  =      0    no. of reboots
   NMIN     =      0    reboot dimension
   EREF     =   0.00    reference energy to select bands
   IMIX   =      4    mixing-type and parameters
     AMIX     =   0.40;   BMIX     =  1.00
     AMIX_MAG =   1.60;   BMIX_MAG =  1.00
     AMIN     =   0.10
     WC   =   100.;   INIMIX=   1;  MIXPRE=   1;  MAXMIX= -45

 Intra band minimization:
   WEIMIN = 0.0000     energy-eigenvalue tresh-hold
   EBREAK =  0.26E-08  absolut break condition
   DEPER  =   0.30     relativ break condition  

   TIME   =   0.40     timestep for ELM

  volume/ion in A,a.u.               =    1333.33      8997.78
  Fermi-wavevector in a.u.,A,eV,Ry     =   0.330795  0.625113  1.488826  0.109426
  Thomas-Fermi vector in A             =   1.226404

 Write flags
   LWAVE        =      F    write WAVECAR
   LDOWNSAMPLE  =      F    k-point downsampling of WAVECAR
   LCHARG       =      F    write CHGCAR
   LVTOT        =      F    write LOCPOT, total local potential
   LVHAR        =      F    write LOCPOT, Hartree potential only
   LELF         =      F    write electronic localiz. function (ELF)
   LORBIT       =      0    0 simple, 1 ext, 2 COOP (PROOUT), +10 PAW based schemes


 Dipole corrections
   LMONO  =      F    monopole corrections only (constant potential shift)
   LDIPOL =      F    correct potential (dipole corrections)
   IDIPOL =      0    1-x, 2-y, 3-z, 4-all directions 
   EPSILON=  1.0000000 bulk dielectric constant

 Exchange correlation treatment:
   GGA     =    MK    GGA type
   LEXCH   =    43    internal setting for exchange type
   LIBXC   =     F    Libxc                    
   VOSKOWN =     0    Vosko Wilk Nusair interpolation
   LHFCALC =     F    Hartree Fock is set to
   LHFONE  =     F    Hartree Fock one center treatment
   AEXX    =    0.0000 exact exchange contribution

 vdW DFT:
   LUSE_VDW   =     T    switch on vdW DFT
   Zab_VDW    =-.8491    correlation parameter
   PARAM1     =0.1234
   PARAM2     =1.0000
   PARAM3     =0.0000
   -- rVV10 --
   BPARAM     = 6.3000
   CPARAM     = 0.0093

 Linear response parameters
   LEPSILON=     F    determine dielectric tensor
   LRPA    =     F    only Hartree local field effects (RPA)
   LNABLA  =     F    use nabla operator in PAW spheres
   LVEL    =     F    velocity operator in full k-point grid
   CSHIFT  =0.1000    complex shift for real part using Kramers Kronig
   OMEGAMAX=  -1.0    maximum frequency
   DEG_THRESHOLD= 0.2000000E-02 threshold for treating states as degnerate
   RTIME   =   -0.100 relaxation time in fs
  (WPLASMAI=    0.000 imaginary part of plasma frequency in eV, 0.658/RTIME)
   DFIELD  = 0.0000000 0.0000000 0.0000000 field for delta impulse in time

  Optional k-point grid parameters
   LKPOINTS_OPT  =     F    use optional k-point grid
   KPOINTS_OPT_MODE=     1    mode for optional k-point grid

 Orbital magnetization related:
   ORBITALMAG=     F  switch on orbital magnetization
   LCHIMAG   =     F  perturbation theory with respect to B field
   DQ        =  0.001000  dq finite difference perturbation B field
   LLRAUG    =     F  two centre corrections for induced B field



--------------------------------------------------------------------------------------------------------


 Static calculation
 charge density and potential will be updated during run
 non-spin polarized calculation
 Conjugate gradient for all bands (Freysoldt, et al. PRB 79, 241103 (2009))
 preconditioned conjugated gradient                                        
 perform sub-space diagonalisation
    before iterative eigenvector-optimisation
 modified Broyden-mixing scheme, WC =      100.0
 initial mixing is a Kerker type mixing with AMIX =  0.4000 and BMIX =      1.0000
 Hartree-type preconditioning will be used
 using additional bands           63
 real space projection scheme for non local part
 use partial core corrections
 no Harris-corrections to forces 
 use gradient corrections 
 use of overlap-Matrix (Vanderbilt PP)
 Gauss-broadening in eV      SIGMA  =   0.05


--------------------------------------------------------------------------------------------------------


  energy-cutoff  :      520.00
  volume of cell :     8000.00
      direct lattice vectors                 reciprocal lattice vectors
    20.000000000  0.000000000  0.000000000     0.050000000  0.000000000  0.000000000
     0.000000000 20.000000000  0.000000000     0.000000000  0.050000000  0.000000000
     0.000000000  0.000000000 20.000000000     0.000000000  0.000000000  0.050000000

  length of vectors
    20.000000000 20.000000000 20.000000000     0.050000000  0.050000000  0.050000000



 k-points in units of 2pi/SCALE and weight: KPOINTS created by Atomic Simulation Env
   0.00000000  0.00000000  0.00000000       1.000

 k-points in reciprocal lattice and weights: KPOINTS created by Atomic Simulation Env
   0.00000000  0.00000000  0.00000000       1.000

 position of ions in fractional coordinates (direct lattice) 
   0.39370387  0.47122268  0.55355791
   0.46963741  0.54149021  0.50042123
   0.57913684  0.50017836  0.47503579
   0.49972726  0.42951445  0.53022039
   0.54790370  0.60857965  0.44651923
   0.60664790  0.39122689  0.50508482

 position of ions in cartesian coordinates  (Angst):
   7.87407745  9.42445364 11.07115817
   9.39274830 10.82980412 10.00842468
  11.58273680 10.00356728  9.50071580
   9.99454525  8.59028892 10.60440777
  10.95807401 12.17159298  8.93038470
  12.13295800  7.82453782 10.10169638



--------------------------------------------------------------------------------------------------------


 k-point   1 :   0.0000 0.0000 0.0000  plane waves:  215503

 maximum and minimum number of plane-waves per node :     53900    53857

 maximum number of plane-waves:    215503
 maximum index in each direction: 
   IXMAX=   37   IYMAX=   37   IZMAX=   37
   IXMIN=  -37   IYMIN=  -37   IZMIN=  -37


 real space projection operators:
  total allocation   :       5224.22 KBytes
  max/ min on nodes  :       1318.78       1294.45


 parallel 3D FFT for wavefunctions:
    minimum data exchange during FFTs selected (reduces bandwidth)
 parallel 3D FFT for charge:
    minimum data exchange during FFTs selected (reduces bandwidth)


 total amount of memory used by VASP MPI-rank0   101872. kBytes
=======================================================================

   base      :      30000. kBytes
   nonlr-proj:       2265. kBytes
   fftplans  :      28354. kBytes
   grid      :      38630. kBytes
   one-center:         31. kBytes
   wavefun   :       2592. kBytes

     INWAV:  cpu time      0.0001: real time      0.0001
 Broyden mixing: mesh for mixing (old mesh)
   NGX = 75   NGY = 75   NGZ = 75
  (NGX  =300   NGY  =300   NGZ  =300)
  gives a total of 421875 points

 initial charge density was supplied:
 charge density of overlapping atoms calculated
 number of electron      66.0000000 magnetization 
 keeping initial charge density in first step


--------------------------------------------------------------------------------------------------------


 Maximum index for non-local projection operator         1567
 Maximum index for augmentation-charges            0 (set IRDMAX)


--------------------------------------------------------------------------------------------------------


 First call to EWALD:  gamma=   0.089
 Maximum number of real-space cells 3x 3x 3
 Maximum number of reciprocal cells 3x 3x 3

    FEWALD:  cpu time      0.0018: real time      0.0018


--------------------------------------- Iteration      1(   1)  ---------------------------------------


vdW kernel read from vdw_kernel.bindat
  0.0000  0.2424  0.5071  0.7962  1.1119  1.4567  1.8333  2.2446  2.6937  3.1842
  3.7199  4.3049  4.9438  5.6415  6.4036  7.2358  8.1446  9.1372 10.2212 11.4050
 12.6979 14.1099 15.6519 17.3360 19.1751 21.1837 23.3773 25.7729 28.3892 31.2465
 34.3669 37.7748 41.4965 45.5611 50.0000

    POTLOK:  cpu time      2.1342: real time      2.1353
    SETDIJ:  cpu time      0.0011: real time      0.0011
    TRIAL :  cpu time      0.5393: real time      0.5395
    CORREC:  cpu time      0.0012: real time      0.0012
    --------------------------------------------
      LOOP:  cpu time      2.6768: real time      2.6783

 eigenvalue-minimisations  :   192
 total energy-change (2. order) : 0.3940020E+03  (-0.1497734E+04)
 number of electron      66.0000000 magnetization 
 augmentation part       66.0000000 magnetization 

 Free energy of the ion-electron system (eV)
  ---------------------------------------------------
  alpha Z        PSCENC =         3.29097617
  Ewald energy   TEWEN  =      4710.44008138
  -Hartree energ DENC   =    -12320.92909435
  -exchange      EXHF   =         0.00000000
  -V(xc)+E(xc)   XCENC  =       267.51108079
  PAW double counting   =      7374.17754986    -8004.41904562
  entropy T*S    EENTRO =        -0.11124821
  eigenvalues    EBANDS =        -5.03948249
  atomic energy  EATOM  =      8369.08117362
  ---------------------------------------------------
  free energy    TOTEN  =       394.00199115 eV

  energy without entropy =      394.11323935  energy(sigma->0) =      394.05761525


--------------------------------------------------------------------------------------------------------




--------------------------------------- Iteration      1(   2)  ---------------------------------------


    TRIAL :  cpu time      0.5318: real time      0.5320
    CORREC:  cpu time      0.0010: real time      0.0010
    --------------------------------------------
      LOOP:  cpu time      0.5360: real time      0.5408

 eigenvalue-minimisations  :   192
 total energy-change (2. order) :-0.3810670E+03  (-0.3789265E+03)
 number of electron      66.0000000 magnetization 
 augmentation part       66.0000000 magnetization 

 Free energy of the ion-electron system (eV)
  ---------------------------------------------------
  alpha Z        PSCENC =         3.29097617
  Ewald energy   TEWEN  =      4710.44008138
  -Hartree energ DENC   =    -12320.92909435
  -exchange      EXHF   =         0.00000000
  -V(xc)+E(xc)   XCENC  =       267.51108079
  PAW double counting   =      7374.17754986    -8004.41904562
  entropy T*S    EENTRO =        -0.00000000
  eigenvalues    EBANDS =      -386.21774390
  atomic energy  EATOM  =      8369.08117362
  ---------------------------------------------------
  free energy    TOTEN  =        12.93497794 eV

  energy without entropy =       12.93497794  energy(sigma->0) =       12.93497794


--------------------------------------------------------------------------------------------------------




--------------------------------------- Iteration      1(   3)  ---------------------------------------


    TRIAL :  cpu time      0.5421: real time      0.5421
    CORREC:  cpu time      0.0013: real time      0.0013
    --------------------------------------------
      LOOP:  cpu time      0.5463: real time      0.5504

 eigenvalue-minimisations  :   192
 total energy-change (2. order) :-0.9357752E+01  (-0.9357752E+01)
 number of electron      66.0000000 magnetization 
 augmentation part       66.0000000 magnetization 

 Free energy of the ion-electron system (eV)
  ---------------------------------------------------
  alpha Z        PSCENC =         3.29097617
  Ewald energy   TEWEN  =      4710.44008138
  -Hartree energ DENC   =    -12320.92909435
  -exchange      EXHF   =         0.00000000
  -V(xc)+E(xc)   XCENC  =       267.51108079
  PAW double counting   =      7374.17754986    -8004.41904562
  entropy T*S    EENTRO =        -0.00000000
  eigenvalues    EBANDS =      -395.57549581
  atomic energy  EATOM  =      8369.08117362
  ---------------------------------------------------
  free energy    TOTEN  =         3.57722603 eV

  energy without entropy =        3.57722603  energy(sigma->0) =        3.57722603


--------------------------------------------------------------------------------------------------------




--------------------------------------- Iteration      1(   4)  ---------------------------------------


    TRIAL :  cpu time      0.5353: real time      0.5355
    CORREC:  cpu time      0.0012: real time      0.0012
    --------------------------------------------
      LOOP:  cpu time      0.5438: real time      0.5445

 eigenvalue-minimisations  :   192
 total energy-change (2. order) :-0.1888698E+00  (-0.1888698E+00)
 number of electron      66.0000000 magnetization 
 augmentation part       66.0000000 magnetization 

 Free energy of the ion-electron system (eV)
  ---------------------------------------------------
  alpha Z        PSCENC =         3.29097617
  Ewald energy   TEWEN  =      4710.44008138
  -Hartree energ DENC   =    -12320.92909435
  -exchange      EXHF   =         0.00000000
  -V(xc)+E(xc)   XCENC  =       267.51108079
  PAW double counting   =      7374.17754986    -8004.41904562
  entropy T*S    EENTRO =        -0.00000000
  eigenvalues    EBANDS =      -395.76436565
  atomic energy  EATOM  =      8369.08117362
  ---------------------------------------------------
  free energy    TOTEN  =         3.38835619 eV

  energy without entropy =        3.38835619  energy(sigma->0) =        3.38835619


--------------------------------------------------------------------------------------------------------




--------------------------------------- Iteration      1(   5)  ---------------------------------------


    TRIAL :  cpu time      1.8604: real time      1.8609
    CORREC:  cpu time      0.0012: real time      0.0012
    CHARGE:  cpu time      0.0921: real time      0.0922
    --------------------------------------------
      LOOP:  cpu time      1.9559: real time      1.9618

 eigenvalue-minimisations  :   384
 total energy-change (2. order) :-0.3941546E-02  (-0.3941546E-02)
 number of electron      66.0000022 magnetization 
 augmentation part       41.1105010 magnetization 

 Free energy of the ion-electron system (eV)
  ---------------------------------------------------
  alpha Z        PSCENC =         3.29097617
  Ewald energy   TEWEN  =      4710.44008138
  -Hartree energ DENC   =    -12320.92909435
  -exchange      EXHF   =         0.00000000
  -V(xc)+E(xc)   XCENC  =       267.51108079
  PAW double counting   =      7374.17754986    -8004.41904562
  entropy T*S    EENTRO =        -0.00000000
  eigenvalues    EBANDS =      -395.76830720
  atomic energy  EATOM  =      8369.08117362
  ---------------------------------------------------
  free energy    TOTEN  =         3.38441464 eV

  energy without entropy =        3.38441464  energy(sigma->0) =        3.38441464


--------------------------------------------------------------------------------------------------------




--------------------------------------- Iteration      1(   6)  ---------------------------------------


    POTLOK:  cpu time      1.5385: real time      1.5390
    SETDIJ:  cpu time      0.0008: real time      0.0008
    TRIAL :  cpu time      1.3831: real time      1.3841
    CORREC:  cpu time      1.7100: real time      1.7105
    CHARGE:  cpu time      0.0892: real time      0.0892
    --------------------------------------------
      LOOP:  cpu time      4.7250: real time      4.7308

 eigenvalue-minimisations  :     0
 total energy-change (2. order) : 0.7017993E+01  (-0.4024891E+01)
 number of electron      66.0000023 magnetization 
 augmentation part       42.4804095 magnetization 

 Free energy of the ion-electron system (eV)
  ---------------------------------------------------
  alpha Z        PSCENC =         3.29097617
  Ewald energy   TEWEN  =      4710.44008138
  -Hartree energ DENC   =    -12224.93336064
  -exchange      EXHF   =         0.00000000
  -V(xc)+E(xc)   XCENC  =       258.22275276
  PAW double counting   =      7653.29103205    -8250.22451794
  entropy T*S    EENTRO =        -0.00000000
  eigenvalues    EBANDS =      -508.76572927
  atomic energy  EATOM  =      8369.08117362
  ---------------------------------------------------
  free energy    TOTEN  =        10.40240812 eV

  energy without entropy =       10.40240812  energy(sigma->0) =       10.40240812


--------------------------------------------------------------------------------------------------------




--------------------------------------- Iteration      1(   7)  ---------------------------------------


    POTLOK:  cpu time      1.5436: real time      1.5439
    SETDIJ:  cpu time      0.0010: real time      0.0009
    TRIAL :  cpu time      0.2051: real time      0.2051
    CORREC:  cpu time      1.7102: real time      1.7108
    CHARGE:  cpu time      0.0888: real time      0.0888
    --------------------------------------------
      LOOP:  cpu time      3.5566: real time      3.5578

 eigenvalue-minimisations  :     0
 total energy-change (2. order) :-0.3695645E+01  (-0.9339592E+00)
 number of electron      66.0000023 magnetization 
 augmentation part       42.2543121 magnetization 

 Free energy of the ion-electron system (eV)
  ---------------------------------------------------
  alpha Z        PSCENC =         3.29097617
  Ewald energy   TEWEN  =      4710.44008138
  -Hartree energ DENC   =    -12382.45407367
  -exchange      EXHF   =         0.00000000
  -V(xc)+E(xc)   XCENC  =       265.28906346
  PAW double counting   =      7749.40873450    -8397.29178074
  entropy T*S    EENTRO =        -0.00000000
  eigenvalues    EBANDS =      -311.05741163
  atomic energy  EATOM  =      8369.08117362
  ---------------------------------------------------
  free energy    TOTEN  =         6.70676309 eV

  energy without entropy =        6.70676309  energy(sigma->0) =        6.70676309


--------------------------------------------------------------------------------------------------------




--------------------------------------- Iteration      1(   8)  ---------------------------------------


    POTLOK:  cpu time      1.5443: real time      1.5449
    SETDIJ:  cpu time      0.0009: real time      0.0009
    TRIAL :  cpu time      0.2041: real time      0.2041
    CORREC:  cpu time      1.7132: real time      1.7138
    CHARGE:  cpu time      0.0896: real time      0.0897
    --------------------------------------------
      LOOP:  cpu time      3.5596: real time      3.5609

 eigenvalue-minimisations  :     0
 total energy-change (2. order) :-0.9322641E+00  (-0.1960345E+00)
 number of electron      66.0000023 magnetization 
 augmentation part       42.4453725 magnetization 

 Free energy of the ion-electron system (eV)
  ---------------------------------------------------
  alpha Z        PSCENC =         3.29097617
  Ewald energy   TEWEN  =      4710.44008138
  -Hartree energ DENC   =    -12298.44332909
  -exchange      EXHF   =         0.00000000
  -V(xc)+E(xc)   XCENC  =       263.71041514
  PAW double counting   =      7708.59878584    -8343.67369514
  entropy T*S    EENTRO =        -0.00000000
  eigenvalues    EBANDS =      -407.22990897
  atomic energy  EATOM  =      8369.08117362
  ---------------------------------------------------
  free energy    TOTEN  =         5.77449894 eV

  energy without entropy =        5.77449894  energy(sigma->0) =        5.77449894


--------------------------------------------------------------------------------------------------------




--------------------------------------- Iteration      1(   9)  ---------------------------------------


    POTLOK:  cpu time      1.5426: real time      1.5434
    SETDIJ:  cpu time      0.0010: real time      0.0010
    TRIAL :  cpu time      0.2037: real time      0.2040
    CORREC:  cpu time      1.7117: real time      1.7120
    CHARGE:  cpu time      0.0888: real time      0.0888
    --------------------------------------------
      LOOP:  cpu time      3.5515: real time      3.5571

 eigenvalue-minimisations  :     0
 total energy-change (2. order) :-0.1919040E+00  (-0.1424514E+00)
 number of electron      66.0000023 magnetization 
 augmentation part       42.4452180 magnetization 

 Free energy of the ion-electron system (eV)
  ---------------------------------------------------
  alpha Z        PSCENC =         3.29097617
  Ewald energy   TEWEN  =      4710.44008138
  -Hartree energ DENC   =    -12315.53528507
  -exchange      EXHF   =         0.00000000
  -V(xc)+E(xc)   XCENC  =       264.75581492
  PAW double counting   =      7725.83099174    -8366.95181160
  entropy T*S    EENTRO =        -0.00000000
  eigenvalues    EBANDS =      -385.32934622
  atomic energy  EATOM  =      8369.08117362
  ---------------------------------------------------
  free energy    TOTEN  =         5.58259494 eV

  energy without entropy =        5.58259494  energy(sigma->0) =        5.58259494


--------------------------------------------------------------------------------------------------------




--------------------------------------- Iteration      1(  10)  ---------------------------------------


    POTLOK:  cpu time      1.5437: real time      1.5443
    SETDIJ:  cpu time      0.0008: real time      0.0008
    TRIAL :  cpu time      0.2043: real time      0.2043
    CORREC:  cpu time      1.7096: real time      1.7101
    CHARGE:  cpu time      0.0897: real time      0.0897
    --------------------------------------------
      LOOP:  cpu time      3.5550: real time      3.5562

 eigenvalue-minimisations  :     0
 total energy-change (2. order) :-0.1424629E+00  (-0.3746405E-01)
 number of electron      66.0000023 magnetization 
 augmentation part       42.4134197 magnetization 

 Free energy of the ion-electron system (eV)
  ---------------------------------------------------
  alpha Z        PSCENC =         3.29097617
  Ewald energy   TEWEN  =      4710.44008138
  -Hartree energ DENC   =    -12319.72200536
  -exchange      EXHF   =         0.00000000
  -V(xc)+E(xc)   XCENC  =       264.86322779
  PAW double counting   =      7734.95517043    -8374.26965579
  entropy T*S    EENTRO =        -0.00000000
  eigenvalues    EBANDS =      -383.19883618
  atomic energy  EATOM  =      8369.08117362
  ---------------------------------------------------
  free energy    TOTEN  =         5.44013206 eV

  energy without entropy =        5.44013206  energy(sigma->0) =        5.44013206


--------------------------------------------------------------------------------------------------------




--------------------------------------- Iteration      1(  11)  ---------------------------------------


    POTLOK:  cpu time      1.5466: real time      1.5472
    SETDIJ:  cpu time      0.0008: real time      0.0008
    TRIAL :  cpu time      0.2046: real time      0.2047
    CORREC:  cpu time      1.7110: real time      1.7113
    CHARGE:  cpu time      0.0889: real time      0.0891
    --------------------------------------------
      LOOP:  cpu time      3.5573: real time      3.5611

 eigenvalue-minimisations  :     0
 total energy-change (2. order) :-0.3746526E-01  (-0.3388789E-01)
 number of electron      66.0000023 magnetization 
 augmentation part       42.4777998 magnetization 

 Free energy of the ion-electron system (eV)
  ---------------------------------------------------
  alpha Z        PSCENC =         3.29097617
  Ewald energy   TEWEN  =      4710.44008138
  -Hartree energ DENC   =    -12315.44056426
  -exchange      EXHF   =         0.00000000
  -V(xc)+E(xc)   XCENC  =       264.72074899
  PAW double counting   =      7733.26519015    -8370.53374676
  entropy T*S    EENTRO =        -0.00000000
  eigenvalues    EBANDS =      -389.42119249
  atomic energy  EATOM  =      8369.08117362
  ---------------------------------------------------
  free energy    TOTEN  =         5.40266681 eV

  energy without entropy =        5.40266681  energy(sigma->0) =        5.40266681


--------------------------------------------------------------------------------------------------------




--------------------------------------- Iteration      1(  12)  ---------------------------------------


    POTLOK:  cpu time      1.5430: real time      1.5438
    SETDIJ:  cpu time      0.0009: real time      0.0009
    TRIAL :  cpu time      0.2042: real time      0.2042
    CORREC:  cpu time      1.7178: real time      1.7183
    CHARGE:  cpu time      0.0905: real time      0.0906
    --------------------------------------------
      LOOP:  cpu time      3.5583: real time      3.5664

 eigenvalue-minimisations  :     0
 total energy-change (2. order) :-0.3402513E-01  (-0.5297981E-02)
 number of electron      66.0000023 magnetization 
 augmentation part       42.4473379 magnetization 

 Free energy of the ion-electron system (eV)
  ---------------------------------------------------
  alpha Z        PSCENC =         3.29097617
  Ewald energy   TEWEN  =      4710.44008138
  -Hartree energ DENC   =    -12323.55813390
  -exchange      EXHF   =         0.00000000
  -V(xc)+E(xc)   XCENC  =       265.04140122
  PAW double counting   =      7734.92469923    -8373.62996069
  entropy T*S    EENTRO =        -0.00000000
  eigenvalues    EBANDS =      -380.22159536
  atomic energy  EATOM  =      8369.08117362
  ---------------------------------------------------
  free energy    TOTEN  =         5.36864167 eV

  energy without entropy =        5.36864167  energy(sigma->0) =        5.36864167


--------------------------------------------------------------------------------------------------------




--------------------------------------- Iteration      1(  13)  ---------------------------------------


    POTLOK:  cpu time      1.5410: real time      1.5415
    SETDIJ:  cpu time      0.0011: real time      0.0011
    TRIAL :  cpu time      0.2031: real time      0.2031
    CORREC:  cpu time      1.7083: real time      1.7088
    CHARGE:  cpu time      0.0894: real time      0.0894
    --------------------------------------------
      LOOP:  cpu time      3.5471: real time      3.5521

 eigenvalue-minimisations  :     0
 total energy-change (2. order) :-0.5300411E-02  (-0.4986204E-02)
 number of electron      66.0000023 magnetization 
 augmentation part       42.4760749 magnetization 

 Free energy of the ion-electron system (eV)
  ---------------------------------------------------
  alpha Z        PSCENC =         3.29097617
  Ewald energy   TEWEN  =      4710.44008138
  -Hartree energ DENC   =    -12317.99302201
  -exchange      EXHF   =         0.00000000
  -V(xc)+E(xc)   XCENC  =       264.85637542
  PAW double counting   =      7730.54218476    -8367.86674745
  entropy T*S    EENTRO =        -0.00000000
  eigenvalues    EBANDS =      -386.98768063
  atomic energy  EATOM  =      8369.08117362
  ---------------------------------------------------
  free energy    TOTEN  =         5.36334126 eV

  energy without entropy =        5.36334126  energy(sigma->0) =        5.36334126


--------------------------------------------------------------------------------------------------------




--------------------------------------- Iteration      1(  14)  ---------------------------------------


    POTLOK:  cpu time      1.5433: real time      1.5437
    SETDIJ:  cpu time      0.0010: real time      0.0010
    TRIAL :  cpu time      0.2055: real time      0.2055
    CORREC:  cpu time      1.7041: real time      1.7047
    CHARGE:  cpu time      0.0895: real time      0.0895
    --------------------------------------------
      LOOP:  cpu time      3.5473: real time      3.5515

 eigenvalue-minimisations  :     0
 total energy-change (2. order) :-0.4989519E-02  (-0.5887460E-03)
 number of electron      66.0000023 magnetization 
 augmentation part       42.4665421 magnetization 

 Free energy of the ion-electron system (eV)
  ---------------------------------------------------
  alpha Z        PSCENC =         3.29097617
  Ewald energy   TEWEN  =      4710.44008138
  -Hartree energ DENC   =    -12320.54709166
  -exchange      EXHF   =         0.00000000
  -V(xc)+E(xc)   XCENC  =       264.97779316
  PAW double counting   =      7730.46854294    -8368.74016460
  entropy T*S    EENTRO =        -0.00000000
  eigenvalues    EBANDS =      -383.61295926
  atomic energy  EATOM  =      8369.08117362
  ---------------------------------------------------
  free energy    TOTEN  =         5.35835174 eV

  energy without entropy =        5.35835174  energy(sigma->0) =        5.35835174


--------------------------------------------------------------------------------------------------------




--------------------------------------- Iteration      1(  15)  ---------------------------------------


    POTLOK:  cpu time      1.5338: real time      1.5349
    SETDIJ:  cpu time      0.0008: real time      0.0008
    TRIAL :  cpu time      0.2035: real time      0.2035
    CORREC:  cpu time      1.6978: real time      1.6984
    CHARGE:  cpu time      0.0895: real time      0.0895
    --------------------------------------------
      LOOP:  cpu time      3.5330: real time      3.5351

 eigenvalue-minimisations  :     0
 total energy-change (2. order) :-0.5886837E-03  (-0.3457034E-03)
 number of electron      66.0000023 magnetization 
 augmentation part       42.4731302 magnetization 

 Free energy of the ion-electron system (eV)
  ---------------------------------------------------
  alpha Z        PSCENC =         3.29097617
  Ewald energy   TEWEN  =      4710.44008138
  -Hartree energ DENC   =    -12319.48975651
  -exchange      EXHF   =         0.00000000
  -V(xc)+E(xc)   XCENC  =       264.92952692
  PAW double counting   =      7730.08585185    -8367.96700029
  entropy T*S    EENTRO =        -0.00000000
  eigenvalues    EBANDS =      -385.01309008
  atomic energy  EATOM  =      8369.08117362
  ---------------------------------------------------
  free energy    TOTEN  =         5.35776306 eV

  energy without entropy =        5.35776306  energy(sigma->0) =        5.35776306


--------------------------------------------------------------------------------------------------------




--------------------------------------- Iteration      1(  16)  ---------------------------------------


    POTLOK:  cpu time      1.5323: real time      1.5327
    SETDIJ:  cpu time      0.0008: real time      0.0008
    TRIAL :  cpu time      0.2037: real time      0.2037
    CORREC:  cpu time      1.7016: real time      1.7023
    CHARGE:  cpu time      0.0893: real time      0.0893
    --------------------------------------------
      LOOP:  cpu time      3.5309: real time      3.5367

 eigenvalue-minimisations  :     0
 total energy-change (2. order) :-0.3454134E-03  (-0.1070208E-03)
 number of electron      66.0000023 magnetization 
 augmentation part       42.4729911 magnetization 

 Free energy of the ion-electron system (eV)
  ---------------------------------------------------
  alpha Z        PSCENC =         3.29097617
  Ewald energy   TEWEN  =      4710.44008138
  -Hartree energ DENC   =    -12320.76058832
  -exchange      EXHF   =         0.00000000
  -V(xc)+E(xc)   XCENC  =       264.96817135
  PAW double counting   =      7731.11859855    -8369.23963611
  entropy T*S    EENTRO =        -0.00000000
  eigenvalues    EBANDS =      -383.54135900
  atomic energy  EATOM  =      8369.08117362
  ---------------------------------------------------
  free energy    TOTEN  =         5.35741764 eV

  energy without entropy =        5.35741764  energy(sigma->0) =        5.35741764


--------------------------------------------------------------------------------------------------------




--------------------------------------- Iteration      1(  17)  ---------------------------------------


    POTLOK:  cpu time      1.5339: real time      1.5345
    SETDIJ:  cpu time      0.0008: real time      0.0008
    TRIAL :  cpu time      0.2030: real time      0.2030
    CORREC:  cpu time      1.7042: real time      1.7048
    CHARGE:  cpu time      0.0902: real time      0.0902
    --------------------------------------------
      LOOP:  cpu time      3.5359: real time      3.5405

 eigenvalue-minimisations  :     0
 total energy-change (2. order) :-0.1071868E-03  (-0.3161643E-04)
 number of electron      66.0000023 magnetization 
 augmentation part       42.4723688 magnetization 

 Free energy of the ion-electron system (eV)
  ---------------------------------------------------
  alpha Z        PSCENC =         3.29097617
  Ewald energy   TEWEN  =      4710.44008138
  -Hartree energ DENC   =    -12320.62715372
  -exchange      EXHF   =         0.00000000
  -V(xc)+E(xc)   XCENC  =       264.96753919
  PAW double counting   =      7731.28256689    -8369.37657245
  entropy T*S    EENTRO =        -0.00000000
  eigenvalues    EBANDS =      -383.70130062
  atomic energy  EATOM  =      8369.08117362
  ---------------------------------------------------
  free energy    TOTEN  =         5.35731046 eV

  energy without entropy =        5.35731046  energy(sigma->0) =        5.35731046


--------------------------------------------------------------------------------------------------------




--------------------------------------- Iteration      1(  18)  ---------------------------------------


    POTLOK:  cpu time      1.5330: real time      1.5338
    SETDIJ:  cpu time      0.0008: real time      0.0008
    TRIAL :  cpu time      0.2040: real time      0.2043
    CORREC:  cpu time      1.6969: real time      1.6972
    CHARGE:  cpu time      0.0883: real time      0.0883
    --------------------------------------------
      LOOP:  cpu time      3.5298: real time      3.5313

 eigenvalue-minimisations  :     0
 total energy-change (2. order) :-0.3160284E-04  (-0.1239037E-04)
 number of electron      66.0000023 magnetization 
 augmentation part       42.4735679 magnetization 

 Free energy of the ion-electron system (eV)
  ---------------------------------------------------
  alpha Z        PSCENC =         3.29097617
  Ewald energy   TEWEN  =      4710.44008138
  -Hartree energ DENC   =    -12320.53195532
  -exchange      EXHF   =         0.00000000
  -V(xc)+E(xc)   XCENC  =       264.96387041
  PAW double counting   =      7731.31142154    -8369.37426302
  entropy T*S    EENTRO =        -0.00000000
  eigenvalues    EBANDS =      -383.82402593
  atomic energy  EATOM  =      8369.08117362
  ---------------------------------------------------
  free energy    TOTEN  =         5.35727885 eV

  energy without entropy =        5.35727885  energy(sigma->0) =        5.35727885


--------------------------------------------------------------------------------------------------------




--------------------------------------- Iteration      1(  19)  ---------------------------------------


    POTLOK:  cpu time      1.5364: real time      1.5370
    SETDIJ:  cpu time      0.0009: real time      0.0009
    TRIAL :  cpu time      0.2031: real time      0.2031
    CORREC:  cpu time      1.6979: real time      1.6985
    CHARGE:  cpu time      0.0899: real time      0.0899
    --------------------------------------------
      LOOP:  cpu time      3.5317: real time      3.5366

 eigenvalue-minimisations  :     0
 total energy-change (2. order) :-0.1241946E-04  (-0.4763585E-05)
 number of electron      66.0000023 magnetization 
 augmentation part       42.4723798 magnetization 

 Free energy of the ion-electron system (eV)
  ---------------------------------------------------
  alpha Z        PSCENC =         3.29097617
  Ewald energy   TEWEN  =      4710.44008138
  -Hartree energ DENC   =    -12320.72204963
  -exchange      EXHF   =         0.00000000
  -V(xc)+E(xc)   XCENC  =       264.97035675
  PAW double counting   =      7731.54176388    -8369.65347920
  entropy T*S    EENTRO =        -0.00000000
  eigenvalues    EBANDS =      -383.59155654
  atomic energy  EATOM  =      8369.08117362
  ---------------------------------------------------
  free energy    TOTEN  =         5.35726643 eV

  energy without entropy =        5.35726643  energy(sigma->0) =        5.35726643


--------------------------------------------------------------------------------------------------------




--------------------------------------- Iteration      1(  20)  ---------------------------------------


    POTLOK:  cpu time      1.5321: real time      1.5325
    SETDIJ:  cpu time      0.0011: real time      0.0011
    TRIAL :  cpu time      0.2027: real time      0.2029
    CORREC:  cpu time      1.6999: real time      1.7002
    CHARGE:  cpu time      0.0887: real time      0.0887
    --------------------------------------------
      LOOP:  cpu time      3.5283: real time      3.5334

 eigenvalue-minimisations  :     0
 total energy-change (2. order) :-0.4808293E-05  (-0.2121228E-05)
 number of electron      66.0000023 magnetization 
 augmentation part       42.4728763 magnetization 

 Free energy of the ion-electron system (eV)
  ---------------------------------------------------
  alpha Z        PSCENC =         3.29097617
  Ewald energy   TEWEN  =      4710.44008138
  -Hartree energ DENC   =    -12320.55738797
  -exchange      EXHF   =         0.00000000
  -V(xc)+E(xc)   XCENC  =       264.96372971
  PAW double counting   =      7731.50318488    -8369.57053000
  entropy T*S    EENTRO =        -0.00000000
  eigenvalues    EBANDS =      -383.79396616
  atomic energy  EATOM  =      8369.08117362
  ---------------------------------------------------
  free energy    TOTEN  =         5.35726163 eV

  energy without entropy =        5.35726163  energy(sigma->0) =        5.35726163


--------------------------------------------------------------------------------------------------------




--------------------------------------- Iteration      1(  21)  ---------------------------------------


    POTLOK:  cpu time      1.5317: real time      1.5328
    SETDIJ:  cpu time      0.0008: real time      0.0008
    TRIAL :  cpu time      0.2040: real time      0.2040
    CORREC:  cpu time      1.6992: real time      1.6998
    CHARGE:  cpu time      0.0899: real time      0.0899
    --------------------------------------------
      LOOP:  cpu time      3.5285: real time      3.5349

 eigenvalue-minimisations  :     0
 total energy-change (2. order) :-0.2142266E-05  (-0.4455088E-06)
 number of electron      66.0000023 magnetization 
 augmentation part       42.4725240 magnetization 

 Free energy of the ion-electron system (eV)
  ---------------------------------------------------
  alpha Z        PSCENC =         3.29097617
  Ewald energy   TEWEN  =      4710.44008138
  -Hartree energ DENC   =    -12320.59126632
  -exchange      EXHF   =         0.00000000
  -V(xc)+E(xc)   XCENC  =       264.96585302
  PAW double counting   =      7731.57429449    -8369.66247054
  entropy T*S    EENTRO =        -0.00000000
  eigenvalues    EBANDS =      -383.74138233
  atomic energy  EATOM  =      8369.08117362
  ---------------------------------------------------
  free energy    TOTEN  =         5.35725948 eV

  energy without entropy =        5.35725948  energy(sigma->0) =        5.35725948


--------------------------------------------------------------------------------------------------------




--------------------------------------- Iteration      1(  22)  ---------------------------------------


    POTLOK:  cpu time      1.5316: real time      1.5320
    SETDIJ:  cpu time      0.0008: real time      0.0008
    TRIAL :  cpu time      0.2023: real time      0.2027
    CORREC:  cpu time      1.6985: real time      1.6989
    EDDIAG:  cpu time      0.0914: real time      0.0916
    CHARGE:  cpu time      0.0876: real time      0.0879
    --------------------------------------------
      LOOP:  cpu time      3.6149: real time      3.6216

 eigenvalue-minimisations  :     0
 total energy-change (2. order) :-0.4494887E-06  (-0.3362778E-06)
 number of electron      66.0000023 magnetization 
 augmentation part       42.4726687 magnetization 

 Free energy of the ion-electron system (eV)
  ---------------------------------------------------
  alpha Z        PSCENC =         3.29097617
  Ewald energy   TEWEN  =      4710.44008138
  -Hartree energ DENC   =    -12320.53002342
  -exchange      EXHF   =         0.00000000
  -V(xc)+E(xc)   XCENC  =       264.96380803
  PAW double counting   =      7731.56041835    -8369.63514776
  entropy T*S    EENTRO =        -0.00000000
  eigenvalues    EBANDS =      -383.81402734
  atomic energy  EATOM  =      8369.08117362
  ---------------------------------------------------
  free energy    TOTEN  =         5.35725903 eV

  energy without entropy =        5.35725903  energy(sigma->0) =        5.35725903


--------------------------------------------------------------------------------------------------------


  average scaling for gradient   1.3523


 average (electrostatic) potential at core
  the test charge radii are     0.9430
  (the norm of the test charge is              1.0000)
       1 -73.9510       2 -74.1025       3 -74.1019       4 -74.1024       5 -73.9501
       6 -73.9512



 E-fermi :  -4.5550     XC(G=0):  -0.5973     alpha+bet : -0.1189

 Fermi energy:        -4.5550071292

 k-point     1 :       0.0000    0.0000    0.0000
  band No.  band energies     occupation 
      1      -8.5638      2.00000
      2      -7.3407      2.00000
      3      -7.3403      2.00000
      4      -6.9966      2.00000
      5      -6.3890      2.00000
      6      -6.3877      2.00000
      7      -6.3800      2.00000
      8      -6.3791      2.00000
      9      -6.2985      2.00000
     10      -5.9970      2.00000
     11      -5.9040      2.00000
     12      -5.8479      2.00000
     13      -5.7705      2.00000
     14      -5.7701      2.00000
     15      -5.7044      2.00000
     16      -5.6221      2.00000
     17      -5.5992      2.00000
     18      -5.5987      2.00000
     19      -5.5113      2.00000
     20      -5.5110      2.00000
     21      -5.3931      2.00000
     22      -5.3928      2.00000
     23      -5.3019      2.00000
     24      -5.3015      2.00000
     25      -5.2245      2.00000
     26      -5.2134      2.00000
     27      -5.2132      2.00000
     28      -5.1038      2.00000
     29      -5.1036      2.00000
     30      -5.0550      2.00000
     31      -5.0480      2.00000
     32      -4.8185      2.00000
     33      -4.8182      2.00000
     34      -3.0074      0.00000
     35      -2.6517      0.00000
     36      -2.6505      0.00000
     37      -2.2682      0.00000
     38      -1.0709      0.00000
     39      -1.0678      0.00000
     40      -0.6844      0.00000
     41      -0.6725      0.00000
     42      -0.4496      0.00000
     43      -0.2584      0.00000
     44      -0.2478      0.00000
     45      -0.1850      0.00000
     46      -0.1155      0.00000
     47       0.0251      0.00000
     48       0.1906      0.00000
     49       0.1956      0.00000
     50       0.2717      0.00000
     51       0.3538      0.00000
     52       0.3883      0.00000
     53       0.4148      0.00000
     54       0.4305      0.00000
     55       0.4577      0.00000
     56       0.4666      0.00000
     57       0.5029      0.00000
     58       0.5186      0.00000
     59       0.5289      0.00000
     60       0.5380      0.00000
     61       0.5803      0.00000
     62       0.6167      0.00000
     63       0.8040      0.00000
     64       0.8416      0.00000
     65       0.8544      0.00000
     66       0.8854      0.00000
     67       0.9050      0.00000
     68       0.9364      0.00000
     69       0.9464      0.00000
     70       0.9609      0.00000
     71       1.0886      0.00000
     72       1.1035      0.00000
     73       1.1309      0.00000
     74       1.1540      0.00000
     75       1.2108      0.00000
     76       1.2917      0.00000
     77       1.3291      0.00000
     78       1.3676      0.00000
     79       1.3840      0.00000
     80       1.4007      0.00000
     81       1.4201      0.00000
     82       1.4381      0.00000
     83       1.4513      0.00000
     84       1.4695      0.00000
     85       1.4879      0.00000
     86       1.4942      0.00000
     87       1.5088      0.00000
     88       1.5208      0.00000
     89       1.5493      0.00000
     90       1.5497      0.00000
     91       1.5604      0.00000
     92       1.5877      0.00000
     93       1.6284      0.00000
     94       1.6512      0.00000
     95       1.6933      0.00000
     96       1.7164      0.00000


--------------------------------------------------------------------------------------------------------


 soft charge-density along one line, spin component           1
         0         1         2         3         4         5         6         7         8         9
 total charge-density along one line

 pseudopotential strength for first ion, spin component:           1
-10.497   0.040  -0.003   0.023   0.004   0.978  -0.030   0.002
  0.040 -10.412   0.012  -0.001  -0.023  -0.030   0.915  -0.009
 -0.003   0.012 -10.410   0.019   0.024   0.002  -0.009   0.913
  0.023  -0.001   0.019 -10.449   0.036  -0.018   0.000  -0.014
  0.004  -0.023   0.024   0.036 -10.489  -0.003   0.017  -0.017
  0.978  -0.030   0.002  -0.018  -0.003   6.323   0.019  -0.002
 -0.030   0.915  -0.009   0.000   0.017   0.019   6.364   0.006
  0.002  -0.009   0.913  -0.014  -0.017  -0.002   0.006   6.366
 -0.018   0.000  -0.014   0.942  -0.027   0.012   0.000   0.010
 -0.003   0.017  -0.017  -0.027   0.973   0.001  -0.012   0.011
 -0.000  -0.006  -0.009  -0.009   0.005   0.001   0.000   0.000
 -0.001  -0.010  -0.016  -0.016   0.008   0.001   0.000  -0.000
 -0.018   0.007   0.002  -0.000   0.002   0.006  -0.002  -0.001
 -0.000  -0.003   0.010  -0.019   0.000  -0.000   0.001  -0.003
 -0.003  -0.000   0.010   0.007  -0.019   0.001  -0.000  -0.004
 -0.017   0.007   0.002  -0.000   0.002   0.001  -0.000  -0.000
 -0.000  -0.002   0.009  -0.018   0.000  -0.000   0.000  -0.000
 -0.003  -0.000   0.010   0.007  -0.018   0.001  -0.000  -0.001
 total augmentation occupancy for first ion, spin component:           1
  1.950   0.012  -0.003   0.005   0.005   0.004  -0.012   0.002  -0.005  -0.006  -0.000  -0.000   0.104  -0.013  -0.006  -0.039
  0.012   1.973   0.002  -0.002  -0.007  -0.012  -0.016  -0.001   0.003   0.004   0.024  -0.000  -0.049   0.021  -0.007   0.016
 -0.003   0.002   1.974   0.003   0.005   0.002  -0.001  -0.016  -0.000  -0.007   0.038   0.000   0.002  -0.019  -0.055   0.003
  0.005  -0.002   0.003   1.968   0.005  -0.005   0.003  -0.001  -0.010  -0.005   0.041   0.001  -0.012   0.065  -0.043   0.000
  0.005  -0.007   0.005   0.005   1.960  -0.006   0.004  -0.007  -0.005  -0.006  -0.024  -0.001  -0.029   0.001   0.071   0.006
  0.004  -0.012   0.002  -0.005  -0.006   0.006  -0.002  -0.000  -0.001  -0.000   0.003  -0.001   0.012  -0.002   0.002  -0.001
 -0.012  -0.016  -0.001   0.003   0.004  -0.002   0.003   0.000   0.001   0.000  -0.025   0.001  -0.006   0.003  -0.003   0.000
  0.002  -0.001  -0.016  -0.001  -0.007  -0.000   0.000   0.004   0.000  -0.002  -0.042   0.002  -0.001  -0.001  -0.011   0.000
 -0.005   0.003  -0.000  -0.010  -0.005  -0.001   0.001   0.000   0.006  -0.002  -0.049   0.004  -0.002   0.011  -0.012   0.000
 -0.006   0.004  -0.007  -0.005  -0.006  -0.000   0.000  -0.002  -0.002   0.006   0.033  -0.003  -0.002  -0.003   0.015   0.000
 -0.000   0.024   0.038   0.041  -0.024   0.003  -0.025  -0.042  -0.049   0.033   1.692  -0.066   0.041  -0.110   0.262  -0.004
 -0.000  -0.000   0.000   0.001  -0.001  -0.001   0.001   0.002   0.004  -0.003  -0.066   0.005  -0.003   0.007  -0.017   0.000
  0.104  -0.049   0.002  -0.012  -0.029   0.012  -0.006  -0.001  -0.002  -0.002   0.041  -0.003   0.036  -0.008   0.004  -0.004
 -0.013   0.021  -0.019   0.065   0.001  -0.002   0.003  -0.001   0.011  -0.003  -0.110   0.007  -0.008   0.030  -0.022   0.001
 -0.006  -0.007  -0.055  -0.043   0.071   0.002  -0.003  -0.011  -0.012   0.015   0.262  -0.017   0.004  -0.022   0.075  -0.001
 -0.039   0.016   0.003   0.000   0.006  -0.001   0.000   0.000   0.000   0.000  -0.004   0.000  -0.004   0.001  -0.001   0.001
  0.000  -0.006   0.018  -0.038  -0.000   0.000  -0.000  -0.000  -0.001   0.000   0.012  -0.001   0.001  -0.003   0.003  -0.000
 -0.006   0.000   0.022   0.016  -0.038  -0.000   0.000   0.001   0.001  -0.001  -0.028   0.002  -0.001   0.003  -0.009   0.000


------------------------ aborting loop because EDIFF is reached ----------------------------------------


    FORLOC:  cpu time      0.0027: real time      0.0027
    FORNL :  cpu time      0.1000: real time      0.1000
    STRESS:  cpu time      0.2990: real time      0.2991
    FORCOR:  cpu time      1.1682: real time      1.1685
    OFIELD:  cpu time      0.0002: real time      0.0002

  FORCE on cell =-STRESS in cart. coord.  units (eV):
  Direction    XX          YY          ZZ          XY          YZ          ZX
  --------------------------------------------------------------------------------------
  Alpha Z     3.29098     3.29098     3.29098
  Ewald    2622.40517  2621.59468  -533.56173  -470.10860 -1282.88091 -1281.38406
  Hartree  4970.44579  4969.80566  2380.29340  -382.32956 -1043.76111 -1042.45122
  E(xc)    -385.09099  -385.09144  -385.75080    -0.10301    -0.28037    -0.27966
  Local   -8159.40738 -8157.96234 -2434.34523   849.15375  2317.70115  2314.89963
  n-local  -148.22300  -148.22920  -148.16536     0.00942     0.02705     0.02584
  augment   556.32516   556.33623   567.14483     1.68711     4.59393     4.58947
  Kinetic   540.01089   540.01262   551.00582     1.71431     4.66877     4.66552
  Fock        0.00000     0.00000     0.00000     0.00000     0.00000     0.00000
  -------------------------------------------------------------------------------------
  Total      -0.24339    -0.24282    -0.08810     0.02341     0.06850     0.06552
  in kB      -0.04874    -0.04863    -0.01764     0.00469     0.01372     0.01312
  external pressure =       -0.04 kB  Pullay stress =        0.00 kB


 VOLUME and BASIS-vectors are now :
 -----------------------------------------------------------------------------
  energy-cutoff  :      520.00
  volume of cell :     8000.00
      direct lattice vectors                 reciprocal lattice vectors
    20.000000000  0.000000000  0.000000000     0.050000000  0.000000000  0.000000000
     0.000000000 20.000000000  0.000000000     0.000000000  0.050000000  0.000000000
     0.000000000  0.000000000 20.000000000     0.000000000  0.000000000  0.050000000

  length of vectors
    20.000000000 20.000000000 20.000000000     0.050000000  0.050000000  0.050000000


 FORCES acting on ions:
    Electron-Ion                     Ewald-Force                    Non-Local-Force
 -----------------------------------------------------------------------------------------------
   0.725E+03 0.114E+03 -.306E+03   -.713E+03 -.112E+03 0.301E+03   -.119E+02 -.187E+01 0.499E+01
   0.430E+03 -.474E+03 0.116E+02   -.426E+03 0.470E+03 -.115E+02   -.322E+01 0.357E+01 -.608E-01
   -.582E+03 -.909E+02 0.248E+03   0.578E+03 0.902E+02 -.247E+03   0.438E+01 0.681E+00 -.188E+01
   0.152E+03 0.563E+03 -.263E+03   -.151E+03 -.559E+03 0.261E+03   -.113E+01 -.424E+01 0.197E+01
   -.188E+03 -.699E+03 0.329E+03   0.185E+03 0.687E+03 -.323E+03   0.307E+01 0.115E+02 -.540E+01
   -.536E+03 0.587E+03 -.195E+02   0.527E+03 -.577E+03 0.192E+02   0.878E+01 -.962E+01 0.323E+00
 -----------------------------------------------------------------------------------------------
   0.162E-01 0.121E-01 0.500E-01   0.114E-12 0.000E+00 0.284E-13   -.146E-01 -.156E-01 -.532E-01


 POSITION                                       TOTAL-FORCE (eV/Angst)
 -----------------------------------------------------------------------------------
      7.87408      9.42445     11.07116         0.030279      0.003583     -0.012054
      9.39275     10.82980     10.00842         0.029640     -0.028668     -0.005510
     11.58274     10.00357      9.50072        -0.037866     -0.003118      0.016623
      9.99455      8.59029     10.60441         0.013391      0.036583     -0.017821
     10.95807     12.17159      8.93038        -0.010204     -0.035906      0.019257
     12.13296      7.82454     10.10170        -0.025241      0.027526     -0.000495
 -----------------------------------------------------------------------------------
    total drift:                                0.001597     -0.003509     -0.003244


--------------------------------------------------------------------------------------------------------



  FREE ENERGIE OF THE ION-ELECTRON SYSTEM (eV)
  ---------------------------------------------------
  free  energy   TOTEN  =         5.35725903 eV

  energy  without entropy=        5.35725903  energy(sigma->0) =        5.35725903



--------------------------------------------------------------------------------------------------------


    POTLOK:  cpu time      1.4991: real time      1.4996


--------------------------------------------------------------------------------------------------------


     LOOP+:  cpu time     71.0266: real time     71.1261
    4ORBIT:  cpu time      0.0000: real time      0.0000

 total amount of memory used by VASP MPI-rank0   101872. kBytes
=======================================================================

   base      :      30000. kBytes
   nonlr-proj:       2265. kBytes
   fftplans  :      28354. kBytes
   grid      :      38630. kBytes
   one-center:         31. kBytes
   wavefun   :       2592. kBytes

  
  
 General timing and accounting informations for this job:
 ========================================================
  
                  Total CPU time used (sec):       92.285
                            User time (sec):       91.040
                          System time (sec):        1.245
                         Elapsed time (sec):       93.853
  
                   Maximum memory used (kb):      330280.
                   Average memory used (kb):          N/A
  
                          Minor page faults:        28222
                          Major page faults:            0
                 Voluntary context switches:         9930
