 vasp.6.3.0 20Jan22 (build Apr  1 2022 16:44:48) complex                         
 executed on        HPECrayEX_GCC date 2023.01.06  22:28:26
 running  768 mpi-ranks, with    1 threads/rank
 distrk:  each k-point on  384 cores,    2 groups
 distr:  one band on NCORE=   4 cores,   96 groups


--------------------------------------------------------------------------------------------------------


 INCAR:
   SYSTEM = MgO-rocksalt
   ISMEAR = 0
   SIGMA = 0.05
   EDIFF = 1E-6
   ALGO = ALL
   ISTART = 0
   IBRION = -1
   NSW = 0
   ISYM = 2
   IVDW = 13
   VDW_S8 = 2.0293
   VDW_A1 = 0.4087
   VDW_A2 = 4.5381
   ENCUT = 520
   PREC = Accurate
   LASPH = .TRUE.
   LREAL = Auto
   ISPIN = 1
   NELM = 200
   NELMIN = 8
   NCORE = 4
   KPAR = 2
   LWAVE = .FALSE.
   LCHARG = .FALSE.

 POTCAR:    PAW_PBE Cu 22Jun2005                  
 POTCAR:    PAW_PBE Cu 22Jun2005                  
   SHA256 =  0e71e558f37a4e8407882b4609ceaae59938afaad9ced71dfe8490308a0ab630 Cu/POTCAR             
   COPYR  = (c) Copyright 22Jun2005 Georg Kresse                                                    
   COPYR  = This file is part of the software VASP. Any use, copying, and all other rights are regul
   COPYR  = If you do not have a valid VASP license, you may not use, copy or distribute this file. 
   VRHFIN =Cu: d10 p1                                                                               
   LEXCH  = PE                                                                                      
   EATOM  =  1390.9808 eV,  102.2342 Ry                                                             
                                                                                                    
   TITEL  = PAW_PBE Cu 22Jun2005                                                                    
   LULTRA =        F    use ultrasoft PP ?                                                          
   IUNSCR =        1    unscreen: 0-lin 1-nonlin 2-no                                               
   RPACOR =    2.000    partial core radius                                                         
   POMASS =   63.546; ZVAL   =   11.000    mass and valenz                                          
   RCORE  =    2.300    outmost cutoff radius                                                       
   RWIGS  =    2.200; RWIGS  =    1.164    wigner-seitz radius (au A)                               
   ENMAX  =  295.446; ENMIN  =  221.585 eV                                                          
   ICORE  =        3    local potential                                                             
   LCOR   =        T    correct aug charges                                                         
   LPAW   =        T    paw PP                                                                      
   EAUG   =  586.980                                                                                
   DEXC   =    0.000                                                                                
   RMAX   =    2.344    core radius for proj-oper                                                   
   RAUG   =    1.300    factor for augmentation sphere                                              
   RDEP   =    2.302    radius for radial grids                                                     
   RDEPT  =    1.771    core radius for aug-charge                                                  
                                                                                                    
   Atomic configuration                                                                             
    9 entries                                                                                       
     n  l   j            E        occ.                                                              
     1  0  0.50     -8850.2468   2.0000                                                             
     2  0  0.50     -1062.3498   2.0000                                                             
     2  1  1.50      -916.8226   6.0000                                                             
     3  0  0.50      -114.6929   2.0000                                                             
     3  1  1.50       -72.1325   6.0000                                                             
     3  2  2.50        -5.0394  10.0000                                                             
     4  0  0.50        -4.6097   1.0000                                                             
     4  1  0.50        -4.0817   0.0000                                                             
     4  3  2.50        -1.3606   0.0000                                                             
   Description                                                                                      
     l       E           TYP  RCUT    TYP  RCUT                                                     
     2     -5.0393973     23  2.200                                                                 
     2     10.8846608     23  2.200                                                                 
     0     -4.6097109     23  2.200                                                                 
     0      8.2520465     23  2.200                                                                 
     1     -2.7211652     23  2.200                                                                 
     1     21.7055443     23  2.200                                                                 
     3      2.7211652     23  2.300                                                                 
  local pseudopotential read in
  partial core-charges read in
  partial kinetic energy density read in
  atomic valenz-charges read in
  non local Contribution for L=           2  read in
    real space projection operators read in
  non local Contribution for L=           2  read in
    real space projection operators read in
  non local Contribution for L=           0  read in
    real space projection operators read in
  non local Contribution for L=           0  read in
    real space projection operators read in
  non local Contribution for L=           1  read in
    real space projection operators read in
  non local Contribution for L=           1  read in
    real space projection operators read in
    PAW grid and wavefunctions read in

   number of l-projection  operators is LMAX  =           6
   number of lm-projection operators is LMMAX =          18

 -----------------------------------------------------------------------------
|                                                                             |
|               ----> ADVICE to this user running VASP <----                  |
|                                                                             |
|     You have a (more or less) 'small supercell' and for smaller cells       |
|     it is recommended to use the reciprocal-space projection scheme!        |
|     The real-space optimization is not efficient for small cells and it     |
|     is also less accurate ...                                               |
|     Therefore, set LREAL=.FALSE. in the INCAR file.                         |
|                                                                             |
 -----------------------------------------------------------------------------

 Optimization of the real space projectors (new method)

 maximal supplied QI-value         = 16.25
 optimisation between [QCUT,QGAM] = [ 11.54, 23.24] = [ 37.28,151.24] Ry 
 Optimized for a Real-space Cutoff    1.53 Angstroem

   l    n(q)    QCUT    max X(q) W(low)/X(q) W(high)/X(q)  e(spline) 
   2     10    11.539     4.610    0.96E-04    0.13E-03    0.19E-06
   2     10    11.539     8.522    0.16E-03    0.21E-03    0.28E-06
   0     11    11.539    51.609    0.45E-04    0.31E-04    0.11E-06
   0     11    11.539    27.747    0.39E-04    0.29E-04    0.10E-06
   1     10    11.539    20.408    0.70E-05    0.38E-04    0.18E-06
   1     10    11.539    13.425    0.66E-05    0.34E-04    0.17E-06
  PAW_PBE Cu 22Jun2005                  :
 energy of atom  1       EATOM=-1390.9808
 kinetic energy error for atom=    0.0037 (will be added to EATOM!!)


 POSCAR: Cu
  positions in direct lattice
  velocities in cartesian coordinates
 -----------------------------------------------------------------------------
|                                                                             |
|           W    W    AA    RRRRR   N    N  II  N    N   GGGG   !!!           |
|           W    W   A  A   R    R  NN   N  II  NN   N  G    G  !!!           |
|           W    W  A    A  R    R  N N  N  II  N N  N  G       !!!           |
|           W WW W  AAAAAA  RRRRR   N  N N  II  N  N N  G  GGG   !            |
|           WW  WW  A    A  R   R   N   NN  II  N   NN  G    G                |
|           W    W  A    A  R    R  N    N  II  N    N   GGGG   !!!           |
|                                                                             |
|     Specifying the vdW parameters                                           |
|     VDW_S8 = 2.029                                                          |
|     VDW_A1 = 0.409                                                          |
|     VDW_A2 = 4.538                                                          |
|     in the INCAR file will overwrite the defaults for pbe. Please make      |
|     sure that is what you intended.                                         |
|                                                                             |
 -----------------------------------------------------------------------------

 exchange correlation table for  LEXCH =        8
   RHO(1)=    0.500       N(1)  =     2000
   RHO(2)=  100.500       N(2)  =     4000



--------------------------------------------------------------------------------------------------------


 ion  position               nearest neighbor table
   1  0.406  0.500  0.513-   6 2.32   2 2.42   5 2.42
   2  0.472  0.588  0.462-   6 2.32   1 2.42   3 2.42
   3  0.588  0.555  0.465-   6 2.32   4 2.42   2 2.42
   4  0.594  0.446  0.518-   6 2.32   3 2.42   5 2.42
   5  0.482  0.412  0.547-   6 2.32   1 2.42   4 2.42
   6  0.503  0.476  0.453-   4 2.32   3 2.32   2 2.32   1 2.32   5 2.32

  LATTYP: Found a simple cubic cell.
 ALAT       =    20.0000000000
  
  Lattice vectors:
  
 A1 = (  20.0000000000,   0.0000000000,   0.0000000000)
 A2 = (   0.0000000000,  20.0000000000,   0.0000000000)
 A3 = (   0.0000000000,   0.0000000000,  20.0000000000)


Analysis of symmetry for initial positions (statically):
=====================================================================
 Subroutine PRICEL returns:
 Original cell was already a primitive cell.
 

 Routine SETGRP: Setting up the symmetry group for a 
 simple cubic supercell.


 Subroutine GETGRP returns: Found  1 space group operations
 (whereof  1 operations were pure point group operations)
 out of a pool of 48 trial point group operations.


The static configuration has the point symmetry C_1 .


Analysis of symmetry for dynamics (positions and initial velocities):
=====================================================================
 Subroutine PRICEL returns:
 Original cell was already a primitive cell.
 

 Routine SETGRP: Setting up the symmetry group for a 
 simple cubic supercell.


 Subroutine GETGRP returns: Found  1 space group operations
 (whereof  1 operations were pure point group operations)
 out of a pool of 48 trial point group operations.


The dynamic configuration has the point symmetry C_1 .


 Subroutine INISYM returns: Found  1 space group operations
 (whereof  1 operations are pure point group operations),
 and found     1 'primitive' translations


----------------------------------------------------------------------------------------

                                     Primitive cell                                     

  volume of cell :    8000.0000

  direct lattice vectors                    reciprocal lattice vectors
    20.000000000  0.000000000  0.000000000     0.050000000  0.000000000  0.000000000
     0.000000000 20.000000000  0.000000000     0.000000000  0.050000000  0.000000000
     0.000000000  0.000000000 20.000000000     0.000000000  0.000000000  0.050000000

  length of vectors
    20.000000000 20.000000000 20.000000000     0.050000000  0.050000000  0.050000000

  position of ions in fractional coordinates (direct lattice)
     0.405864885  0.499792820  0.512818480
     0.471543603  0.587963665  0.461783868
     0.588043671  0.554508022  0.464813523
     0.594240613  0.445740599  0.518004839
     0.481644225  0.411733022  0.547396217
     0.502838989  0.476457830  0.453320812

  ion indices of the primitive-cell ions
   primitive index   ion index
                 1           1
                 2           2
                 3           3
                 4           4
                 5           5
                 6           6

----------------------------------------------------------------------------------------



 KPOINTS: KPOINTS created by Atomic Simulation Env

Automatic generation of k-mesh.
 Grid dimensions read from file:
 generate k-points for:    1    1    1

 Generating k-lattice:

  Cartesian coordinates                     Fractional coordinates (reciprocal lattice)
     0.050000000  0.000000000  0.000000000     1.000000000  0.000000000  0.000000000
     0.000000000  0.050000000  0.000000000     0.000000000  1.000000000  0.000000000
     0.000000000  0.000000000  0.050000000     0.000000000  0.000000000  1.000000000

  Length of vectors
     0.050000000  0.050000000  0.050000000

  Shift w.r.t. Gamma in fractional coordinates (k-lattice)
     0.000000000  0.000000000  0.000000000

 
 Subroutine IBZKPT returns following result:
 ===========================================
 
 Found      1 irreducible k-points:
 
 Following reciprocal coordinates:
            Coordinates               Weight
  0.000000  0.000000  0.000000      1.000000
 
 Following cartesian coordinates:
            Coordinates               Weight
  0.000000  0.000000  0.000000      1.000000
 


--------------------------------------------------------------------------------------------------------




 Dimension of arrays:
   k-points           NKPTS =      1   k-points in BZ     NKDIM =      1   number of bands    NBANDS=     96
   number of dos      NEDOS =    301   number of ions     NIONS =      6
   non local maximal  LDIM  =      6   non local SUM 2l+1 LMDIM =     18
   total plane-waves  NPLWV = ******
   max r-space proj   IRMAX =   6426   max aug-charges    IRDMAX=  12418
   dimension x,y,z NGX =   150 NGY =  150 NGZ =  150
   dimension x,y,z NGXF=   300 NGYF=  300 NGZF=  300
   support grid    NGXF=   300 NGYF=  300 NGZF=  300
   ions per type =               6
   NGX,Y,Z   is equivalent  to a cutoff of  12.47, 12.47, 12.47 a.u.
   NGXF,Y,Z  is equivalent  to a cutoff of  24.94, 24.94, 24.94 a.u.

 SYSTEM =  MgO-rocksalt                            
 POSCAR =  Cu                                      

 Startparameter for this run:
   NWRITE =      2    write-flag & timer
   PREC   = accura    normal or accurate (medium, high low for compatibility)
   ISTART =      0    job   : 0-new  1-cont  2-samecut
   ICHARG =      2    charge: 1-file 2-atom 10-const
   ISPIN  =      1    spin polarized calculation?
   LNONCOLLINEAR =      F non collinear calculations
   LSORBIT =      F    spin-orbit coupling
   INIWAV =      1    electr: 0-lowe 1-rand  2-diag
   LASPH  =      T    aspherical Exc in radial PAW
 Electronic Relaxation 1
   ENCUT  =  520.0 eV  38.22 Ry    6.18 a.u.  37.19 37.19 37.19*2*pi/ulx,y,z
   ENINI  =  520.0     initial cutoff
   ENAUG  =  587.0 eV  augmentation charge cutoff
   NELM   =    200;   NELMIN=  8; NELMDL= -5     # of ELM steps 
   EDIFF  = 0.1E-05   stopping-criterion for ELM
   LREAL  =      T    real-space projection
   NLSPLINE    = F    spline interpolate recip. space projectors
   LCOMPAT=      F    compatible to vasp.4.4
   GGA_COMPAT  = T    GGA compatible to vasp.4.4-vasp.4.6
   LMAXPAW     = -100 max onsite density
   LMAXMIX     =    2 max onsite mixed and CHGCAR
   VOSKOWN=      0    Vosko Wilk Nusair interpolation
   ROPT   =   -0.00025
 Ionic relaxation
   EDIFFG = 0.1E-04   stopping-criterion for IOM
   NSW    =      0    number of steps for IOM
   NBLOCK =      1;   KBLOCK =      1    inner block; outer block 
   IBRION =     -1    ionic relax: 0-MD 1-quasi-New 2-CG
   NFREE  =      0    steps in history (QN), initial steepest desc. (CG)
   ISIF   =      2    stress and relaxation
   IWAVPR =     10    prediction:  0-non 1-charg 2-wave 3-comb
   ISYM   =      2    0-nonsym 1-usesym 2-fastsym
   LCORR  =      T    Harris-Foulkes like correction to forces

   POTIM  = 0.5000    time-step for ionic-motion
   TEIN   =    0.0    initial temperature
   TEBEG  =    0.0;   TEEND  =   0.0 temperature during run
   SMASS  =  -3.00    Nose mass-parameter (am)
   estimated Nose-frequenzy (Omega)   =  0.10E-29 period in steps = 0.13E+47 mass=  -0.914E-26a.u.
   SCALEE = 1.0000    scale energy and forces
   NPACO  =    256;   APACO  = 10.0  distance and # of slots for P.C.
   PSTRESS=    0.0 pullay stress

  Mass of Ions in am
   POMASS =  63.55
  Ionic Valenz
   ZVAL   =  11.00
  Atomic Wigner-Seitz radii
   RWIGS  =  -1.00
  virtual crystal weights 
   VCA    =   1.00
   NELECT =      66.0000    total number of electrons
   NUPDOWN=      -1.0000    fix difference up-down

 DOS related values:
   EMIN   =  10.00;   EMAX   =-10.00  energy-range for DOS
   EFERMI =   0.00
   ISMEAR =     0;   SIGMA  =   0.05  broadening in eV -4-tet -1-fermi 0-gaus

 Electronic relaxation 2 (details)
   IALGO  =     58    algorithm
   LDIAG  =      T    sub-space diagonalisation (order eigenvalues)
   LSUBROT=      F    optimize rotation matrix (better conditioning)
   TURBO    =      0    0=normal 1=particle mesh
   IRESTART =      0    0=no restart 2=restart with 2 vectors
   NREBOOT  =      0    no. of reboots
   NMIN     =      0    reboot dimension
   EREF     =   0.00    reference energy to select bands
   IMIX   =      4    mixing-type and parameters
     AMIX     =   0.40;   BMIX     =  1.00
     AMIX_MAG =   1.60;   BMIX_MAG =  1.00
     AMIN     =   0.10
     WC   =   100.;   INIMIX=   1;  MIXPRE=   1;  MAXMIX= -45

 Intra band minimization:
   WEIMIN = 0.0000     energy-eigenvalue tresh-hold
   EBREAK =  0.26E-08  absolut break condition
   DEPER  =   0.30     relativ break condition  

   TIME   =   0.40     timestep for ELM

  volume/ion in A,a.u.               =    1333.33      8997.78
  Fermi-wavevector in a.u.,A,eV,Ry     =   0.330795  0.625113  1.488826  0.109426
  Thomas-Fermi vector in A             =   1.226404

 Write flags
   LWAVE        =      F    write WAVECAR
   LDOWNSAMPLE  =      F    k-point downsampling of WAVECAR
   LCHARG       =      F    write CHGCAR
   LVTOT        =      F    write LOCPOT, total local potential
   LVHAR        =      F    write LOCPOT, Hartree potential only
   LELF         =      F    write electronic localiz. function (ELF)
   LORBIT       =      0    0 simple, 1 ext, 2 COOP (PROOUT), +10 PAW based schemes


 Dipole corrections
   LMONO  =      F    monopole corrections only (constant potential shift)
   LDIPOL =      F    correct potential (dipole corrections)
   IDIPOL =      0    1-x, 2-y, 3-z, 4-all directions 
   EPSILON=  1.0000000 bulk dielectric constant

 Exchange correlation treatment:
   GGA     =    --    GGA type
   LEXCH   =     8    internal setting for exchange type
   LIBXC   =     F    Libxc                    
   VOSKOWN =     0    Vosko Wilk Nusair interpolation
   LHFCALC =     F    Hartree Fock is set to
   LHFONE  =     F    Hartree Fock one center treatment
   AEXX    =    0.0000 exact exchange contribution

 Linear response parameters
   LEPSILON=     F    determine dielectric tensor
   LRPA    =     F    only Hartree local field effects (RPA)
   LNABLA  =     F    use nabla operator in PAW spheres
   LVEL    =     F    velocity operator in full k-point grid
   CSHIFT  =0.1000    complex shift for real part using Kramers Kronig
   OMEGAMAX=  -1.0    maximum frequency
   DEG_THRESHOLD= 0.2000000E-02 threshold for treating states as degnerate
   RTIME   =   -0.100 relaxation time in fs
  (WPLASMAI=    0.000 imaginary part of plasma frequency in eV, 0.658/RTIME)
   DFIELD  = 0.0000000 0.0000000 0.0000000 field for delta impulse in time

  Optional k-point grid parameters
   LKPOINTS_OPT  =     F    use optional k-point grid
   KPOINTS_OPT_MODE=     1    mode for optional k-point grid

 Orbital magnetization related:
   ORBITALMAG=     F  switch on orbital magnetization
   LCHIMAG   =     F  perturbation theory with respect to B field
   DQ        =  0.001000  dq finite difference perturbation B field
   LLRAUG    =     F  two centre corrections for induced B field



--------------------------------------------------------------------------------------------------------


 Static calculation
 charge density and potential will be updated during run
 non-spin polarized calculation
 Conjugate gradient for all bands (Freysoldt, et al. PRB 79, 241103 (2009))
 preconditioned conjugated gradient                                        
 perform sub-space diagonalisation
    before iterative eigenvector-optimisation
 modified Broyden-mixing scheme, WC =      100.0
 initial mixing is a Kerker type mixing with AMIX =  0.4000 and BMIX =      1.0000
 Hartree-type preconditioning will be used
 using additional bands           63
 real space projection scheme for non local part
 use partial core corrections
 no Harris-corrections to forces 
 use gradient corrections 
 use of overlap-Matrix (Vanderbilt PP)
 Gauss-broadening in eV      SIGMA  =   0.05


--------------------------------------------------------------------------------------------------------


  energy-cutoff  :      520.00
  volume of cell :     8000.00
      direct lattice vectors                 reciprocal lattice vectors
    20.000000000  0.000000000  0.000000000     0.050000000  0.000000000  0.000000000
     0.000000000 20.000000000  0.000000000     0.000000000  0.050000000  0.000000000
     0.000000000  0.000000000 20.000000000     0.000000000  0.000000000  0.050000000

  length of vectors
    20.000000000 20.000000000 20.000000000     0.050000000  0.050000000  0.050000000



 k-points in units of 2pi/SCALE and weight: KPOINTS created by Atomic Simulation Env
   0.00000000  0.00000000  0.00000000       1.000

 k-points in reciprocal lattice and weights: KPOINTS created by Atomic Simulation Env
   0.00000000  0.00000000  0.00000000       1.000

 position of ions in fractional coordinates (direct lattice) 
   0.40586489  0.49979282  0.51281848
   0.47154360  0.58796366  0.46178387
   0.58804367  0.55450802  0.46481352
   0.59424061  0.44574060  0.51800484
   0.48164423  0.41173302  0.54739622
   0.50283899  0.47645783  0.45332081

 position of ions in cartesian coordinates  (Angst):
   8.11729770  9.99585641 10.25636960
   9.43087206 11.75927329  9.23567736
  11.76087341 11.09016044  9.29627047
  11.88481226  8.91481199 10.36009678
   9.63288451  8.23466043 10.94792435
  10.05677977  9.52915661  9.06641624



--------------------------------------------------------------------------------------------------------


 k-point   1 :   0.0000 0.0000 0.0000  plane waves:  215503

 maximum and minimum number of plane-waves per node :     53900    53857

 maximum number of plane-waves:    215503
 maximum index in each direction: 
   IXMAX=   37   IYMAX=   37   IZMAX=   37
   IXMIN=  -37   IYMIN=  -37   IZMIN=  -37


 real space projection operators:
  total allocation   :       5221.41 KBytes
  max/ min on nodes  :       1310.34       1299.23


 parallel 3D FFT for wavefunctions:
    minimum data exchange during FFTs selected (reduces bandwidth)
 parallel 3D FFT for charge:
    minimum data exchange during FFTs selected (reduces bandwidth)


 total amount of memory used by VASP MPI-rank0   101856. kBytes
=======================================================================

   base      :      30000. kBytes
   nonlr-proj:       2249. kBytes
   fftplans  :      28354. kBytes
   grid      :      38630. kBytes
   one-center:         31. kBytes
   wavefun   :       2592. kBytes

     INWAV:  cpu time      0.0002: real time      0.0004
 Broyden mixing: mesh for mixing (old mesh)
   NGX = 75   NGY = 75   NGZ = 75
  (NGX  =300   NGY  =300   NGZ  =300)
  gives a total of 421875 points

 initial charge density was supplied:
 charge density of overlapping atoms calculated
 number of electron      66.0000000 magnetization 
 keeping initial charge density in first step


--------------------------------------------------------------------------------------------------------


 Maximum index for non-local projection operator         1551
 Maximum index for augmentation-charges            0 (set IRDMAX)


--------------------------------------------------------------------------------------------------------


 First call to EWALD:  gamma=   0.089
 Maximum number of real-space cells 3x 3x 3
 Maximum number of reciprocal cells 3x 3x 3

    FEWALD:  cpu time      0.0011: real time      0.0011


--------------------------------------- Iteration      1(   1)  ---------------------------------------


    POTLOK:  cpu time      0.1144: real time      0.1148
    SETDIJ:  cpu time      0.1816: real time      0.1816
    TRIAL :  cpu time      0.5449: real time      0.5453
    CORREC:  cpu time      0.0011: real time      0.0011
    --------------------------------------------
      LOOP:  cpu time      0.8432: real time      0.8438

 eigenvalue-minimisations  :   192
 total energy-change (2. order) : 0.3792534E+03  (-0.1499792E+04)
 number of electron      66.0000000 magnetization 
 augmentation part       66.0000000 magnetization 

 Free energy of the ion-electron system (eV)
  ---------------------------------------------------
  alpha Z        PSCENC =         3.29097617
  Ewald energy   TEWEN  =      5176.54465828
  -Hartree energ DENC   =    -12784.61905773
  -exchange      EXHF   =         0.00000000
  -V(xc)+E(xc)   XCENC  =       267.38409798
  PAW double counting   =      7369.23995927    -8004.29080276
  entropy T*S    EENTRO =        -0.09881452
  eigenvalues    EBANDS =         5.94006092
  atomic energy  EATOM  =      8345.86232397
  ---------------------------------------------------
  free energy    TOTEN  =       379.25340159 eV

  energy without entropy =      379.35221610  energy(sigma->0) =      379.30280884


--------------------------------------------------------------------------------------------------------




--------------------------------------- Iteration      1(   2)  ---------------------------------------


    TRIAL :  cpu time      0.5308: real time      0.5311
    CORREC:  cpu time      0.0003: real time      0.0003
    --------------------------------------------
      LOOP:  cpu time      0.5364: real time      0.5399

 eigenvalue-minimisations  :   192
 total energy-change (2. order) :-0.3850003E+03  (-0.3834174E+03)
 number of electron      66.0000000 magnetization 
 augmentation part       66.0000000 magnetization 

 Free energy of the ion-electron system (eV)
  ---------------------------------------------------
  alpha Z        PSCENC =         3.29097617
  Ewald energy   TEWEN  =      5176.54465828
  -Hartree energ DENC   =    -12784.61905773
  -exchange      EXHF   =         0.00000000
  -V(xc)+E(xc)   XCENC  =       267.38409798
  PAW double counting   =      7369.23995927    -8004.29080276
  entropy T*S    EENTRO =        -0.00000000
  eigenvalues    EBANDS =      -379.15907411
  atomic energy  EATOM  =      8345.86232397
  ---------------------------------------------------
  free energy    TOTEN  =        -5.74691893 eV

  energy without entropy =       -5.74691893  energy(sigma->0) =       -5.74691893


--------------------------------------------------------------------------------------------------------




--------------------------------------- Iteration      1(   3)  ---------------------------------------


    TRIAL :  cpu time      0.5471: real time      0.5471
    CORREC:  cpu time      0.0004: real time      0.0004
    --------------------------------------------
      LOOP:  cpu time      0.5497: real time      0.5554

 eigenvalue-minimisations  :   192
 total energy-change (2. order) :-0.9004808E+01  (-0.9004808E+01)
 number of electron      66.0000000 magnetization 
 augmentation part       66.0000000 magnetization 

 Free energy of the ion-electron system (eV)
  ---------------------------------------------------
  alpha Z        PSCENC =         3.29097617
  Ewald energy   TEWEN  =      5176.54465828
  -Hartree energ DENC   =    -12784.61905773
  -exchange      EXHF   =         0.00000000
  -V(xc)+E(xc)   XCENC  =       267.38409798
  PAW double counting   =      7369.23995927    -8004.29080276
  entropy T*S    EENTRO =        -0.00000000
  eigenvalues    EBANDS =      -388.16388228
  atomic energy  EATOM  =      8345.86232397
  ---------------------------------------------------
  free energy    TOTEN  =       -14.75172710 eV

  energy without entropy =      -14.75172710  energy(sigma->0) =      -14.75172710


--------------------------------------------------------------------------------------------------------




--------------------------------------- Iteration      1(   4)  ---------------------------------------


    TRIAL :  cpu time      1.8826: real time      1.8838
    CORREC:  cpu time      0.0003: real time      0.0003
    --------------------------------------------
      LOOP:  cpu time      1.8895: real time      1.8909

 eigenvalue-minimisations  :   384
 total energy-change (2. order) :-0.1912974E+00  (-0.1912974E+00)
 number of electron      66.0000000 magnetization 
 augmentation part       66.0000000 magnetization 

 Free energy of the ion-electron system (eV)
  ---------------------------------------------------
  alpha Z        PSCENC =         3.29097617
  Ewald energy   TEWEN  =      5176.54465828
  -Hartree energ DENC   =    -12784.61905773
  -exchange      EXHF   =         0.00000000
  -V(xc)+E(xc)   XCENC  =       267.38409798
  PAW double counting   =      7369.23995927    -8004.29080276
  entropy T*S    EENTRO =        -0.00000000
  eigenvalues    EBANDS =      -388.35517965
  atomic energy  EATOM  =      8345.86232397
  ---------------------------------------------------
  free energy    TOTEN  =       -14.94302447 eV

  energy without entropy =      -14.94302447  energy(sigma->0) =      -14.94302447


--------------------------------------------------------------------------------------------------------




--------------------------------------- Iteration      1(   5)  ---------------------------------------


    TRIAL :  cpu time      0.5425: real time      0.5428
    CORREC:  cpu time      0.0004: real time      0.0004
    CHARGE:  cpu time      0.0972: real time      0.0973
    --------------------------------------------
      LOOP:  cpu time      0.6427: real time      0.6489

 eigenvalue-minimisations  :   192
 total energy-change (2. order) :-0.2491872E-04  (-0.2491846E-04)
 number of electron      65.9999973 magnetization 
 augmentation part       41.1983477 magnetization 

 Free energy of the ion-electron system (eV)
  ---------------------------------------------------
  alpha Z        PSCENC =         3.29097617
  Ewald energy   TEWEN  =      5176.54465828
  -Hartree energ DENC   =    -12784.61905773
  -exchange      EXHF   =         0.00000000
  -V(xc)+E(xc)   XCENC  =       267.38409798
  PAW double counting   =      7369.23995927    -8004.29080276
  entropy T*S    EENTRO =        -0.00000000
  eigenvalues    EBANDS =      -388.35520457
  atomic energy  EATOM  =      8345.86232397
  ---------------------------------------------------
  free energy    TOTEN  =       -14.94304939 eV

  energy without entropy =      -14.94304939  energy(sigma->0) =      -14.94304939


--------------------------------------------------------------------------------------------------------




--------------------------------------- Iteration      1(   6)  ---------------------------------------


    POTLOK:  cpu time      0.1011: real time      0.1011
    SETDIJ:  cpu time      0.1813: real time      0.1813
    TRIAL :  cpu time      1.3060: real time      1.3066
    CORREC:  cpu time      0.4496: real time      0.4499
    CHARGE:  cpu time      0.0950: real time      0.0950
    --------------------------------------------
      LOOP:  cpu time      2.1402: real time      2.1420

 eigenvalue-minimisations  :     0
 total energy-change (2. order) : 0.6987975E+01  (-0.3797903E+01)
 number of electron      65.9999973 magnetization 
 augmentation part       42.5030604 magnetization 

 Free energy of the ion-electron system (eV)
  ---------------------------------------------------
  alpha Z        PSCENC =         3.29097617
  Ewald energy   TEWEN  =      5176.54465828
  -Hartree energ DENC   =    -12693.54759264
  -exchange      EXHF   =         0.00000000
  -V(xc)+E(xc)   XCENC  =       258.22737067
  PAW double counting   =      7645.05980535    -8247.34609493
  entropy T*S    EENTRO =        -0.00000000
  eigenvalues    EBANDS =      -496.04652089
  atomic energy  EATOM  =      8345.86232397
  ---------------------------------------------------
  free energy    TOTEN  =        -7.95507403 eV

  energy without entropy =       -7.95507403  energy(sigma->0) =       -7.95507403


--------------------------------------------------------------------------------------------------------




--------------------------------------- Iteration      1(   7)  ---------------------------------------


    POTLOK:  cpu time      0.0990: real time      0.0990
    SETDIJ:  cpu time      0.1813: real time      0.1813
    TRIAL :  cpu time      0.2057: real time      0.2059
    CORREC:  cpu time      0.4490: real time      0.4490
    CHARGE:  cpu time      0.0949: real time      0.0949
    --------------------------------------------
      LOOP:  cpu time      1.0377: real time      1.0382

 eigenvalue-minimisations  :     0
 total energy-change (2. order) :-0.3556735E+01  (-0.8711310E+00)
 number of electron      65.9999973 magnetization 
 augmentation part       42.3183490 magnetization 

 Free energy of the ion-electron system (eV)
  ---------------------------------------------------
  alpha Z        PSCENC =         3.29097617
  Ewald energy   TEWEN  =      5176.54465828
  -Hartree energ DENC   =    -12842.56821300
  -exchange      EXHF   =         0.00000000
  -V(xc)+E(xc)   XCENC  =       264.88482114
  PAW double counting   =      7729.74147083    -8380.88391559
  entropy T*S    EENTRO =        -0.00000000
  eigenvalues    EBANDS =      -308.38393129
  atomic energy  EATOM  =      8345.86232397
  ---------------------------------------------------
  free energy    TOTEN  =       -11.51180950 eV

  energy without entropy =      -11.51180950  energy(sigma->0) =      -11.51180950


--------------------------------------------------------------------------------------------------------




--------------------------------------- Iteration      1(   8)  ---------------------------------------


    POTLOK:  cpu time      0.1010: real time      0.1010
    SETDIJ:  cpu time      0.1775: real time      0.1775
    TRIAL :  cpu time      0.2049: real time      0.2052
    CORREC:  cpu time      0.4504: real time      0.4504
    CHARGE:  cpu time      0.0945: real time      0.0945
    --------------------------------------------
      LOOP:  cpu time      1.0353: real time      1.0358

 eigenvalue-minimisations  :     0
 total energy-change (2. order) :-0.8709248E+00  (-0.2043611E+00)
 number of electron      65.9999973 magnetization 
 augmentation part       42.5574106 magnetization 

 Free energy of the ion-electron system (eV)
  ---------------------------------------------------
  alpha Z        PSCENC =         3.29097617
  Ewald energy   TEWEN  =      5176.54465828
  -Hartree energ DENC   =    -12756.94165362
  -exchange      EXHF   =         0.00000000
  -V(xc)+E(xc)   XCENC  =       263.46562770
  PAW double counting   =      7685.66643745    -8325.96771415
  entropy T*S    EENTRO =        -0.00000000
  eigenvalues    EBANDS =      -404.30339009
  atomic energy  EATOM  =      8345.86232397
  ---------------------------------------------------
  free energy    TOTEN  =       -12.38273430 eV

  energy without entropy =      -12.38273430  energy(sigma->0) =      -12.38273430


--------------------------------------------------------------------------------------------------------




--------------------------------------- Iteration      1(   9)  ---------------------------------------


    POTLOK:  cpu time      0.0998: real time      0.0998
    SETDIJ:  cpu time      0.1802: real time      0.1802
    TRIAL :  cpu time      0.2050: real time      0.2052
    CORREC:  cpu time      0.4612: real time      0.4612
    CHARGE:  cpu time      0.0961: real time      0.0961
    --------------------------------------------
      LOOP:  cpu time      1.0459: real time      1.0498

 eigenvalue-minimisations  :     0
 total energy-change (2. order) :-0.2031163E+00  (-0.1305738E+00)
 number of electron      65.9999973 magnetization 
 augmentation part       42.4511774 magnetization 

 Free energy of the ion-electron system (eV)
  ---------------------------------------------------
  alpha Z        PSCENC =         3.29097617
  Ewald energy   TEWEN  =      5176.54465828
  -Hartree energ DENC   =    -12786.94028424
  -exchange      EXHF   =         0.00000000
  -V(xc)+E(xc)   XCENC  =       264.80175009
  PAW double counting   =      7710.20374279    -8358.26651059
  entropy T*S    EENTRO =        -0.00000000
  eigenvalues    EBANDS =      -368.08250703
  atomic energy  EATOM  =      8345.86232397
  ---------------------------------------------------
  free energy    TOTEN  =       -12.58585057 eV

  energy without entropy =      -12.58585057  energy(sigma->0) =      -12.58585057


--------------------------------------------------------------------------------------------------------




--------------------------------------- Iteration      1(  10)  ---------------------------------------


    POTLOK:  cpu time      0.0981: real time      0.0981
    SETDIJ:  cpu time      0.1970: real time      0.1972
    TRIAL :  cpu time      0.2064: real time      0.2064
    CORREC:  cpu time      0.4509: real time      0.4509
    CHARGE:  cpu time      0.0941: real time      0.0941
    --------------------------------------------
      LOOP:  cpu time      1.0536: real time      1.0542

 eigenvalue-minimisations  :     0
 total energy-change (2. order) :-0.1303154E+00  (-0.4690604E-01)
 number of electron      65.9999973 magnetization 
 augmentation part       42.4882775 magnetization 

 Free energy of the ion-electron system (eV)
  ---------------------------------------------------
  alpha Z        PSCENC =         3.29097617
  Ewald energy   TEWEN  =      5176.54465828
  -Hartree energ DENC   =    -12775.43212581
  -exchange      EXHF   =         0.00000000
  -V(xc)+E(xc)   XCENC  =       264.34917295
  PAW double counting   =      7710.49333939    -8352.90445772
  entropy T*S    EENTRO =        -0.00000000
  eigenvalues    EBANDS =      -384.92005320
  atomic energy  EATOM  =      8345.86232397
  ---------------------------------------------------
  free energy    TOTEN  =       -12.71616598 eV

  energy without entropy =      -12.71616598  energy(sigma->0) =      -12.71616598


--------------------------------------------------------------------------------------------------------




--------------------------------------- Iteration      1(  11)  ---------------------------------------


    POTLOK:  cpu time      0.1019: real time      0.1019
    SETDIJ:  cpu time      0.1774: real time      0.1776
    TRIAL :  cpu time      0.2076: real time      0.2076
    CORREC:  cpu time      0.4481: real time      0.4481
    CHARGE:  cpu time      0.0955: real time      0.0955
    --------------------------------------------
      LOOP:  cpu time      1.0374: real time      1.0381

 eigenvalue-minimisations  :     0
 total energy-change (2. order) :-0.4738045E-01  (-0.2633813E-01)
 number of electron      65.9999973 magnetization 
 augmentation part       42.5123206 magnetization 

 Free energy of the ion-electron system (eV)
  ---------------------------------------------------
  alpha Z        PSCENC =         3.29097617
  Ewald energy   TEWEN  =      5176.54465828
  -Hartree energ DENC   =    -12782.66564395
  -exchange      EXHF   =         0.00000000
  -V(xc)+E(xc)   XCENC  =       264.57390479
  PAW double counting   =      7713.29954024    -8356.04732189
  entropy T*S    EENTRO =        -0.00000000
  eigenvalues    EBANDS =      -377.62198402
  atomic energy  EATOM  =      8345.86232397
  ---------------------------------------------------
  free energy    TOTEN  =       -12.76354643 eV

  energy without entropy =      -12.76354643  energy(sigma->0) =      -12.76354643


--------------------------------------------------------------------------------------------------------




--------------------------------------- Iteration      1(  12)  ---------------------------------------


    POTLOK:  cpu time      0.0975: real time      0.0975
    SETDIJ:  cpu time      0.1839: real time      0.1841
    TRIAL :  cpu time      0.2057: real time      0.2057
    CORREC:  cpu time      0.4500: real time      0.4500
    CHARGE:  cpu time      0.0950: real time      0.0950
    --------------------------------------------
      LOOP:  cpu time      1.0346: real time      1.0403

 eigenvalue-minimisations  :     0
 total energy-change (2. order) :-0.2635347E-01  (-0.6699538E-02)
 number of electron      65.9999973 magnetization 
 augmentation part       42.4870319 magnetization 

 Free energy of the ion-electron system (eV)
  ---------------------------------------------------
  alpha Z        PSCENC =         3.29097617
  Ewald energy   TEWEN  =      5176.54465828
  -Hartree energ DENC   =    -12784.66948885
  -exchange      EXHF   =         0.00000000
  -V(xc)+E(xc)   XCENC  =       264.69996912
  PAW double counting   =      7713.14118716    -8356.13615043
  entropy T*S    EENTRO =        -0.00000000
  eigenvalues    EBANDS =      -375.52337530
  atomic energy  EATOM  =      8345.86232397
  ---------------------------------------------------
  free energy    TOTEN  =       -12.78989990 eV

  energy without entropy =      -12.78989990  energy(sigma->0) =      -12.78989990


--------------------------------------------------------------------------------------------------------




--------------------------------------- Iteration      1(  13)  ---------------------------------------


    POTLOK:  cpu time      0.0988: real time      0.0988
    SETDIJ:  cpu time      0.1826: real time      0.1828
    TRIAL :  cpu time      0.2061: real time      0.2061
    CORREC:  cpu time      0.4496: real time      0.4496
    CHARGE:  cpu time      0.0948: real time      0.0948
    --------------------------------------------
      LOOP:  cpu time      1.0398: real time      1.0404

 eigenvalue-minimisations  :     0
 total energy-change (2. order) :-0.6699654E-02  (-0.4187938E-02)
 number of electron      65.9999973 magnetization 
 augmentation part       42.5151025 magnetization 

 Free energy of the ion-electron system (eV)
  ---------------------------------------------------
  alpha Z        PSCENC =         3.29097617
  Ewald energy   TEWEN  =      5176.54465828
  -Hartree energ DENC   =    -12779.43821424
  -exchange      EXHF   =         0.00000000
  -V(xc)+E(xc)   XCENC  =       264.52714443
  PAW double counting   =      7708.26433085    -8350.08887311
  entropy T*S    EENTRO =        -0.00000000
  eigenvalues    EBANDS =      -381.75894590
  atomic energy  EATOM  =      8345.86232397
  ---------------------------------------------------
  free energy    TOTEN  =       -12.79659955 eV

  energy without entropy =      -12.79659955  energy(sigma->0) =      -12.79659955


--------------------------------------------------------------------------------------------------------




--------------------------------------- Iteration      1(  14)  ---------------------------------------


    POTLOK:  cpu time      0.0993: real time      0.0996
    SETDIJ:  cpu time      0.1795: real time      0.1795
    TRIAL :  cpu time      0.2043: real time      0.2044
    CORREC:  cpu time      0.4466: real time      0.4467
    CHARGE:  cpu time      0.0945: real time      0.0945
    --------------------------------------------
      LOOP:  cpu time      1.0264: real time      1.0319

 eigenvalue-minimisations  :     0
 total energy-change (2. order) :-0.4184566E-02  (-0.6813118E-03)
 number of electron      65.9999973 magnetization 
 augmentation part       42.5050334 magnetization 

 Free energy of the ion-electron system (eV)
  ---------------------------------------------------
  alpha Z        PSCENC =         3.29097617
  Ewald energy   TEWEN  =      5176.54465828
  -Hartree energ DENC   =    -12781.56700783
  -exchange      EXHF   =         0.00000000
  -V(xc)+E(xc)   XCENC  =       264.64770927
  PAW double counting   =      7708.41979850    -8351.26244575
  entropy T*S    EENTRO =        -0.00000000
  eigenvalues    EBANDS =      -378.73679672
  atomic energy  EATOM  =      8345.86232397
  ---------------------------------------------------
  free energy    TOTEN  =       -12.80078412 eV

  energy without entropy =      -12.80078412  energy(sigma->0) =      -12.80078412


--------------------------------------------------------------------------------------------------------




--------------------------------------- Iteration      1(  15)  ---------------------------------------


    POTLOK:  cpu time      0.0979: real time      0.0982
    SETDIJ:  cpu time      0.1817: real time      0.1817
    TRIAL :  cpu time      0.2050: real time      0.2050
    CORREC:  cpu time      0.4490: real time      0.4507
    CHARGE:  cpu time      0.0953: real time      0.0953
    --------------------------------------------
      LOOP:  cpu time      1.0331: real time      1.0393

 eigenvalue-minimisations  :     0
 total energy-change (2. order) :-0.6813243E-03  (-0.3486658E-03)
 number of electron      65.9999973 magnetization 
 augmentation part       42.5115948 magnetization 

 Free energy of the ion-electron system (eV)
  ---------------------------------------------------
  alpha Z        PSCENC =         3.29097617
  Ewald energy   TEWEN  =      5176.54465828
  -Hartree energ DENC   =    -12780.28624822
  -exchange      EXHF   =         0.00000000
  -V(xc)+E(xc)   XCENC  =       264.59072267
  PAW double counting   =      7707.83729184    -8350.27792923
  entropy T*S    EENTRO =        -0.00000000
  eigenvalues    EBANDS =      -380.36326092
  atomic energy  EATOM  =      8345.86232397
  ---------------------------------------------------
  free energy    TOTEN  =       -12.80146544 eV

  energy without entropy =      -12.80146544  energy(sigma->0) =      -12.80146544


--------------------------------------------------------------------------------------------------------




--------------------------------------- Iteration      1(  16)  ---------------------------------------


    POTLOK:  cpu time      0.0966: real time      0.0978
    SETDIJ:  cpu time      0.1779: real time      0.1816
    TRIAL :  cpu time      0.2042: real time      0.2059
    CORREC:  cpu time      0.4504: real time      0.4504
    CHARGE:  cpu time      0.0946: real time      0.0946
    --------------------------------------------
      LOOP:  cpu time      1.0324: real time      1.0396

 eigenvalue-minimisations  :     0
 total energy-change (2. order) :-0.3484849E-03  (-0.9624027E-04)
 number of electron      65.9999973 magnetization 
 augmentation part       42.5115129 magnetization 

 Free energy of the ion-electron system (eV)
  ---------------------------------------------------
  alpha Z        PSCENC =         3.29097617
  Ewald energy   TEWEN  =      5176.54465828
  -Hartree energ DENC   =    -12781.24993143
  -exchange      EXHF   =         0.00000000
  -V(xc)+E(xc)   XCENC  =       264.62673328
  PAW double counting   =      7708.80343783    -8351.49067657
  entropy T*S    EENTRO =        -0.00000000
  eigenvalues    EBANDS =      -379.18933546
  atomic energy  EATOM  =      8345.86232397
  ---------------------------------------------------
  free energy    TOTEN  =       -12.80181393 eV

  energy without entropy =      -12.80181393  energy(sigma->0) =      -12.80181393


--------------------------------------------------------------------------------------------------------




--------------------------------------- Iteration      1(  17)  ---------------------------------------


    POTLOK:  cpu time      0.0974: real time      0.0974
    SETDIJ:  cpu time      0.1811: real time      0.1811
    TRIAL :  cpu time      0.2051: real time      0.2051
    CORREC:  cpu time      0.4479: real time      0.4479
    CHARGE:  cpu time      0.0964: real time      0.0965
    --------------------------------------------
      LOOP:  cpu time      1.0308: real time      1.0363

 eigenvalue-minimisations  :     0
 total energy-change (2. order) :-0.9625648E-04  (-0.4942250E-04)
 number of electron      65.9999973 magnetization 
 augmentation part       42.5104766 magnetization 

 Free energy of the ion-electron system (eV)
  ---------------------------------------------------
  alpha Z        PSCENC =         3.29097617
  Ewald energy   TEWEN  =      5176.54465828
  -Hartree energ DENC   =    -12781.24085727
  -exchange      EXHF   =         0.00000000
  -V(xc)+E(xc)   XCENC  =       264.62629741
  PAW double counting   =      7709.04520615    -8351.70964183
  entropy T*S    EENTRO =        -0.00000000
  eigenvalues    EBANDS =      -379.22087305
  atomic energy  EATOM  =      8345.86232397
  ---------------------------------------------------
  free energy    TOTEN  =       -12.80191018 eV

  energy without entropy =      -12.80191018  energy(sigma->0) =      -12.80191018


--------------------------------------------------------------------------------------------------------




--------------------------------------- Iteration      1(  18)  ---------------------------------------


    POTLOK:  cpu time      0.0979: real time      0.0979
    SETDIJ:  cpu time      0.1816: real time      0.1817
    TRIAL :  cpu time      0.2060: real time      0.2061
    CORREC:  cpu time      0.4464: real time      0.4464
    CHARGE:  cpu time      0.0949: real time      0.0950
    --------------------------------------------
      LOOP:  cpu time      1.0338: real time      1.0345

 eigenvalue-minimisations  :     0
 total energy-change (2. order) :-0.4932767E-04  (-0.1394996E-04)
 number of electron      65.9999973 magnetization 
 augmentation part       42.5119660 magnetization 

 Free energy of the ion-electron system (eV)
  ---------------------------------------------------
  alpha Z        PSCENC =         3.29097617
  Ewald energy   TEWEN  =      5176.54465828
  -Hartree energ DENC   =    -12781.07855636
  -exchange      EXHF   =         0.00000000
  -V(xc)+E(xc)   XCENC  =       264.62153781
  PAW double counting   =      7709.20370537    -8351.81464090
  entropy T*S    EENTRO =        -0.00000000
  eigenvalues    EBANDS =      -379.43196384
  atomic energy  EATOM  =      8345.86232397
  ---------------------------------------------------
  free energy    TOTEN  =       -12.80195951 eV

  energy without entropy =      -12.80195951  energy(sigma->0) =      -12.80195951


--------------------------------------------------------------------------------------------------------




--------------------------------------- Iteration      1(  19)  ---------------------------------------


    POTLOK:  cpu time      0.0963: real time      0.0963
    SETDIJ:  cpu time      0.1842: real time      0.1842
    TRIAL :  cpu time      0.2059: real time      0.2059
    CORREC:  cpu time      0.4512: real time      0.4512
    CHARGE:  cpu time      0.0945: real time      0.0945
    --------------------------------------------
      LOOP:  cpu time      1.0351: real time      1.0395

 eigenvalue-minimisations  :     0
 total energy-change (2. order) :-0.1394542E-04  (-0.7498493E-05)
 number of electron      65.9999973 magnetization 
 augmentation part       42.5107519 magnetization 

 Free energy of the ion-electron system (eV)
  ---------------------------------------------------
  alpha Z        PSCENC =         3.29097617
  Ewald energy   TEWEN  =      5176.54465828
  -Hartree energ DENC   =    -12781.36897884
  -exchange      EXHF   =         0.00000000
  -V(xc)+E(xc)   XCENC  =       264.63034738
  PAW double counting   =      7709.52824768    -8352.19609513
  entropy T*S    EENTRO =        -0.00000000
  eigenvalues    EBANDS =      -379.09345295
  atomic energy  EATOM  =      8345.86232397
  ---------------------------------------------------
  free energy    TOTEN  =       -12.80197346 eV

  energy without entropy =      -12.80197346  energy(sigma->0) =      -12.80197346


--------------------------------------------------------------------------------------------------------




--------------------------------------- Iteration      1(  20)  ---------------------------------------


    POTLOK:  cpu time      0.0987: real time      0.0987
    SETDIJ:  cpu time      0.1813: real time      0.1813
    TRIAL :  cpu time      0.2044: real time      0.2044
    CORREC:  cpu time      0.4460: real time      0.4461
    CHARGE:  cpu time      0.0952: real time      0.0952
    --------------------------------------------
      LOOP:  cpu time      1.0326: real time      1.0332

 eigenvalue-minimisations  :     0
 total energy-change (2. order) :-0.7508795E-05  (-0.2643502E-05)
 number of electron      65.9999973 magnetization 
 augmentation part       42.5113677 magnetization 

 Free energy of the ion-electron system (eV)
  ---------------------------------------------------
  alpha Z        PSCENC =         3.29097617
  Ewald energy   TEWEN  =      5176.54465828
  -Hartree energ DENC   =    -12781.24249692
  -exchange      EXHF   =         0.00000000
  -V(xc)+E(xc)   XCENC  =       264.62424066
  PAW double counting   =      7709.58079790    -8352.20239974
  entropy T*S    EENTRO =        -0.00000000
  eigenvalues    EBANDS =      -379.26008127
  atomic energy  EATOM  =      8345.86232397
  ---------------------------------------------------
  free energy    TOTEN  =       -12.80198097 eV

  energy without entropy =      -12.80198097  energy(sigma->0) =      -12.80198097


--------------------------------------------------------------------------------------------------------




--------------------------------------- Iteration      1(  21)  ---------------------------------------


    POTLOK:  cpu time      0.0990: real time      0.0990
    SETDIJ:  cpu time      0.1797: real time      0.1797
    TRIAL :  cpu time      0.2054: real time      0.2054
    CORREC:  cpu time      0.4499: real time      0.4499
    CHARGE:  cpu time      0.0931: real time      0.0931
    --------------------------------------------
      LOOP:  cpu time      1.0341: real time      1.0344

 eigenvalue-minimisations  :     0
 total energy-change (2. order) :-0.2638121E-05  (-0.7906893E-06)
 number of electron      65.9999973 magnetization 
 augmentation part       42.5110206 magnetization 

 Free energy of the ion-electron system (eV)
  ---------------------------------------------------
  alpha Z        PSCENC =         3.29097617
  Ewald energy   TEWEN  =      5176.54465828
  -Hartree energ DENC   =    -12781.30017754
  -exchange      EXHF   =         0.00000000
  -V(xc)+E(xc)   XCENC  =       264.62706304
  PAW double counting   =      7709.67532942    -8352.32212785
  entropy T*S    EENTRO =        -0.00000000
  eigenvalues    EBANDS =      -379.18002908
  atomic energy  EATOM  =      8345.86232397
  ---------------------------------------------------
  free energy    TOTEN  =       -12.80198360 eV

  energy without entropy =      -12.80198360  energy(sigma->0) =      -12.80198360


--------------------------------------------------------------------------------------------------------




--------------------------------------- Iteration      1(  22)  ---------------------------------------


    POTLOK:  cpu time      0.0983: real time      0.0983
    SETDIJ:  cpu time      0.1808: real time      0.1808
    TRIAL :  cpu time      0.2044: real time      0.2044
    CORREC:  cpu time      0.4480: real time      0.4481
    EDDIAG:  cpu time      0.0937: real time      0.0937
    CHARGE:  cpu time      0.0950: real time      0.0950
    --------------------------------------------
      LOOP:  cpu time      1.1222: real time      1.1278

 eigenvalue-minimisations  :     0
 total energy-change (2. order) :-0.7933977E-06  (-0.3538404E-06)
 number of electron      65.9999973 magnetization 
 augmentation part       42.5110562 magnetization 

 Free energy of the ion-electron system (eV)
  ---------------------------------------------------
  alpha Z        PSCENC =         3.29097617
  Ewald energy   TEWEN  =      5176.54465828
  -Hartree energ DENC   =    -12781.23131074
  -exchange      EXHF   =         0.00000000
  -V(xc)+E(xc)   XCENC  =       264.62494465
  PAW double counting   =      7709.66215193    -8352.29586250
  entropy T*S    EENTRO =        -0.00000000
  eigenvalues    EBANDS =      -379.25986615
  atomic energy  EATOM  =      8345.86232397
  ---------------------------------------------------
  free energy    TOTEN  =       -12.80198440 eV

  energy without entropy =      -12.80198440  energy(sigma->0) =      -12.80198440


--------------------------------------------------------------------------------------------------------


  average scaling for gradient   1.5358


 average (electrostatic) potential at core
  the test charge radii are     0.9430
  (the norm of the test charge is              1.0000)
       1 -74.0450       2 -74.0451       3 -74.0461       4 -74.0447       5 -74.0458
       6 -74.6665



 E-fermi :  -4.3796     XC(G=0):  -0.3350     alpha+bet : -0.1189

 Fermi energy:        -4.3795889114

 k-point     1 :       0.0000    0.0000    0.0000
  band No.  band energies     occupation 
      1      -8.6818      2.00000
      2      -7.2161      2.00000
      3      -7.2154      2.00000
      4      -7.0437      2.00000
      5      -7.0435      2.00000
      6      -6.7258      2.00000
      7      -6.4764      2.00000
      8      -6.1356      2.00000
      9      -6.1344      2.00000
     10      -6.0116      2.00000
     11      -6.0109      2.00000
     12      -5.7969      2.00000
     13      -5.7959      2.00000
     14      -5.7035      2.00000
     15      -5.7028      2.00000
     16      -5.6445      2.00000
     17      -5.4043      2.00000
     18      -5.4019      2.00000
     19      -5.3214      2.00000
     20      -5.2616      2.00000
     21      -5.2610      2.00000
     22      -5.2385      2.00000
     23      -5.2381      2.00000
     24      -5.0929      2.00000
     25      -5.0925      2.00000
     26      -5.0838      2.00000
     27      -5.0835      2.00000
     28      -4.9769      2.00000
     29      -4.8685      2.00000
     30      -4.8685      2.00000
     31      -4.7990      2.00000
     32      -4.6495      2.00000
     33      -4.6484      2.00000
     34      -3.1110      0.00000
     35      -2.6816      0.00000
     36      -2.6811      0.00000
     37      -1.9784      0.00000
     38      -0.9874      0.00000
     39      -0.9871      0.00000
     40      -0.1693      0.00000
     41      -0.1631      0.00000
     42      -0.0969      0.00000
     43      -0.0954      0.00000
     44      -0.0421      0.00000
     45       0.1890      0.00000
     46       0.3826      0.00000
     47       0.4032      0.00000
     48       0.4473      0.00000
     49       0.5176      0.00000
     50       0.5330      0.00000
     51       0.5895      0.00000
     52       0.6799      0.00000
     53       0.7276      0.00000
     54       0.7644      0.00000
     55       0.7713      0.00000
     56       0.7780      0.00000
     57       0.7949      0.00000
     58       0.8077      0.00000
     59       0.8124      0.00000
     60       0.8490      0.00000
     61       0.9580      0.00000
     62       0.9644      0.00000
     63       1.0586      0.00000
     64       1.0717      0.00000
     65       1.1125      0.00000
     66       1.1169      0.00000
     67       1.1628      0.00000
     68       1.1724      0.00000
     69       1.1760      0.00000
     70       1.2723      0.00000
     71       1.3443      0.00000
     72       1.3763      0.00000
     73       1.4077      0.00000
     74       1.4594      0.00000
     75       1.5091      0.00000
     76       1.5370      0.00000
     77       1.5746      0.00000
     78       1.5888      0.00000
     79       1.6802      0.00000
     80       1.7469      0.00000
     81       1.7692      0.00000
     82       1.7989      0.00000
     83       1.8040      0.00000
     84       1.8097      0.00000
     85       1.8285      0.00000
     86       1.8520      0.00000
     87       1.8681      0.00000
     88       1.8808      0.00000
     89       1.8943      0.00000
     90       1.9045      0.00000
     91       1.9073      0.00000
     92       1.9313      0.00000
     93       1.9377      0.00000
     94       1.9403      0.00000
     95       1.9450      0.00000
     96       1.9487      0.00000


--------------------------------------------------------------------------------------------------------


 soft charge-density along one line, spin component           1
         0         1         2         3         4         5         6         7         8         9
 total charge-density along one line

 pseudopotential strength for first ion, spin component:           1
-10.374   0.031  -0.015   0.002   0.002   0.896  -0.024   0.012
  0.031 -10.358  -0.000   0.018  -0.007  -0.024   0.884  -0.001
 -0.015  -0.000 -10.359   0.019   0.008   0.012  -0.001   0.885
  0.002   0.018   0.019 -10.377   0.035  -0.002  -0.013  -0.014
  0.002  -0.007   0.008   0.035 -10.374  -0.001   0.006  -0.005
  0.896  -0.024   0.012  -0.002  -0.001   6.391   0.016  -0.008
 -0.024   0.884  -0.001  -0.013   0.006   0.016   6.398   0.000
  0.012  -0.001   0.885  -0.014  -0.005  -0.008   0.000   6.397
 -0.002  -0.013  -0.014   0.896  -0.026   0.001   0.009   0.010
 -0.001   0.006  -0.005  -0.026   0.896   0.001  -0.003   0.003
 -0.004  -0.003  -0.002  -0.008  -0.000   0.000  -0.001  -0.001
 -0.008  -0.006  -0.004  -0.015  -0.000  -0.000  -0.001  -0.002
 -0.020   0.009  -0.002   0.000  -0.003   0.010  -0.004   0.001
  0.000   0.003   0.010  -0.019  -0.000  -0.000  -0.001  -0.004
  0.003   0.000   0.012   0.008  -0.020  -0.001  -0.000  -0.006
 -0.020   0.009  -0.002   0.000  -0.003   0.008  -0.003   0.001
  0.000   0.003   0.010  -0.020  -0.000  -0.000  -0.000  -0.002
  0.003   0.000   0.012   0.008  -0.021  -0.001  -0.000  -0.005
 total augmentation occupancy for first ion, spin component:           1
  1.963   0.005   0.002  -0.004   0.002  -0.006  -0.005   0.001  -0.002  -0.003   0.021   0.002   0.072   0.001  -0.019  -0.035
  0.005   1.959  -0.000   0.012  -0.009  -0.005  -0.013   0.001  -0.006   0.008   0.019   0.009  -0.021  -0.020  -0.007   0.014
  0.002  -0.000   1.966   0.007  -0.005   0.001   0.001  -0.018  -0.003   0.001   0.003   0.006  -0.004  -0.024  -0.032  -0.003
 -0.004   0.012   0.007   1.955   0.008  -0.002  -0.006  -0.003  -0.008  -0.009   0.037   0.003   0.001   0.078  -0.042   0.001
  0.002  -0.009  -0.005   0.008   1.957  -0.003   0.008   0.001  -0.009  -0.009   0.019   0.003  -0.006  -0.012   0.048  -0.004
 -0.006  -0.005   0.001  -0.002  -0.003   0.010  -0.002   0.002  -0.002  -0.001  -0.023   0.002   0.027  -0.007  -0.006  -0.001
 -0.005  -0.013   0.001  -0.006   0.008  -0.002   0.004   0.000   0.000   0.001  -0.033   0.002  -0.006   0.001  -0.003   0.000
  0.001   0.001  -0.018  -0.003   0.001   0.002   0.000   0.004  -0.000  -0.001  -0.027   0.003   0.004  -0.003  -0.011  -0.000
 -0.002  -0.006  -0.003  -0.008  -0.009  -0.002   0.000  -0.000   0.008  -0.002  -0.046   0.004  -0.007   0.017  -0.012   0.000
 -0.003   0.008   0.001  -0.009  -0.009  -0.001   0.001  -0.001  -0.002   0.007   0.001  -0.002  -0.001  -0.003   0.014   0.000
  0.021   0.019   0.003   0.037   0.019  -0.023  -0.033  -0.027  -0.046   0.001   1.642  -0.093  -0.033  -0.097   0.242   0.004
  0.002   0.009   0.006   0.003   0.003   0.002   0.002   0.003   0.004  -0.002  -0.093   0.008   0.003   0.008  -0.024  -0.000
  0.072  -0.021  -0.004   0.001  -0.006   0.027  -0.006   0.004  -0.007  -0.001  -0.033   0.003   0.091  -0.027  -0.012  -0.006
  0.001  -0.020  -0.024   0.078  -0.012  -0.007   0.001  -0.003   0.017  -0.003  -0.097   0.008  -0.027   0.052  -0.021   0.001
 -0.019  -0.007  -0.032  -0.042   0.048  -0.006  -0.003  -0.011  -0.012   0.014   0.242  -0.024  -0.012  -0.021   0.084   0.001
 -0.035   0.014  -0.003   0.001  -0.004  -0.001   0.000  -0.000   0.000   0.000   0.004  -0.000  -0.006   0.001   0.001   0.001
  0.001   0.005   0.016  -0.033   0.000   0.000  -0.000  -0.000  -0.001   0.000   0.011  -0.001   0.001  -0.004   0.003  -0.000
  0.005   0.001   0.019   0.014  -0.031   0.001   0.000   0.001   0.001  -0.001  -0.030   0.002   0.001   0.003  -0.009  -0.000


------------------------ aborting loop because EDIFF is reached ----------------------------------------


    FORLOC:  cpu time      0.0027: real time      0.0027
    FORNL :  cpu time      0.1031: real time      0.1031
    STRESS:  cpu time      0.3052: real time      0.3053
    FORCOR:  cpu time      0.0716: real time      0.0717
    OFIELD:  cpu time      0.0003: real time      0.0003
    FORVDW:  cpu time      0.0040: real time      0.0040

  FORCE on cell =-STRESS in cart. coord.  units (eV):
  Direction    XX          YY          ZZ          XY          YZ          ZX
  --------------------------------------------------------------------------------------
  Alpha Z     3.29098     3.29098     3.29098
  Ewald    2905.16116  2237.20748    34.17368  -155.63277 -1380.72469  -321.11746
  Hartree  5244.54855  4687.18092  2849.50248  -128.95614 -1143.27086  -265.88075
  E(xc)    -384.57061  -384.84226  -385.73979    -0.06578    -0.58521    -0.13618
  Local   -8717.70909 -7494.86181 -3462.37669   283.99953  2518.63244   585.74972
  n-local  -147.92474  -148.21494  -149.17276    -0.07273    -0.62375    -0.14277
  augment   557.42723   558.81843   563.44364     0.33322     3.01485     0.70236
  Kinetic   540.30681   541.86962   547.05637     0.37309     3.38252     0.78915
  Fock        0.00000     0.00000     0.00000     0.00000     0.00000     0.00000
  vdW        -0.22232    -0.18213    -0.04951     0.00967     0.08637     0.02012
  -------------------------------------------------------------------------------------
  Total       0.30797     0.26629     0.12839    -0.01190    -0.08834    -0.01582
  in kB       0.06168     0.05333     0.02571    -0.00238    -0.01769    -0.00317
  external pressure =        0.05 kB  Pullay stress =        0.00 kB


 VOLUME and BASIS-vectors are now :
 -----------------------------------------------------------------------------
  energy-cutoff  :      520.00
  volume of cell :     8000.00
      direct lattice vectors                 reciprocal lattice vectors
    20.000000000  0.000000000  0.000000000     0.050000000  0.000000000  0.000000000
     0.000000000 20.000000000  0.000000000     0.000000000  0.050000000  0.000000000
     0.000000000  0.000000000 20.000000000     0.000000000  0.000000000  0.050000000

  length of vectors
    20.000000000 20.000000000 20.000000000     0.050000000  0.050000000  0.050000000


 FORCES acting on ions:
    Electron-Ion                     Ewald-Force                    Non-Local-Force
 -----------------------------------------------------------------------------------------------
   0.827E+03 -.653E+02 -.232E+03   -.818E+03 0.639E+02 0.228E+03   -.921E+01 0.145E+01 0.409E+01
   0.287E+03 -.791E+03 0.188E+03   -.284E+03 0.781E+03 -.188E+03   -.308E+01 0.968E+01 -.674E+00
   -.672E+03 -.515E+03 0.164E+03   0.664E+03 0.509E+03 -.163E+03   0.779E+01 0.656E+01 -.411E+00
   -.723E+03 0.380E+03 -.276E+03   0.715E+03 -.376E+03 0.271E+03   0.836E+01 -.357E+01 0.459E+01
   0.204E+03 0.660E+03 -.517E+03   -.202E+03 -.653E+03 0.509E+03   -.215E+01 -.678E+01 0.730E+01
   0.760E+02 0.328E+03 0.665E+03   -.752E+02 -.325E+03 -.658E+03   -.828E+00 -.355E+01 -.720E+01
 -----------------------------------------------------------------------------------------------
   -.883E+00 -.380E+01 -.770E+01   0.995E-13 0.114E-12 -.227E-12   0.882E+00 0.380E+01 0.769E+01


 POSITION                                       TOTAL-FORCE (eV/Angst)
 -----------------------------------------------------------------------------------
      8.11730      9.99586     10.25637        -0.063480      0.011214      0.028721
      9.43087     11.75927      9.23568        -0.021201      0.067885     -0.004161
     11.76087     11.09016      9.29627         0.053891      0.045739     -0.000710
     11.88481      8.91481     10.36010         0.058825     -0.024879      0.032650
      9.63288      8.23466     10.94792        -0.013290     -0.046164      0.051054
     10.05678      9.52916      9.06642        -0.014745     -0.053795     -0.107553
 -----------------------------------------------------------------------------------
    total drift:                               -0.000310     -0.000169     -0.002328


--------------------------------------------------------------------------------------------------------



  FREE ENERGIE OF THE ION-ELECTRON SYSTEM (eV)
  ---------------------------------------------------
  free  energy   TOTEN  =       -13.48503353 eV

  energy  without entropy=      -13.48503353  energy(sigma->0) =      -13.48503353



--------------------------------------------------------------------------------------------------------


    POTLOK:  cpu time      0.2773: real time      0.2774


--------------------------------------------------------------------------------------------------------


     LOOP+:  cpu time     24.2167: real time     24.2932
    4ORBIT:  cpu time      0.0000: real time      0.0000

 total amount of memory used by VASP MPI-rank0   101856. kBytes
=======================================================================

   base      :      30000. kBytes
   nonlr-proj:       2249. kBytes
   fftplans  :      28354. kBytes
   grid      :      38630. kBytes
   one-center:         31. kBytes
   wavefun   :       2592. kBytes

  
  
 General timing and accounting informations for this job:
 ========================================================
  
                  Total CPU time used (sec):       44.149
                            User time (sec):       43.128
                          System time (sec):        1.021
                         Elapsed time (sec):       47.301
  
                   Maximum memory used (kb):      208428.
                   Average memory used (kb):          N/A
  
                          Minor page faults:        26304
                          Major page faults:            0
                 Voluntary context switches:         9947
