 vasp.6.3.0 20Jan22 (build Apr  1 2022 16:44:48) complex                         
 executed on        HPECrayEX_GCC date 2023.02.08  15:15:14
 running 3072 mpi-ranks, with    1 threads/rank
 distrk:  each k-point on 1536 cores,    2 groups
 distr:  one band on NCORE=   4 cores,  384 groups


--------------------------------------------------------------------------------------------------------


 INCAR:
   SYSTEM = MgO-rocksalt
   ISMEAR = 0
   SIGMA = 0.05
   EDIFF = 1E-5
   ALGO = ALL
   ISTART = 0
   IBRION = -1
   NSW = 0
   ISYM = 2
   DIPOL = 0.5 0.5 0.5
   IDIPOL = 3
   LDIPOL = .TRUE.
   LHFCALC = .TRUE.
   GGA = B5
   AEXX = 0.2
   AGGAX = 0.72
   AGGAC = 0.81
   ALDAC = 0.19
   IVDW = 1
   VDW_S6 = 1.05
   VDW_C6 = 24.67 0.63 0.70
   VDW_R0 = 1.639 1.243 1.342
   ENCUT = 520
   PREC = Accurate
   LASPH = .TRUE.
   LREAL = Auto
   ISPIN = 1
   NELM = 200
   NELMIN = 8
   NCORE = 4
   KPAR = 2
   LWAVE = .FALSE.
   LCHARG = .FALSE.

 POTCAR:    PAW_PBE Ag 02Apr2005                  
 POTCAR:    PAW_PBE Mg_pv 13Apr2007               
 POTCAR:    PAW_PBE O 08Apr2002                   
 -----------------------------------------------------------------------------
|                                                                             |
|           W    W    AA    RRRRR   N    N  II  N    N   GGGG   !!!           |
|           W    W   A  A   R    R  NN   N  II  NN   N  G    G  !!!           |
|           W    W  A    A  R    R  N N  N  II  N N  N  G       !!!           |
|           W WW W  AAAAAA  RRRRR   N  N N  II  N  N N  G  GGG   !            |
|           WW  WW  A    A  R   R   N   NN  II  N   NN  G    G                |
|           W    W  A    A  R    R  N    N  II  N    N   GGGG   !!!           |
|                                                                             |
|     You have selected ISYM=2 for a HF type calculation. This will           |
|     symmetrize the charge density but not the exchange potential. I         |
|     suggest to use ISYM=3 instead. This uses symmetry to obtain the         |
|     orbitals at all k-points in the Brillouin zone, but does not apply      |
|     symmetry to the Hartree potential directly. The resultant charge        |
|     might have lower symmetry than the crystal but, at least, Hartree       |
|     and exchange are fully compatible.                                      |
|                                                                             |
 -----------------------------------------------------------------------------

 POTCAR:    PAW_PBE Ag 02Apr2005                  
   SHA256 =  6550cfa3543261e132c169e1b98a529204624d72be14e2da2e0242bcb74a174d Ag/POTCAR             
   COPYR  = (c) Copyright 02Apr2005 Georg Kresse                                                    
   COPYR  = This file is part of the software VASP. Any use, copying, and all other rights are regul
   COPYR  = If you do not have a valid VASP license, you may not use, copy or distribute this file. 
   VRHFIN =Ag : s1 d10                                                                              
   LEXCH  = PE                                                                                      
   EATOM  =  1037.2675 eV,   76.2370 Ry                                                             
                                                                                                    
   TITEL  = PAW_PBE Ag 02Apr2005                                                                    
   LULTRA =        F    use ultrasoft PP ?                                                          
   IUNSCR =        1    unscreen: 0-lin 1-nonlin 2-no                                               
   RPACOR =    2.000    partial core radius                                                         
   POMASS =  107.868; ZVAL   =   11.000    mass and valenz                                          
   RCORE  =    2.500    outmost cutoff radius                                                       
   RWIGS  =    2.840; RWIGS  =    1.503    wigner-seitz radius (au A)                               
   ENMAX  =  249.844; ENMIN  =  187.383 eV                                                          
   ICORE  =        3    local potential                                                             
   LCOR   =        T    correct aug charges                                                         
   LPAW   =        T    paw PP                                                                      
   EAUG   =  412.496                                                                                
   DEXC   =    0.000                                                                                
   RMAX   =    2.560    core radius for proj-oper                                                   
   RAUG   =    1.300    factor for augmentation sphere                                              
   RDEP   =    2.576    radius for radial grids                                                     
   RDEPT  =    2.072    core radius for aug-charge                                                  
                                                                                                    
   Atomic configuration                                                                             
   12 entries                                                                                       
     n  l   j            E        occ.                                                              
     1  0  0.50    -25324.9161   2.0000                                                             
     2  0  0.50     -3728.5341   2.0000                                                             
     2  1  1.50     -3344.0404   6.0000                                                             
     3  0  0.50      -683.5581   2.0000                                                             
     3  1  1.50      -557.3225   6.0000                                                             
     3  2  2.50      -358.3853  10.0000                                                             
     4  0  0.50       -95.0341   2.0000                                                             
     4  1  1.50       -58.5511   6.0000                                                             
     4  2  2.50        -7.4440  10.0000                                                             
     5  0  0.50        -4.4045   1.0000                                                             
     5  1  0.50        -1.3606   0.0000                                                             
     4  3  2.50        -1.3606   0.0000                                                             
   Description                                                                                      
     l       E           TYP  RCUT    TYP  RCUT                                                     
     2     -7.4439781     23  2.400                                                                 
     2     -8.8045607     23  2.400                                                                 
     0     -4.4044681     23  2.400                                                                 
     0      1.9520038     23  2.400                                                                 
     1     -1.3605826     23  2.500                                                                 
     1     27.2116520     23  2.500                                                                 
     3     -4.0817478     23  2.400                                                                 
  local pseudopotential read in
  partial core-charges read in
  partial kinetic energy density read in
  atomic valenz-charges read in
  non local Contribution for L=           2  read in
    real space projection operators read in
  non local Contribution for L=           2  read in
    real space projection operators read in
  non local Contribution for L=           0  read in
    real space projection operators read in
  non local Contribution for L=           0  read in
    real space projection operators read in
  non local Contribution for L=           1  read in
    real space projection operators read in
  non local Contribution for L=           1  read in
    real space projection operators read in
    PAW grid and wavefunctions read in

   number of l-projection  operators is LMAX  =           6
   number of lm-projection operators is LMMAX =          18

 POTCAR:    PAW_PBE Mg_pv 13Apr2007               
   SHA256 =  f474ac0dd33840b9ae76c01d57fea79fdf77cdfbb07d5ade72c65f83c709b62b Mg_pv/POTCAR          
   COPYR  = (c) Copyright 13Apr2007 Georg Kresse                                                    
   COPYR  = This file is part of the software VASP. Any use, copying, and all other rights are regul
   COPYR  = If you do not have a valid VASP license, you may not use, copy or distribute this file. 
   VRHFIN =Mg: p6s2                                                                                 
   LEXCH  = PE                                                                                      
   EATOM  =  1056.7344 eV,   77.6678 Ry                                                             
                                                                                                    
   TITEL  = PAW_PBE Mg_pv 13Apr2007                                                                 
   LULTRA =        F    use ultrasoft PP ?                                                          
   IUNSCR =        1    unscreen: 0-lin 1-nonlin 2-no                                               
   RPACOR =    1.500    partial core radius                                                         
   POMASS =   24.305; ZVAL   =    8.000    mass and valenz                                          
   RCORE  =    2.000    outmost cutoff radius                                                       
   RWIGS  =    2.000; RWIGS  =    1.058    wigner-seitz radius (au A)                               
   ENMAX  =  403.929; ENMIN  =  302.947 eV                                                          
   RCLOC  =    1.506    cutoff for local pot                                                        
   LCOR   =        T    correct aug charges                                                         
   LPAW   =        T    paw PP                                                                      
   EAUG   =  758.780                                                                                
   DEXC   =    0.000                                                                                
   RMAX   =    2.045    core radius for proj-oper                                                   
   RAUG   =    1.300    factor for augmentation sphere                                              
   RDEP   =    2.025    radius for radial grids                                                     
   RDEPT  =    1.557    core radius for aug-charge                                                  
                                                                                                    
   Atomic configuration                                                                             
    5 entries                                                                                       
     n  l   j            E        occ.                                                              
     1  0  0.50     -1259.6230   2.0000                                                             
     2  0  0.50       -79.8442   2.0000                                                             
     2  1  1.50       -46.6121   6.0000                                                             
     3  0  0.50        -4.7055   2.0000                                                             
     3  2  1.50        -1.3606   0.0000                                                             
   Description                                                                                      
     l       E           TYP  RCUT    TYP  RCUT                                                     
     1    -46.6121073     23  1.600                                                                 
     1      2.7211652     23  1.600                                                                 
     0     -4.7054661     23  2.000                                                                 
     0     61.2262170     23  2.000                                                                 
     2     -1.3605826     23  2.000                                                                 
  local pseudopotential read in
  partial core-charges read in
  partial kinetic energy density read in
  atomic valenz-charges read in
  non local Contribution for L=           1  read in
    real space projection operators read in
  non local Contribution for L=           1  read in
    real space projection operators read in
  non local Contribution for L=           0  read in
    real space projection operators read in
  non local Contribution for L=           0  read in
    real space projection operators read in
  non local Contribution for L=           2  read in
    real space projection operators read in
    PAW grid and wavefunctions read in

   number of l-projection  operators is LMAX  =           5
   number of lm-projection operators is LMMAX =          13

 POTCAR:    PAW_PBE O 08Apr2002                   
   SHA256 =  818f92134a0a090dccd8ba1447fa70422a3b330e708bb4f08108d8ae51209ddf O/POTCAR              
   COPYR  = (c) Copyright 08Apr2002 Georg Kresse                                                    
   COPYR  = This file is part of the software VASP. Any use, copying, and all other rights are regul
   COPYR  = If you do not have a valid VASP license, you may not use, copy or distribute this file. 
   VRHFIN =O: s2p4                                                                                  
   LEXCH  = PE                                                                                      
   EATOM  =   432.3788 eV,   31.7789 Ry                                                             
                                                                                                    
   TITEL  = PAW_PBE O 08Apr2002                                                                     
   LULTRA =        F    use ultrasoft PP ?                                                          
   IUNSCR =        1    unscreen: 0-lin 1-nonlin 2-no                                               
   RPACOR =    1.200    partial core radius                                                         
   POMASS =   16.000; ZVAL   =    6.000    mass and valenz                                          
   RCORE  =    1.520    outmost cutoff radius                                                       
   RWIGS  =    1.550; RWIGS  =    0.820    wigner-seitz radius (au A)                               
   ENMAX  =  400.000; ENMIN  =  300.000 eV                                                          
   ICORE  =        2    local potential                                                             
   LCOR   =        T    correct aug charges                                                         
   LPAW   =        T    paw PP                                                                      
   EAUG   =  605.392                                                                                
   DEXC   =    0.000                                                                                
   RMAX   =    1.553    core radius for proj-oper                                                   
   RAUG   =    1.300    factor for augmentation sphere                                              
   RDEP   =    1.550    radius for radial grids                                                     
   RDEPT  =    1.329    core radius for aug-charge                                                  
                                                                                                    
   Atomic configuration                                                                             
    4 entries                                                                                       
     n  l   j            E        occ.                                                              
     1  0  0.50      -514.6923   2.0000                                                             
     2  0  0.50       -23.9615   2.0000                                                             
     2  1  0.50        -9.0305   4.0000                                                             
     3  2  1.50        -9.5241   0.0000                                                             
   Description                                                                                      
     l       E           TYP  RCUT    TYP  RCUT                                                     
     0    -23.9615318     23  1.200                                                                 
     0     -9.5240782     23  1.200                                                                 
     1     -9.0304911     23  1.520                                                                 
     1      8.1634956     23  1.520                                                                 
     2     -9.5240782      7  1.500                                                                 
  local pseudopotential read in
  partial core-charges read in
  partial kinetic energy density read in
  kinetic energy density of atom read in
  atomic valenz-charges read in
  non local Contribution for L=           0  read in
    real space projection operators read in
  non local Contribution for L=           0  read in
    real space projection operators read in
  non local Contribution for L=           1  read in
    real space projection operators read in
  non local Contribution for L=           1  read in
    real space projection operators read in
    PAW grid and wavefunctions read in

   number of l-projection  operators is LMAX  =           4
   number of lm-projection operators is LMMAX =           8

 Optimization of the real space projectors (new method)

 maximal supplied QI-value         = 15.12
 optimisation between [QCUT,QGAM] = [ 11.64, 23.28] = [ 37.95,151.78] Ry 
 Optimized for a Real-space Cutoff    1.45 Angstroem

   l    n(q)    QCUT    max X(q) W(low)/X(q) W(high)/X(q)  e(spline) 
   2      9    11.641    53.897    0.22E-03    0.42E-04    0.28E-06
   2      9    11.641    52.416    0.23E-03    0.44E-04    0.29E-06
   0     10    11.641   122.045    0.51E-04    0.25E-04    0.16E-06
   0     10    11.641    73.629    0.49E-04    0.24E-04    0.16E-06
   1     10    11.641    15.255    0.99E-04    0.55E-04    0.11E-06
   1     10    11.641     9.562    0.81E-04    0.47E-04    0.95E-07
 Optimization of the real space projectors (new method)

 maximal supplied QI-value         = 18.90
 optimisation between [QCUT,QGAM] = [ 11.53, 23.24] = [ 37.21,151.29] Ry 
 Optimized for a Real-space Cutoff    1.28 Angstroem

   l    n(q)    QCUT    max X(q) W(low)/X(q) W(high)/X(q)  e(spline) 
   1      8    11.527     2.974    0.44E-04    0.56E-04    0.12E-06
   1      8    11.527     4.279    0.12E-03    0.12E-03    0.26E-06
   0      9    11.527    16.381    0.46E-04    0.64E-04    0.78E-07
   0      9    11.527     5.611    0.26E-04    0.43E-04    0.55E-07
   2      8    11.527     4.652    0.22E-03    0.72E-04    0.47E-07
 Optimization of the real space projectors (new method)

 maximal supplied QI-value         = 24.76
 optimisation between [QCUT,QGAM] = [ 11.64, 23.27] = [ 37.91,151.63] Ry 
 Optimized for a Real-space Cutoff    1.14 Angstroem

   l    n(q)    QCUT    max X(q) W(low)/X(q) W(high)/X(q)  e(spline) 
   0      8    11.635    20.381    0.10E-03    0.33E-03    0.24E-06
   0      8    11.635    15.268    0.11E-03    0.35E-03    0.26E-06
   1      7    11.635     5.964    0.24E-03    0.31E-03    0.30E-06
   1      7    11.635     5.382    0.22E-03    0.25E-03    0.26E-06
 -----------------------------------------------------------------------------
|                                                                             |
|               ----> ADVICE to this user running VASP <----                  |
|                                                                             |
|     You enforced a specific xc type in the INCAR file but a different       |
|     type was found in the POTCAR file.                                      |
|     I HOPE YOU KNOW WHAT YOU ARE DOING!                                     |
|                                                                             |
 -----------------------------------------------------------------------------

  PAW_PBE Ag 02Apr2005                  :
 energy of atom  1       EATOM=-1037.2675
 kinetic energy error for atom=    0.0047 (will be added to EATOM!!)
  PAW_PBE Mg_pv 13Apr2007               :
 energy of atom  2       EATOM=-1056.7344
 kinetic energy error for atom=    0.0340 (will be added to EATOM!!)
  PAW_PBE O 08Apr2002                   :
 energy of atom  3       EATOM= -432.3788
 kinetic energy error for atom=    0.0208 (will be added to EATOM!!)


 POSCAR: Ag Mg  O
  positions in direct lattice
  velocities in cartesian coordinates
 exchange correlation table for  LEXCH =       12
   RHO(1)=    0.500       N(1)  =     2000
   RHO(2)=  100.500       N(2)  =     4000



--------------------------------------------------------------------------------------------------------


 ion  position               nearest neighbor table
   1  0.286  0.505  0.630-   2 2.73   3 2.73
   2  0.398  0.441  0.622-   3 2.68   4 2.73   1 2.73 153 2.78  55 2.91
   3  0.398  0.568  0.615- 157 2.59   2 2.68   1 2.73   4 2.73  55 2.88
   4  0.510  0.505  0.629-   2 2.73   3 2.73
   5  0.000  0.000  0.407- 107 2.11 108 2.11 123 2.11 188 2.11 105 2.11
   6  0.100  0.100  0.407- 107 2.11 108 2.11 112 2.11 127 2.11 106 2.11
   7  0.000  0.100  0.503- 105 2.11 106 2.11 109 2.11 186 2.11 107 2.11
   8  0.100  0.000  0.503- 105 2.11 106 2.11 122 2.11 125 2.11 108 2.11
   9  0.000  0.200  0.407- 111 2.11 107 2.11 112 2.11 192 2.11 109 2.11
  10  0.100  0.300  0.407- 112 2.11 111 2.11 116 2.11 131 2.11 110 2.11
  11  0.000  0.300  0.503- 109 2.11 110 2.11 113 2.11 190 2.11 111 2.11
  12  0.100  0.200  0.503- 110 2.11 109 2.11 106 2.11 129 2.11 112 2.11
  13  0.000  0.400  0.407- 111 2.11 115 2.11 116 2.11 196 2.11 113 2.11
  14  0.100  0.500  0.407- 115 2.11 116 2.11 120 2.11 135 2.11 114 2.11
  15  0.000  0.500  0.503- 113 2.11 114 2.11 117 2.11 194 2.11 115 2.11
  16  0.100  0.400  0.503- 110 2.11 113 2.11 114 2.11 133 2.11 116 2.11
  17  0.000  0.600  0.407- 115 2.11 119 2.11 120 2.11 200 2.11 117 2.11
  18  0.100  0.700  0.407- 124 2.11 120 2.11 119 2.11 139 2.11 118 2.11
  19  0.000  0.700  0.503- 121 2.11 118 2.11 117 2.11 198 2.11 119 2.11
  20  0.100  0.600  0.503- 114 2.11 117 2.11 118 2.11 137 2.11 120 2.11
  21  0.000  0.800  0.407- 119 2.11 123 2.11 124 2.11 204 2.11 121 2.11
  22  0.100  0.900  0.407- 108 2.11 123 2.11 124 2.11 143 2.11 122 2.11
  23  0.000  0.900  0.503- 105 2.11 121 2.11 122 2.11 202 2.11 123 2.11
  24  0.100  0.800  0.503- 118 2.11 121 2.11 122 2.11 141 2.11 124 2.11
  25  0.200  0.000  0.407- 128 2.11 127 2.11 108 2.11 143 2.11 125 2.11
  26  0.300  0.100  0.407- 127 2.11 128 2.11 132 2.11 147 2.11 126 2.11
  27  0.200  0.100  0.503- 126 2.11 125 2.11 106 2.11 129 2.11 127 2.11
  28  0.300  0.000  0.503- 125 2.11 126 2.11 142 2.11 145 2.11 128 2.11
  29  0.200  0.200  0.407- 131 2.11 132 2.11 112 2.11 127 2.11 129 2.11
  30  0.300  0.300  0.407- 131 2.11 132 2.11 136 2.11 151 2.11 130 2.11
  31  0.200  0.300  0.503- 129 2.11 130 2.11 110 2.11 133 2.11 131 2.11
  32  0.300  0.200  0.503- 129 2.11 130 2.11 126 2.11 149 2.11 132 2.11
  33  0.200  0.400  0.407- 136 2.11 131 2.11 135 2.11 116 2.11 133 2.11
  34  0.300  0.500  0.407- 135 2.11 136 2.11 140 2.11 155 2.11 134 2.11
  35  0.200  0.500  0.503- 134 2.11 133 2.11 114 2.11 137 2.11 135 2.11
  36  0.300  0.400  0.503- 133 2.11 130 2.11 134 2.11 153 2.11 136 2.11
  37  0.200  0.600  0.407- 140 2.11 135 2.11 139 2.11 120 2.11 137 2.11
  38  0.300  0.700  0.407- 139 2.11 144 2.11 140 2.11 159 2.11 138 2.11
  39  0.200  0.700  0.503- 138 2.11 141 2.11 118 2.11 137 2.11 139 2.11
  40  0.300  0.600  0.503- 137 2.11 134 2.11 138 2.11 157 2.11 140 2.11
  41  0.200  0.800  0.407- 139 2.11 144 2.11 143 2.11 124 2.11 141 2.11
  42  0.300  0.900  0.407- 143 2.11 128 2.11 144 2.11 163 2.11 142 2.11
  43  0.200  0.900  0.503- 142 2.11 125 2.11 141 2.11 122 2.11 143 2.11
  44  0.300  0.800  0.503- 138 2.11 141 2.11 142 2.11 161 2.11 144 2.11
  45  0.400  0.000  0.407- 128 2.11 147 2.11 148 2.11 163 2.11 145 2.11
  46  0.500  0.100  0.407- 147 2.11 148 2.11 152 2.11 167 2.11 146 2.11
  47  0.400  0.100  0.503- 126 2.11 145 2.11 146 2.11 149 2.11 147 2.11
  48  0.500  0.000  0.503- 145 2.11 146 2.11 162 2.11 165 2.11 148 2.11
  49  0.400  0.200  0.407- 151 2.11 147 2.11 132 2.11 152 2.11 149 2.11
  50  0.500  0.300  0.407- 152 2.11 151 2.11 156 2.11 171 2.11 150 2.11
  51  0.400  0.300  0.503- 149 2.11 130 2.11 150 2.11 153 2.11 151 2.11
  52  0.500  0.200  0.503- 150 2.11 149 2.11 146 2.11 169 2.11 152 2.11
  53  0.400  0.400  0.407- 136 2.11 151 2.11 155 2.11 156 2.11 153 2.11
  54  0.500  0.500  0.407- 155 2.11 156 2.11 160 2.11 175 2.11 154 2.11
  55  0.400  0.500  0.503- 134 2.11 153 2.11 154 2.11 157 2.11 155 2.11   3 2.88   2 2.91
  56  0.500  0.400  0.503- 150 2.11 153 2.11 154 2.11 173 2.11 156 2.11
  57  0.400  0.600  0.407- 140 2.11 155 2.11 159 2.11 160 2.11 157 2.11
  58  0.500  0.700  0.407- 164 2.11 160 2.11 159 2.11 179 2.11 158 2.11
  59  0.400  0.700  0.503- 161 2.11 157 2.11 158 2.11 138 2.11 159 2.11
  60  0.500  0.600  0.503- 154 2.11 157 2.11 158 2.11 177 2.11 160 2.11
  61  0.400  0.800  0.407- 159 2.11 144 2.11 163 2.11 164 2.11 161 2.11
  62  0.500  0.900  0.407- 148 2.11 163 2.11 164 2.11 183 2.11 162 2.11
  63  0.400  0.900  0.503- 142 2.11 145 2.11 161 2.11 162 2.11 163 2.11
  64  0.500  0.800  0.503- 158 2.11 161 2.11 162 2.11 181 2.11 164 2.11
  65  0.600  0.000  0.407- 148 2.11 167 2.11 168 2.11 183 2.11 165 2.11
  66  0.700  0.100  0.407- 187 2.11 168 2.11 172 2.11 167 2.11 166 2.11
  67  0.600  0.100  0.503- 146 2.11 165 2.11 166 2.11 169 2.11 167 2.11
  68  0.700  0.000  0.503- 185 2.11 166 2.11 182 2.11 165 2.11 168 2.11
  69  0.600  0.200  0.407- 171 2.11 167 2.11 152 2.11 172 2.11 169 2.11
  70  0.700  0.300  0.407- 172 2.11 191 2.11 176 2.11 171 2.11 170 2.11
  71  0.600  0.300  0.503- 169 2.11 150 2.11 170 2.11 173 2.11 171 2.11
  72  0.700  0.200  0.503- 170 2.11 189 2.11 166 2.11 169 2.11 172 2.11
  73  0.600  0.400  0.407- 156 2.11 171 2.11 175 2.11 176 2.11 173 2.11
  74  0.700  0.500  0.407- 195 2.11 176 2.11 180 2.11 175 2.11 174 2.11
  75  0.600  0.500  0.503- 154 2.11 173 2.11 174 2.11 177 2.11 175 2.11
  76  0.700  0.400  0.503- 193 2.11 173 2.11 174 2.11 170 2.11 176 2.11
  77  0.600  0.600  0.407- 160 2.11 175 2.11 179 2.11 180 2.11 177 2.11
  78  0.700  0.700  0.407- 184 2.11 199 2.11 179 2.11 180 2.11 178 2.11
  79  0.600  0.700  0.503- 181 2.11 177 2.11 178 2.11 158 2.11 179 2.11
  80  0.700  0.600  0.503- 197 2.11 177 2.11 178 2.11 174 2.11 180 2.11
  81  0.600  0.800  0.407- 179 2.11 164 2.11 183 2.11 184 2.11 181 2.11
  82  0.700  0.900  0.407- 203 2.11 183 2.11 184 2.11 168 2.11 182 2.11
  83  0.600  0.900  0.503- 162 2.11 165 2.11 181 2.11 182 2.11 183 2.11
  84  0.700  0.800  0.503- 178 2.11 201 2.11 182 2.11 181 2.11 184 2.11
  85  0.800  0.000  0.407- 168 2.11 187 2.11 188 2.11 203 2.11 185 2.11
  86  0.900  0.100  0.407- 107 2.11 187 2.11 188 2.11 192 2.11 186 2.11
  87  0.800  0.100  0.503- 166 2.11 185 2.11 186 2.11 189 2.11 187 2.11
  88  0.900  0.000  0.503- 105 2.11 185 2.11 186 2.11 202 2.11 188 2.11
  89  0.800  0.200  0.407- 172 2.11 191 2.11 187 2.11 192 2.11 189 2.11
  90  0.900  0.300  0.407- 192 2.11 191 2.11 111 2.11 196 2.11 190 2.11
  91  0.800  0.300  0.503- 170 2.11 189 2.11 190 2.11 193 2.11 191 2.11
  92  0.900  0.200  0.503- 190 2.11 186 2.11 189 2.11 109 2.11 192 2.11
  93  0.800  0.400  0.407- 176 2.11 191 2.11 195 2.11 196 2.11 193 2.11
  94  0.900  0.500  0.407- 115 2.11 195 2.11 196 2.11 200 2.11 194 2.11
  95  0.800  0.500  0.503- 174 2.11 193 2.11 194 2.11 197 2.11 195 2.11
  96  0.900  0.400  0.503- 113 2.11 190 2.11 193 2.11 194 2.11 196 2.11
  97  0.800  0.600  0.407- 180 2.11 195 2.11 199 2.11 200 2.11 197 2.11
  98  0.900  0.700  0.407- 204 2.11 199 2.11 200 2.11 119 2.11 198 2.11
  99  0.800  0.700  0.503- 178 2.11 201 2.11 198 2.11 197 2.11 199 2.11
 100  0.900  0.600  0.503- 117 2.11 194 2.11 197 2.11 198 2.11 200 2.11
 101  0.800  0.800  0.407- 184 2.11 199 2.11 203 2.11 204 2.11 201 2.11
 102  0.900  0.900  0.407- 123 2.11 188 2.11 203 2.11 204 2.11 202 2.11
 103  0.800  0.900  0.503- 182 2.11 185 2.11 201 2.11 202 2.11 203 2.11
 104  0.900  0.800  0.503- 198 2.11 121 2.11 201 2.11 202 2.11 204 2.11
 105  0.000  0.000  0.503-   7 2.11   8 2.11  23 2.11  88 2.11   5 2.11
 106  0.100  0.100  0.503-   7 2.11   8 2.11  12 2.11  27 2.11   6 2.11
 107  0.000  0.100  0.407-   5 2.11   6 2.11   9 2.11  86 2.11   7 2.11
 108  0.100  0.000  0.407-   5 2.11   6 2.11  22 2.11  25 2.11   8 2.11
 109  0.000  0.200  0.503-  11 2.11   7 2.11  12 2.11  92 2.11   9 2.11
 110  0.100  0.300  0.503-  12 2.11  11 2.11  16 2.11  31 2.11  10 2.11
 111  0.000  0.300  0.407-   9 2.11  10 2.11  13 2.11  90 2.11  11 2.11
 112  0.100  0.200  0.407-  10 2.11   9 2.11   6 2.11  29 2.11  12 2.11
 113  0.000  0.400  0.503-  11 2.11  15 2.11  16 2.11  96 2.11  13 2.11
 114  0.100  0.500  0.503-  15 2.11  16 2.11  20 2.11  35 2.11  14 2.11
 115  0.000  0.500  0.407-  13 2.11  14 2.11  17 2.11  94 2.11  15 2.11
 116  0.100  0.400  0.407-  10 2.11  13 2.11  14 2.11  33 2.11  16 2.11
 117  0.000  0.600  0.503-  15 2.11  19 2.11  20 2.11 100 2.11  17 2.11
 118  0.100  0.700  0.503-  24 2.11  20 2.11  19 2.11  39 2.11  18 2.11
 119  0.000  0.700  0.407-  21 2.11  18 2.11  17 2.11  98 2.11  19 2.11
 120  0.100  0.600  0.407-  14 2.11  17 2.11  18 2.11  37 2.11  20 2.11
 121  0.000  0.800  0.503-  19 2.11  23 2.11  24 2.11 104 2.11  21 2.11
 122  0.100  0.900  0.503-   8 2.11  23 2.11  24 2.11  43 2.11  22 2.11
 123  0.000  0.900  0.407-   5 2.11  21 2.11  22 2.11 102 2.11  23 2.11
 124  0.100  0.800  0.407-  18 2.11  21 2.11  22 2.11  41 2.11  24 2.11
 125  0.200  0.000  0.503-  28 2.11  27 2.11   8 2.11  43 2.11  25 2.11
 126  0.300  0.100  0.503-  27 2.11  28 2.11  32 2.11  47 2.11  26 2.11
 127  0.200  0.100  0.407-  26 2.11  25 2.11   6 2.11  29 2.11  27 2.11
 128  0.300  0.000  0.407-  25 2.11  26 2.11  42 2.11  45 2.11  28 2.11
 129  0.200  0.200  0.503-  31 2.11  32 2.11  12 2.11  27 2.11  29 2.11
 130  0.300  0.300  0.503-  31 2.11  32 2.11  36 2.11  51 2.11  30 2.11
 131  0.200  0.300  0.407-  29 2.11  30 2.11  10 2.11  33 2.11  31 2.11
 132  0.300  0.200  0.407-  29 2.11  30 2.11  26 2.11  49 2.11  32 2.11
 133  0.200  0.400  0.503-  36 2.11  31 2.11  35 2.11  16 2.11  33 2.11
 134  0.300  0.500  0.503-  35 2.11  36 2.11  40 2.11  55 2.11  34 2.11
 135  0.200  0.500  0.407-  34 2.11  33 2.11  14 2.11  37 2.11  35 2.11
 136  0.300  0.400  0.407-  33 2.11  30 2.11  34 2.11  53 2.11  36 2.11
 137  0.200  0.600  0.503-  40 2.11  35 2.11  39 2.11  20 2.11  37 2.11
 138  0.300  0.700  0.503-  39 2.11  44 2.11  40 2.11  59 2.11  38 2.11
 139  0.200  0.700  0.407-  38 2.11  41 2.11  18 2.11  37 2.11  39 2.11
 140  0.300  0.600  0.407-  37 2.11  34 2.11  38 2.11  57 2.11  40 2.11
 141  0.200  0.800  0.503-  39 2.11  44 2.11  43 2.11  24 2.11  41 2.11
 142  0.300  0.900  0.503-  43 2.11  28 2.11  44 2.11  63 2.11  42 2.11
 143  0.200  0.900  0.407-  42 2.11  25 2.11  41 2.11  22 2.11  43 2.11
 144  0.300  0.800  0.407-  38 2.11  41 2.11  42 2.11  61 2.11  44 2.11
 145  0.400  0.000  0.503-  28 2.11  47 2.11  48 2.11  63 2.11  45 2.11
 146  0.500  0.100  0.503-  47 2.11  48 2.11  52 2.11  67 2.11  46 2.11
 147  0.400  0.100  0.407-  26 2.11  45 2.11  46 2.11  49 2.11  47 2.11
 148  0.500  0.000  0.407-  45 2.11  46 2.11  62 2.11  65 2.11  48 2.11
 149  0.400  0.200  0.503-  51 2.11  47 2.11  32 2.11  52 2.11  49 2.11
 150  0.500  0.300  0.503-  52 2.11  51 2.11  56 2.11  71 2.11  50 2.11
 151  0.400  0.300  0.407-  49 2.11  30 2.11  50 2.11  53 2.11  51 2.11
 152  0.500  0.200  0.407-  50 2.11  49 2.11  46 2.11  69 2.11  52 2.11
 153  0.400  0.400  0.503-  36 2.11  51 2.11  55 2.11  56 2.11  53 2.11   2 2.78
 154  0.500  0.500  0.503-  55 2.11  56 2.11  60 2.11  75 2.11  54 2.11
 155  0.400  0.500  0.407-  34 2.11  53 2.11  54 2.11  57 2.11  55 2.11
 156  0.500  0.400  0.407-  50 2.11  53 2.11  54 2.11  73 2.11  56 2.11
 157  0.400  0.600  0.503-  40 2.11  55 2.11  59 2.11  60 2.11  57 2.11   3 2.59
 158  0.500  0.700  0.503-  64 2.11  60 2.11  59 2.11  79 2.11  58 2.11
 159  0.400  0.700  0.407-  61 2.11  57 2.11  58 2.11  38 2.11  59 2.11
 160  0.500  0.600  0.407-  54 2.11  57 2.11  58 2.11  77 2.11  60 2.11
 161  0.400  0.800  0.503-  59 2.11  44 2.11  63 2.11  64 2.11  61 2.11
 162  0.500  0.900  0.503-  48 2.11  63 2.11  64 2.11  83 2.11  62 2.11
 163  0.400  0.900  0.407-  42 2.11  45 2.11  61 2.11  62 2.11  63 2.11
 164  0.500  0.800  0.407-  58 2.11  61 2.11  62 2.11  81 2.11  64 2.11
 165  0.600  0.000  0.503-  48 2.11  67 2.11  68 2.11  83 2.11  65 2.11
 166  0.700  0.100  0.503-  87 2.11  68 2.11  72 2.11  67 2.11  66 2.11
 167  0.600  0.100  0.407-  46 2.11  65 2.11  66 2.11  69 2.11  67 2.11
 168  0.700  0.000  0.407-  85 2.11  66 2.11  82 2.11  65 2.11  68 2.11
 169  0.600  0.200  0.503-  71 2.11  67 2.11  52 2.11  72 2.11  69 2.11
 170  0.700  0.300  0.503-  72 2.11  91 2.11  76 2.11  71 2.11  70 2.11
 171  0.600  0.300  0.407-  69 2.11  50 2.11  70 2.11  73 2.11  71 2.11
 172  0.700  0.200  0.407-  70 2.11  89 2.11  66 2.11  69 2.11  72 2.11
 173  0.600  0.400  0.503-  56 2.11  71 2.11  75 2.11  76 2.11  73 2.11
 174  0.700  0.500  0.503-  95 2.11  76 2.11  80 2.11  75 2.11  74 2.11
 175  0.600  0.500  0.407-  54 2.11  73 2.11  74 2.11  77 2.11  75 2.11
 176  0.700  0.400  0.407-  93 2.11  73 2.11  74 2.11  70 2.11  76 2.11
 177  0.600  0.600  0.503-  60 2.11  75 2.11  79 2.11  80 2.11  77 2.11
 178  0.700  0.700  0.503-  84 2.11  99 2.11  79 2.11  80 2.11  78 2.11
 179  0.600  0.700  0.407-  81 2.11  77 2.11  78 2.11  58 2.11  79 2.11
 180  0.700  0.600  0.407-  97 2.11  77 2.11  78 2.11  74 2.11  80 2.11
 181  0.600  0.800  0.503-  79 2.11  64 2.11  83 2.11  84 2.11  81 2.11
 182  0.700  0.900  0.503- 103 2.11  83 2.11  84 2.11  68 2.11  82 2.11
 183  0.600  0.900  0.407-  62 2.11  65 2.11  81 2.11  82 2.11  83 2.11
 184  0.700  0.800  0.407-  78 2.11 101 2.11  82 2.11  81 2.11  84 2.11
 185  0.800  0.000  0.503-  68 2.11  87 2.11  88 2.11 103 2.11  85 2.11
 186  0.900  0.100  0.503-   7 2.11  87 2.11  88 2.11  92 2.11  86 2.11
 187  0.800  0.100  0.407-  66 2.11  85 2.11  86 2.11  89 2.11  87 2.11
 188  0.900  0.000  0.407-   5 2.11  85 2.11  86 2.11 102 2.11  88 2.11
 189  0.800  0.200  0.503-  72 2.11  91 2.11  87 2.11  92 2.11  89 2.11
 190  0.900  0.300  0.503-  92 2.11  91 2.11  11 2.11  96 2.11  90 2.11
 191  0.800  0.300  0.407-  70 2.11  89 2.11  90 2.11  93 2.11  91 2.11
 192  0.900  0.200  0.407-  90 2.11  86 2.11  89 2.11   9 2.11  92 2.11
 193  0.800  0.400  0.503-  76 2.11  91 2.11  95 2.11  96 2.11  93 2.11
 194  0.900  0.500  0.503-  15 2.11  95 2.11  96 2.11 100 2.11  94 2.11
 195  0.800  0.500  0.407-  74 2.11  93 2.11  94 2.11  97 2.11  95 2.11
 196  0.900  0.400  0.407-  13 2.11  90 2.11  93 2.11  94 2.11  96 2.11
 197  0.800  0.600  0.503-  80 2.11  95 2.11  99 2.11 100 2.11  97 2.11
 198  0.900  0.700  0.503- 104 2.11  99 2.11 100 2.11  19 2.11  98 2.11
 199  0.800  0.700  0.407-  78 2.11 101 2.11  98 2.11  97 2.11  99 2.11
 200  0.900  0.600  0.407-  17 2.11  94 2.11  97 2.11  98 2.11 100 2.11
 201  0.800  0.800  0.503-  84 2.11  99 2.11 103 2.11 104 2.11 101 2.11
 202  0.900  0.900  0.503-  23 2.11  88 2.11 103 2.11 104 2.11 102 2.11
 203  0.800  0.900  0.407-  82 2.11  85 2.11 101 2.11 102 2.11 103 2.11
 204  0.900  0.800  0.407-  98 2.11  21 2.11 101 2.11 102 2.11 104 2.11

  LATTYP: Found a simple tetragonal cell.
 ALAT       =    21.1388521970
 C/A-ratio  =     1.0461251639
  
  Lattice vectors:
  
 A1 = (  21.1388521970,   0.0000000000,   0.0000000000)
 A2 = (   0.0000000000,  21.1388521970,   0.0000000000)
 A3 = (   0.0000000000,   0.0000000000,  22.1138852197)


Analysis of symmetry for initial positions (statically):
=====================================================================
 Subroutine PRICEL returns:
 Original cell was already a primitive cell.
 

 Routine SETGRP: Setting up the symmetry group for a 
 simple tetragonal supercell.


 Subroutine GETGRP returns: Found  1 space group operations
 (whereof  1 operations were pure point group operations)
 out of a pool of 16 trial point group operations.


The static configuration has the point symmetry C_1 .


Analysis of symmetry for dynamics (positions and initial velocities):
=====================================================================
 Subroutine PRICEL returns:
 Original cell was already a primitive cell.
 

 Routine SETGRP: Setting up the symmetry group for a 
 simple tetragonal supercell.


 Subroutine GETGRP returns: Found  1 space group operations
 (whereof  1 operations were pure point group operations)
 out of a pool of 16 trial point group operations.


The dynamic configuration has the point symmetry C_1 .


Analysis of constrained symmetry for selective dynamics:
=====================================================================
 Subroutine PRICEL returns:
 Original cell was already a primitive cell.
 

 Routine SETGRP: Setting up the symmetry group for a 
 simple tetragonal supercell.


 Subroutine GETGRP returns: Found  1 space group operations
 (whereof  1 operations were pure point group operations)
 out of a pool of 16 trial point group operations.


The constrained configuration has the point symmetry C_1 .


 Subroutine INISYM returns: Found  1 space group operations
 (whereof  1 operations are pure point group operations),
 and found     1 'primitive' translations


----------------------------------------------------------------------------------------

                                     Primitive cell                                     

  volume of cell :    9881.6133

  direct lattice vectors                    reciprocal lattice vectors
    21.138852197  0.000000000  0.000000000     0.047306258  0.000000000  0.000000000
     0.000000000 21.138852197  0.000000000     0.000000000  0.047306258  0.000000000
     0.000000000  0.000000000 22.113885220     0.000000000  0.000000000  0.045220457

  length of vectors
    21.138852197 21.138852197 22.113885220     0.047306258  0.047306258  0.045220457

  position of ions in fractional coordinates (direct lattice)
     0.285624611  0.505285429  0.629857969
     0.397515318  0.441309787  0.621723730
     0.397782759  0.567771369  0.615378518
     0.509772545  0.504527893  0.628685236
     0.000000000  0.000000000  0.406984115
     0.100000000  0.100000000  0.406984115
     0.000000000  0.100000000  0.502574971
     0.100000000  0.000000000  0.502574971
     0.000000000  0.200000000  0.406984115
     0.100000000  0.300000000  0.406984115
     0.000000000  0.300000000  0.502574971
     0.100000000  0.200000000  0.502574971
     0.000000000  0.400000000  0.406984115
     0.100000000  0.500000000  0.406984115
     0.000000000  0.500000000  0.502574971
     0.100000000  0.400000000  0.502574971
     0.000000000  0.600000000  0.406984115
     0.100000000  0.700000000  0.406984115
     0.000000000  0.700000000  0.502574971
     0.100000000  0.600000000  0.502574971
     0.000000000  0.800000000  0.406984115
     0.100000000  0.900000000  0.406984115
     0.000000000  0.900000000  0.502574971
     0.100000000  0.800000000  0.502574971
     0.200000000  0.000000000  0.406984115
     0.300000000  0.100000000  0.406984115
     0.200000000  0.100000000  0.502574971
     0.300000000  0.000000000  0.502574971
     0.200000000  0.200000000  0.406984115
     0.300000000  0.300000000  0.406984115
     0.200000000  0.300000000  0.502574971
     0.300000000  0.200000000  0.502574971
     0.200000000  0.400000000  0.406984115
     0.300000000  0.500000000  0.406984115
     0.200000000  0.500000000  0.502574971
     0.300000000  0.400000000  0.502574971
     0.200000000  0.600000000  0.406984115
     0.300000000  0.700000000  0.406984115
     0.200000000  0.700000000  0.502574971
     0.300000000  0.600000000  0.502574971
     0.200000000  0.800000000  0.406984115
     0.300000000  0.900000000  0.406984115
     0.200000000  0.900000000  0.502574971
     0.300000000  0.800000000  0.502574971
     0.400000000  0.000000000  0.406984115
     0.500000000  0.100000000  0.406984115
     0.400000000  0.100000000  0.502574971
     0.500000000  0.000000000  0.502574971
     0.400000000  0.200000000  0.406984115
     0.500000000  0.300000000  0.406984115
     0.400000000  0.300000000  0.502574971
     0.500000000  0.200000000  0.502574971
     0.400000000  0.400000000  0.406984115
     0.500000000  0.500000000  0.406984115
     0.400000000  0.500000000  0.502574971
     0.500000000  0.400000000  0.502574971
     0.400000000  0.600000000  0.406984115
     0.500000000  0.700000000  0.406984115
     0.400000000  0.700000000  0.502574971
     0.500000000  0.600000000  0.502574971
     0.400000000  0.800000000  0.406984115
     0.500000000  0.900000000  0.406984115
     0.400000000  0.900000000  0.502574971
     0.500000000  0.800000000  0.502574971
     0.600000000  0.000000000  0.406984115
     0.700000000  0.100000000  0.406984115
     0.600000000  0.100000000  0.502574971
     0.700000000  0.000000000  0.502574971
     0.600000000  0.200000000  0.406984115
     0.700000000  0.300000000  0.406984115
     0.600000000  0.300000000  0.502574971
     0.700000000  0.200000000  0.502574971
     0.600000000  0.400000000  0.406984115
     0.700000000  0.500000000  0.406984115
     0.600000000  0.500000000  0.502574971
     0.700000000  0.400000000  0.502574971
     0.600000000  0.600000000  0.406984115
     0.700000000  0.700000000  0.406984115
     0.600000000  0.700000000  0.502574971
     0.700000000  0.600000000  0.502574971
     0.600000000  0.800000000  0.406984115
     0.700000000  0.900000000  0.406984115
     0.600000000  0.900000000  0.502574971
     0.700000000  0.800000000  0.502574971
     0.800000000  0.000000000  0.406984115
     0.900000000  0.100000000  0.406984115
     0.800000000  0.100000000  0.502574971
     0.900000000  0.000000000  0.502574971
     0.800000000  0.200000000  0.406984115
     0.900000000  0.300000000  0.406984115
     0.800000000  0.300000000  0.502574971
     0.900000000  0.200000000  0.502574971
     0.800000000  0.400000000  0.406984115
     0.900000000  0.500000000  0.406984115
     0.800000000  0.500000000  0.502574971
     0.900000000  0.400000000  0.502574971
     0.800000000  0.600000000  0.406984115
     0.900000000  0.700000000  0.406984115
     0.800000000  0.700000000  0.502574971
     0.900000000  0.600000000  0.502574971
     0.800000000  0.800000000  0.406984115
     0.900000000  0.900000000  0.406984115
     0.800000000  0.900000000  0.502574971
     0.900000000  0.800000000  0.502574971
     0.000000000  0.000000000  0.502574971
     0.100000000  0.100000000  0.502574971
     0.000000000  0.100000000  0.406984115
     0.100000000  0.000000000  0.406984115
     0.000000000  0.200000000  0.502574971
     0.100000000  0.300000000  0.502574971
     0.000000000  0.300000000  0.406984115
     0.100000000  0.200000000  0.406984115
     0.000000000  0.400000000  0.502574971
     0.100000000  0.500000000  0.502574971
     0.000000000  0.500000000  0.406984115
     0.100000000  0.400000000  0.406984115
     0.000000000  0.600000000  0.502574971
     0.100000000  0.700000000  0.502574971
     0.000000000  0.700000000  0.406984115
     0.100000000  0.600000000  0.406984115
     0.000000000  0.800000000  0.502574971
     0.100000000  0.900000000  0.502574971
     0.000000000  0.900000000  0.406984115
     0.100000000  0.800000000  0.406984115
     0.200000000  0.000000000  0.502574971
     0.300000000  0.100000000  0.502574971
     0.200000000  0.100000000  0.406984115
     0.300000000  0.000000000  0.406984115
     0.200000000  0.200000000  0.502574971
     0.300000000  0.300000000  0.502574971
     0.200000000  0.300000000  0.406984115
     0.300000000  0.200000000  0.406984115
     0.200000000  0.400000000  0.502574971
     0.300000000  0.500000000  0.502574971
     0.200000000  0.500000000  0.406984115
     0.300000000  0.400000000  0.406984115
     0.200000000  0.600000000  0.502574971
     0.300000000  0.700000000  0.502574971
     0.200000000  0.700000000  0.406984115
     0.300000000  0.600000000  0.406984115
     0.200000000  0.800000000  0.502574971
     0.300000000  0.900000000  0.502574971
     0.200000000  0.900000000  0.406984115
     0.300000000  0.800000000  0.406984115
     0.400000000  0.000000000  0.502574971
     0.500000000  0.100000000  0.502574971
     0.400000000  0.100000000  0.406984115
     0.500000000  0.000000000  0.406984115
     0.400000000  0.200000000  0.502574971
     0.500000000  0.300000000  0.502574971
     0.400000000  0.300000000  0.406984115
     0.500000000  0.200000000  0.406984115
     0.400000000  0.400000000  0.502574971
     0.500000000  0.500000000  0.502574971
     0.400000000  0.500000000  0.406984115
     0.500000000  0.400000000  0.406984115
     0.400000000  0.600000000  0.502574971
     0.500000000  0.700000000  0.502574971
     0.400000000  0.700000000  0.406984115
     0.500000000  0.600000000  0.406984115
     0.400000000  0.800000000  0.502574971
     0.500000000  0.900000000  0.502574971
     0.400000000  0.900000000  0.406984115
     0.500000000  0.800000000  0.406984115
     0.600000000  0.000000000  0.502574971
     0.700000000  0.100000000  0.502574971
     0.600000000  0.100000000  0.406984115
     0.700000000  0.000000000  0.406984115
     0.600000000  0.200000000  0.502574971
     0.700000000  0.300000000  0.502574971
     0.600000000  0.300000000  0.406984115
     0.700000000  0.200000000  0.406984115
     0.600000000  0.400000000  0.502574971
     0.700000000  0.500000000  0.502574971
     0.600000000  0.500000000  0.406984115
     0.700000000  0.400000000  0.406984115
     0.600000000  0.600000000  0.502574971
     0.700000000  0.700000000  0.502574971
     0.600000000  0.700000000  0.406984115
     0.700000000  0.600000000  0.406984115
     0.600000000  0.800000000  0.502574971
     0.700000000  0.900000000  0.502574971
     0.600000000  0.900000000  0.406984115
     0.700000000  0.800000000  0.406984115
     0.800000000  0.000000000  0.502574971
     0.900000000  0.100000000  0.502574971
     0.800000000  0.100000000  0.406984115
     0.900000000  0.000000000  0.406984115
     0.800000000  0.200000000  0.502574971
     0.900000000  0.300000000  0.502574971
     0.800000000  0.300000000  0.406984115
     0.900000000  0.200000000  0.406984115
     0.800000000  0.400000000  0.502574971
     0.900000000  0.500000000  0.502574971
     0.800000000  0.500000000  0.406984115
     0.900000000  0.400000000  0.406984115
     0.800000000  0.600000000  0.502574971
     0.900000000  0.700000000  0.502574971
     0.800000000  0.700000000  0.406984115
     0.900000000  0.600000000  0.406984115
     0.800000000  0.800000000  0.502574971
     0.900000000  0.900000000  0.502574971
     0.800000000  0.900000000  0.406984115
     0.900000000  0.800000000  0.406984115

  ion indices of the primitive-cell ions
   primitive index   ion index
                 1           1
                 2           2
                 3           3
                 4           4
                 5           5
                 6           6
                 7           7
                 8           8
                 9           9
                10          10
                11          11
                12          12
                13          13
                14          14
                15          15
                16          16
                17          17
                18          18
                19          19
                20          20
                21          21
                22          22
                23          23
                24          24
                25          25
                26          26
                27          27
                28          28
                29          29
                30          30
                31          31
                32          32
                33          33
                34          34
                35          35
                36          36
                37          37
                38          38
                39          39
                40          40
                41          41
                42          42
                43          43
                44          44
                45          45
                46          46
                47          47
                48          48
                49          49
                50          50
                51          51
                52          52
                53          53
                54          54
                55          55
                56          56
                57          57
                58          58
                59          59
                60          60
                61          61
                62          62
                63          63
                64          64
                65          65
                66          66
                67          67
                68          68
                69          69
                70          70
                71          71
                72          72
                73          73
                74          74
                75          75
                76          76
                77          77
                78          78
                79          79
                80          80
                81          81
                82          82
                83          83
                84          84
                85          85
                86          86
                87          87
                88          88
                89          89
                90          90
                91          91
                92          92
                93          93
                94          94
                95          95
                96          96
                97          97
                98          98
                99          99
               100         100
               101         101
               102         102
               103         103
               104         104
               105         105
               106         106
               107         107
               108         108
               109         109
               110         110
               111         111
               112         112
               113         113
               114         114
               115         115
               116         116
               117         117
               118         118
               119         119
               120         120
               121         121
               122         122
               123         123
               124         124
               125         125
               126         126
               127         127
               128         128
               129         129
               130         130
               131         131
               132         132
               133         133
               134         134
               135         135
               136         136
               137         137
               138         138
               139         139
               140         140
               141         141
               142         142
               143         143
               144         144
               145         145
               146         146
               147         147
               148         148
               149         149
               150         150
               151         151
               152         152
               153         153
               154         154
               155         155
               156         156
               157         157
               158         158
               159         159
               160         160
               161         161
               162         162
               163         163
               164         164
               165         165
               166         166
               167         167
               168         168
               169         169
               170         170
               171         171
               172         172
               173         173
               174         174
               175         175
               176         176
               177         177
               178         178
               179         179
               180         180
               181         181
               182         182
               183         183
               184         184
               185         185
               186         186
               187         187
               188         188
               189         189
               190         190
               191         191
               192         192
               193         193
               194         194
               195         195
               196         196
               197         197
               198         198
               199         199
               200         200
               201         201
               202         202
               203         203
               204         204

----------------------------------------------------------------------------------------



 KPOINTS: KPOINTS created by Atomic Simulation Env

Automatic generation of k-mesh.
 Grid dimensions read from file:
 generate k-points for:    1    1    1

 Generating k-lattice:

  Cartesian coordinates                     Fractional coordinates (reciprocal lattice)
     0.047306258  0.000000000  0.000000000     1.000000000  0.000000000  0.000000000
     0.000000000  0.047306258  0.000000000     0.000000000  1.000000000  0.000000000
     0.000000000  0.000000000  0.045220457     0.000000000  0.000000000  1.000000000

  Length of vectors
     0.047306258  0.047306258  0.045220457

  Shift w.r.t. Gamma in fractional coordinates (k-lattice)
     0.000000000  0.000000000  0.000000000

 
 Subroutine IBZKPT returns following result:
 ===========================================
 
 Found      1 irreducible k-points:
 
 Following reciprocal coordinates:
            Coordinates               Weight
  0.000000  0.000000  0.000000      1.000000
 
 Following cartesian coordinates:
            Coordinates               Weight
  0.000000  0.000000  0.000000      1.000000
 
 
 Subroutine IBZKPT_HF returns following result:
 ==============================================
 
 Found      1 k-points in 1st BZ
 the following      1 k-points will be used (e.g. in the exchange kernel)
 Following reciprocal coordinates:   # in IRBZ
  0.000000  0.000000  0.000000    1.00000000   1 t-inv F


--------------------------------------------------------------------------------------------------------




 Dimension of arrays:
   k-points           NKPTS =      1   k-points in BZ     NKDIM =      1   number of bands    NBANDS=   1152
   number of dos      NEDOS =    301   number of ions     NIONS =    204
   non local maximal  LDIM  =      6   non local SUM 2l+1 LMDIM =     18
   total plane-waves  NPLWV = ******
   max r-space proj   IRMAX =   5559   max aug-charges    IRDMAX=  21597
   dimension x,y,z NGX =   160 NGY =  160 NGZ =  168
   dimension x,y,z NGXF=   320 NGYF=  320 NGZF=  336
   support grid    NGXF=   320 NGYF=  320 NGZF=  336
   ions per type =               4 100 100
   NGX,Y,Z   is equivalent  to a cutoff of  12.58, 12.58, 12.63 a.u.
   NGXF,Y,Z  is equivalent  to a cutoff of  25.17, 25.17, 25.26 a.u.

 SYSTEM =  MgO-rocksalt                            
 POSCAR =  Ag Mg  O                                

 Startparameter for this run:
   NWRITE =      2    write-flag & timer
   PREC   = accura    normal or accurate (medium, high low for compatibility)
   ISTART =      0    job   : 0-new  1-cont  2-samecut
   ICHARG =      2    charge: 1-file 2-atom 10-const
   ISPIN  =      1    spin polarized calculation?
   LNONCOLLINEAR =      F non collinear calculations
   LSORBIT =      F    spin-orbit coupling
   INIWAV =      1    electr: 0-lowe 1-rand  2-diag
   LASPH  =      T    aspherical Exc in radial PAW
 Electronic Relaxation 1
   ENCUT  =  520.0 eV  38.22 Ry    6.18 a.u.  39.30 39.30 41.12*2*pi/ulx,y,z
   ENINI  =  520.0     initial cutoff
   ENAUG  =  758.8 eV  augmentation charge cutoff
   NELM   =    200;   NELMIN=  8; NELMDL= -5     # of ELM steps 
   EDIFF  = 0.1E-04   stopping-criterion for ELM
   LREAL  =      T    real-space projection
   NLSPLINE    = F    spline interpolate recip. space projectors
   LCOMPAT=      F    compatible to vasp.4.4
   GGA_COMPAT  = T    GGA compatible to vasp.4.4-vasp.4.6
   LMAXPAW     = -100 max onsite density
   LMAXMIX     =    2 max onsite mixed and CHGCAR
   VOSKOWN=      0    Vosko Wilk Nusair interpolation
   ROPT   =   -0.00025  -0.00025  -0.00025
 Ionic relaxation
   EDIFFG = 0.1E-03   stopping-criterion for IOM
   NSW    =      0    number of steps for IOM
   NBLOCK =      1;   KBLOCK =      1    inner block; outer block 
   IBRION =     -1    ionic relax: 0-MD 1-quasi-New 2-CG
   NFREE  =      0    steps in history (QN), initial steepest desc. (CG)
   ISIF   =      0    stress and relaxation
   IWAVPR =     10    prediction:  0-non 1-charg 2-wave 3-comb
   ISYM   =      2    0-nonsym 1-usesym 2-fastsym
   LCORR  =      T    Harris-Foulkes like correction to forces

   POTIM  = 0.5000    time-step for ionic-motion
   TEIN   =    0.0    initial temperature
   TEBEG  =    0.0;   TEEND  =   0.0 temperature during run
   SMASS  =  -3.00    Nose mass-parameter (am)
   estimated Nose-frequenzy (Omega)   =  0.10E-29 period in steps = 0.13E+47 mass=  -0.102E-25a.u.
   SCALEE = 1.0000    scale energy and forces
   NPACO  =    256;   APACO  = 10.0  distance and # of slots for P.C.
   PSTRESS=    0.0 pullay stress

  Mass of Ions in am
   POMASS = 107.87 24.30 16.00
  Ionic Valenz
   ZVAL   =  11.00  8.00  6.00
  Atomic Wigner-Seitz radii
   RWIGS  =  -1.00 -1.00 -1.00
  virtual crystal weights 
   VCA    =   1.00  1.00  1.00
   NELECT =    1444.0000    total number of electrons
   NUPDOWN=      -1.0000    fix difference up-down

 DOS related values:
   EMIN   =  10.00;   EMAX   =-10.00  energy-range for DOS
   EFERMI =   0.00
   ISMEAR =     0;   SIGMA  =   0.05  broadening in eV -4-tet -1-fermi 0-gaus

 Electronic relaxation 2 (details)
   IALGO  =     58    algorithm
   LDIAG  =      T    sub-space diagonalisation (order eigenvalues)
   LSUBROT=      F    optimize rotation matrix (better conditioning)
   TURBO    =      0    0=normal 1=particle mesh
   IRESTART =      0    0=no restart 2=restart with 2 vectors
   NREBOOT  =      0    no. of reboots
   NMIN     =      0    reboot dimension
   EREF     =   0.00    reference energy to select bands
   IMIX   =      4    mixing-type and parameters
     AMIX     =   0.40;   BMIX     =  1.00
     AMIX_MAG =   1.60;   BMIX_MAG =  1.00
     AMIN     =   0.10
     WC   =   100.;   INIMIX=   1;  MIXPRE=   1;  MAXMIX= -45

 Intra band minimization:
   WEIMIN = 0.0000     energy-eigenvalue tresh-hold
   EBREAK =  0.22E-08  absolut break condition
   DEPER  =   0.30     relativ break condition  

   TIME   =   0.40     timestep for ELM

  volume/ion in A,a.u.               =      48.44       326.88
  Fermi-wavevector in a.u.,A,eV,Ry     =   0.862293  1.629497 10.116590  0.743548
  Thomas-Fermi vector in A             =   1.980073

 Write flags
   LWAVE        =      F    write WAVECAR
   LDOWNSAMPLE  =      F    k-point downsampling of WAVECAR
   LCHARG       =      F    write CHGCAR
   LVTOT        =      F    write LOCPOT, total local potential
   LVHAR        =      F    write LOCPOT, Hartree potential only
   LELF         =      F    write electronic localiz. function (ELF)
   LORBIT       =      0    0 simple, 1 ext, 2 COOP (PROOUT), +10 PAW based schemes


 Dipole corrections
   LMONO  =      F    monopole corrections only (constant potential shift)
   LDIPOL =      T    correct potential (dipole corrections)
   IDIPOL =      3    1-x, 2-y, 3-z, 4-all directions 
   EPSILON=  1.0000000 bulk dielectric constant

 Exchange correlation treatment:
   GGA     =    B5    GGA type
   LEXCH   =    12    internal setting for exchange type
   LIBXC   =     F    Libxc                    
   VOSKOWN =     0    Vosko Wilk Nusair interpolation
   EXXOEP  =     0    0=HF, 1=EXX-LHF (local Hartree Fock) 2=EXX OEP
   LHFCALC =     T    Hartree Fock is set to
   LSYMGRAD=     F    symmetrize gradient (conserves proper symmetry)
   PRECFOCK=normal    Normal, Fast or Accurate (Low or Medium for compatibility)
   LRHFCALC=     F    long range Hartree Fock
   LRSCOR  =     F    long range correlation only (use DFT for short range part)
   LTHOMAS =     F    Thomas Fermi screening in HF
   LMODELHF=     F    short range full HF, long range fraction AEXX
   LFOCKACE=     T    use Adeptively-Compressed-Exchange operator
   ENCUT4O =  -1.0   cutoff for four orbital integrals eV
   LMAXFOCK=     4    L truncation for augmentation on plane wave grid
   LMAXFOCKAE=  -1    L truncation for all-electron charge restoration on plane wave grid
   NMAXFOCKAE=   1    number of basis functions for all-electron charge restoration
   LFOCKAEDFT=     F  apply the AE augmentation even for DFT
   NKREDX  =     1    reduce k-point grid by
   NKREDY  =     1    reduce k-point grid by
   NKREDZ  =     1    reduce k-point grid by
   SHIFTRED=     F    shift reduced grid of Gamma
   HFKIDENT=     F    idential grid for each k-point
   ODDONLY =     F    use only odd q-grid points
   EVENONLY=     F    use only even q-grid points
   HFALPHA =   -1.0000 decay constant for conv. correction
   MCALPHA =    0.0000 extent of test-charge in conv. correction in multipole expansion
   AEXX    =    0.2000 exact exchange contribution
   HFSCREEN=    0.0000 screening length (either q_TF or 0.3 A-1)
   HFSCREENC=   0.0000 screening length for correlation (either q_TF or 0.3 A-1)
   HFRCUT  =    0.0000 spherical cutoff for potential kernel
   ALDAX   =    0.8000 LDA exchange part
   AGGAX   =    0.7200 GGA exchange part
   ALDAC   =    0.1900 LDA correlation
   AGGAC   =    0.8100 GGA correlation
   ENCUTFOCK=  -1.0 apply spherical cutoff to Coloumb kernel
   NBANDSGWLOW=     1    first orbital included in HF term
   NBLOCK_FOCK=    64    blocking factor in FOCK_ACC

 Linear response parameters
   LEPSILON=     F    determine dielectric tensor
   LRPA    =     F    only Hartree local field effects (RPA)
   LNABLA  =     F    use nabla operator in PAW spheres
   LVEL    =     F    velocity operator in full k-point grid
   CSHIFT  =0.1000    complex shift for real part using Kramers Kronig
   OMEGAMAX=  -1.0    maximum frequency
   DEG_THRESHOLD= 0.2000000E-02 threshold for treating states as degnerate
   RTIME   =   -0.100 relaxation time in fs
  (WPLASMAI=    0.000 imaginary part of plasma frequency in eV, 0.658/RTIME)
   DFIELD  = 0.0000000 0.0000000 0.0000000 field for delta impulse in time

  Optional k-point grid parameters
   LKPOINTS_OPT  =     F    use optional k-point grid
   KPOINTS_OPT_MODE=     1    mode for optional k-point grid

 Orbital magnetization related:
   ORBITALMAG=     F  switch on orbital magnetization
   LCHIMAG   =     F  perturbation theory with respect to B field
   DQ        =  0.001000  dq finite difference perturbation B field
   LLRAUG    =     F  two centre corrections for induced B field



--------------------------------------------------------------------------------------------------------


 Static calculation
 charge density and potential will be updated during run
 non-spin polarized calculation
 Conjugate gradient for all bands (Freysoldt, et al. PRB 79, 241103 (2009))
 preconditioned conjugated gradient                                        
 perform sub-space diagonalisation
    before iterative eigenvector-optimisation
 modified Broyden-mixing scheme, WC =      100.0
 initial mixing is a Kerker type mixing with AMIX =  0.4000 and BMIX =      1.0000
 Hartree-type preconditioning will be used
 using additional bands          430
 real space projection scheme for non local part
 use partial core corrections
 no Harris-corrections to forces 
 use gradient corrections 
 use of overlap-Matrix (Vanderbilt PP)
 Gauss-broadening in eV      SIGMA  =   0.05


--------------------------------------------------------------------------------------------------------


  energy-cutoff  :      520.00
  volume of cell :     9881.61
      direct lattice vectors                 reciprocal lattice vectors
    21.138852197  0.000000000  0.000000000     0.047306258  0.000000000  0.000000000
     0.000000000 21.138852197  0.000000000     0.000000000  0.047306258  0.000000000
     0.000000000  0.000000000 22.113885220     0.000000000  0.000000000  0.045220457

  length of vectors
    21.138852197 21.138852197 22.113885220     0.047306258  0.047306258  0.045220457



 k-points in units of 2pi/SCALE and weight: KPOINTS created by Atomic Simulation Env
   0.00000000  0.00000000  0.00000000       1.000

 k-points in reciprocal lattice and weights: KPOINTS created by Atomic Simulation Env
   0.00000000  0.00000000  0.00000000       1.000

 position of ions in fractional coordinates (direct lattice) 
   0.28562461  0.50528543  0.62985797
   0.39751532  0.44130979  0.62172373
   0.39778276  0.56777137  0.61537852
   0.50977254  0.50452789  0.62868524
   0.00000000  0.00000000  0.40698411
   0.10000000  0.10000000  0.40698411
   0.00000000  0.10000000  0.50257497
   0.10000000  0.00000000  0.50257497
   0.00000000  0.20000000  0.40698411
   0.10000000  0.30000000  0.40698411
   0.00000000  0.30000000  0.50257497
   0.10000000  0.20000000  0.50257497
   0.00000000  0.40000000  0.40698411
   0.10000000  0.50000000  0.40698411
   0.00000000  0.50000000  0.50257497
   0.10000000  0.40000000  0.50257497
   0.00000000  0.60000000  0.40698411
   0.10000000  0.70000000  0.40698411
   0.00000000  0.70000000  0.50257497
   0.10000000  0.60000000  0.50257497
   0.00000000  0.80000000  0.40698411
   0.10000000  0.90000000  0.40698411
   0.00000000  0.90000000  0.50257497
   0.10000000  0.80000000  0.50257497
   0.20000000  0.00000000  0.40698411
   0.30000000  0.10000000  0.40698411
   0.20000000  0.10000000  0.50257497
   0.30000000  0.00000000  0.50257497
   0.20000000  0.20000000  0.40698411
   0.30000000  0.30000000  0.40698411
   0.20000000  0.30000000  0.50257497
   0.30000000  0.20000000  0.50257497
   0.20000000  0.40000000  0.40698411
   0.30000000  0.50000000  0.40698411
   0.20000000  0.50000000  0.50257497
   0.30000000  0.40000000  0.50257497
   0.20000000  0.60000000  0.40698411
   0.30000000  0.70000000  0.40698411
   0.20000000  0.70000000  0.50257497
   0.30000000  0.60000000  0.50257497
   0.20000000  0.80000000  0.40698411
   0.30000000  0.90000000  0.40698411
   0.20000000  0.90000000  0.50257497
   0.30000000  0.80000000  0.50257497
   0.40000000  0.00000000  0.40698411
   0.50000000  0.10000000  0.40698411
   0.40000000  0.10000000  0.50257497
   0.50000000  0.00000000  0.50257497
   0.40000000  0.20000000  0.40698411
   0.50000000  0.30000000  0.40698411
   0.40000000  0.30000000  0.50257497
   0.50000000  0.20000000  0.50257497
   0.40000000  0.40000000  0.40698411
   0.50000000  0.50000000  0.40698411
   0.40000000  0.50000000  0.50257497
   0.50000000  0.40000000  0.50257497
   0.40000000  0.60000000  0.40698411
   0.50000000  0.70000000  0.40698411
   0.40000000  0.70000000  0.50257497
   0.50000000  0.60000000  0.50257497
   0.40000000  0.80000000  0.40698411
   0.50000000  0.90000000  0.40698411
   0.40000000  0.90000000  0.50257497
   0.50000000  0.80000000  0.50257497
   0.60000000  0.00000000  0.40698411
   0.70000000  0.10000000  0.40698411
   0.60000000  0.10000000  0.50257497
   0.70000000  0.00000000  0.50257497
   0.60000000  0.20000000  0.40698411
   0.70000000  0.30000000  0.40698411
   0.60000000  0.30000000  0.50257497
   0.70000000  0.20000000  0.50257497
   0.60000000  0.40000000  0.40698411
   0.70000000  0.50000000  0.40698411
   0.60000000  0.50000000  0.50257497
   0.70000000  0.40000000  0.50257497
   0.60000000  0.60000000  0.40698411
   0.70000000  0.70000000  0.40698411
   0.60000000  0.70000000  0.50257497
   0.70000000  0.60000000  0.50257497
   0.60000000  0.80000000  0.40698411
   0.70000000  0.90000000  0.40698411
   0.60000000  0.90000000  0.50257497
   0.70000000  0.80000000  0.50257497
   0.80000000  0.00000000  0.40698411
   0.90000000  0.10000000  0.40698411
   0.80000000  0.10000000  0.50257497
   0.90000000  0.00000000  0.50257497
   0.80000000  0.20000000  0.40698411
   0.90000000  0.30000000  0.40698411
   0.80000000  0.30000000  0.50257497
   0.90000000  0.20000000  0.50257497
   0.80000000  0.40000000  0.40698411
   0.90000000  0.50000000  0.40698411
   0.80000000  0.50000000  0.50257497
   0.90000000  0.40000000  0.50257497
   0.80000000  0.60000000  0.40698411
   0.90000000  0.70000000  0.40698411
   0.80000000  0.70000000  0.50257497
   0.90000000  0.60000000  0.50257497
   0.80000000  0.80000000  0.40698411
   0.90000000  0.90000000  0.40698411
   0.80000000  0.90000000  0.50257497
   0.90000000  0.80000000  0.50257497
   0.00000000  0.00000000  0.50257497
   0.10000000  0.10000000  0.50257497
   0.00000000  0.10000000  0.40698411
   0.10000000  0.00000000  0.40698411
   0.00000000  0.20000000  0.50257497
   0.10000000  0.30000000  0.50257497
   0.00000000  0.30000000  0.40698411
   0.10000000  0.20000000  0.40698411
   0.00000000  0.40000000  0.50257497
   0.10000000  0.50000000  0.50257497
   0.00000000  0.50000000  0.40698411
   0.10000000  0.40000000  0.40698411
   0.00000000  0.60000000  0.50257497
   0.10000000  0.70000000  0.50257497
   0.00000000  0.70000000  0.40698411
   0.10000000  0.60000000  0.40698411
   0.00000000  0.80000000  0.50257497
   0.10000000  0.90000000  0.50257497
   0.00000000  0.90000000  0.40698411
   0.10000000  0.80000000  0.40698411
   0.20000000  0.00000000  0.50257497
   0.30000000  0.10000000  0.50257497
   0.20000000  0.10000000  0.40698411
   0.30000000  0.00000000  0.40698411
   0.20000000  0.20000000  0.50257497
   0.30000000  0.30000000  0.50257497
   0.20000000  0.30000000  0.40698411
   0.30000000  0.20000000  0.40698411
   0.20000000  0.40000000  0.50257497
   0.30000000  0.50000000  0.50257497
   0.20000000  0.50000000  0.40698411
   0.30000000  0.40000000  0.40698411
   0.20000000  0.60000000  0.50257497
   0.30000000  0.70000000  0.50257497
   0.20000000  0.70000000  0.40698411
   0.30000000  0.60000000  0.40698411
   0.20000000  0.80000000  0.50257497
   0.30000000  0.90000000  0.50257497
   0.20000000  0.90000000  0.40698411
   0.30000000  0.80000000  0.40698411
   0.40000000  0.00000000  0.50257497
   0.50000000  0.10000000  0.50257497
   0.40000000  0.10000000  0.40698411
   0.50000000  0.00000000  0.40698411
   0.40000000  0.20000000  0.50257497
   0.50000000  0.30000000  0.50257497
   0.40000000  0.30000000  0.40698411
   0.50000000  0.20000000  0.40698411
   0.40000000  0.40000000  0.50257497
   0.50000000  0.50000000  0.50257497
   0.40000000  0.50000000  0.40698411
   0.50000000  0.40000000  0.40698411
   0.40000000  0.60000000  0.50257497
   0.50000000  0.70000000  0.50257497
   0.40000000  0.70000000  0.40698411
   0.50000000  0.60000000  0.40698411
   0.40000000  0.80000000  0.50257497
   0.50000000  0.90000000  0.50257497
   0.40000000  0.90000000  0.40698411
   0.50000000  0.80000000  0.40698411
   0.60000000  0.00000000  0.50257497
   0.70000000  0.10000000  0.50257497
   0.60000000  0.10000000  0.40698411
   0.70000000  0.00000000  0.40698411
   0.60000000  0.20000000  0.50257497
   0.70000000  0.30000000  0.50257497
   0.60000000  0.30000000  0.40698411
   0.70000000  0.20000000  0.40698411
   0.60000000  0.40000000  0.50257497
   0.70000000  0.50000000  0.50257497
   0.60000000  0.50000000  0.40698411
   0.70000000  0.40000000  0.40698411
   0.60000000  0.60000000  0.50257497
   0.70000000  0.70000000  0.50257497
   0.60000000  0.70000000  0.40698411
   0.70000000  0.60000000  0.40698411
   0.60000000  0.80000000  0.50257497
   0.70000000  0.90000000  0.50257497
   0.60000000  0.90000000  0.40698411
   0.70000000  0.80000000  0.40698411
   0.80000000  0.00000000  0.50257497
   0.90000000  0.10000000  0.50257497
   0.80000000  0.10000000  0.40698411
   0.90000000  0.00000000  0.40698411
   0.80000000  0.20000000  0.50257497
   0.90000000  0.30000000  0.50257497
   0.80000000  0.30000000  0.40698411
   0.90000000  0.20000000  0.40698411
   0.80000000  0.40000000  0.50257497
   0.90000000  0.50000000  0.50257497
   0.80000000  0.50000000  0.40698411
   0.90000000  0.40000000  0.40698411
   0.80000000  0.60000000  0.50257497
   0.90000000  0.70000000  0.50257497
   0.80000000  0.70000000  0.40698411
   0.90000000  0.60000000  0.40698411
   0.80000000  0.80000000  0.50257497
   0.90000000  0.90000000  0.50257497
   0.80000000  0.90000000  0.40698411
   0.90000000  0.80000000  0.40698411

 position of ions in cartesian coordinates  (Angst):
   6.03777643 10.68115399 13.92860684
   8.40301756  9.32878237 13.74872719
   8.40867095 12.00203505 13.60840992
  10.77600648 10.66514057 13.90267314
   0.00000000  0.00000000  9.00000000
   2.11388522  2.11388522  9.00000000
   0.00000000  2.11388522 11.11388522
   2.11388522  0.00000000 11.11388522
   0.00000000  4.22777044  9.00000000
   2.11388522  6.34165566  9.00000000
   0.00000000  6.34165566 11.11388522
   2.11388522  4.22777044 11.11388522
   0.00000000  8.45554088  9.00000000
   2.11388522 10.56942610  9.00000000
   0.00000000 10.56942610 11.11388522
   2.11388522  8.45554088 11.11388522
   0.00000000 12.68331132  9.00000000
   2.11388522 14.79719654  9.00000000
   0.00000000 14.79719654 11.11388522
   2.11388522 12.68331132 11.11388522
   0.00000000 16.91108176  9.00000000
   2.11388522 19.02496698  9.00000000
   0.00000000 19.02496698 11.11388522
   2.11388522 16.91108176 11.11388522
   4.22777044  0.00000000  9.00000000
   6.34165566  2.11388522  9.00000000
   4.22777044  2.11388522 11.11388522
   6.34165566  0.00000000 11.11388522
   4.22777044  4.22777044  9.00000000
   6.34165566  6.34165566  9.00000000
   4.22777044  6.34165566 11.11388522
   6.34165566  4.22777044 11.11388522
   4.22777044  8.45554088  9.00000000
   6.34165566 10.56942610  9.00000000
   4.22777044 10.56942610 11.11388522
   6.34165566  8.45554088 11.11388522
   4.22777044 12.68331132  9.00000000
   6.34165566 14.79719654  9.00000000
   4.22777044 14.79719654 11.11388522
   6.34165566 12.68331132 11.11388522
   4.22777044 16.91108176  9.00000000
   6.34165566 19.02496698  9.00000000
   4.22777044 19.02496698 11.11388522
   6.34165566 16.91108176 11.11388522
   8.45554088  0.00000000  9.00000000
  10.56942610  2.11388522  9.00000000
   8.45554088  2.11388522 11.11388522
  10.56942610  0.00000000 11.11388522
   8.45554088  4.22777044  9.00000000
  10.56942610  6.34165566  9.00000000
   8.45554088  6.34165566 11.11388522
  10.56942610  4.22777044 11.11388522
   8.45554088  8.45554088  9.00000000
  10.56942610 10.56942610  9.00000000
   8.45554088 10.56942610 11.11388522
  10.56942610  8.45554088 11.11388522
   8.45554088 12.68331132  9.00000000
  10.56942610 14.79719654  9.00000000
   8.45554088 14.79719654 11.11388522
  10.56942610 12.68331132 11.11388522
   8.45554088 16.91108176  9.00000000
  10.56942610 19.02496698  9.00000000
   8.45554088 19.02496698 11.11388522
  10.56942610 16.91108176 11.11388522
  12.68331132  0.00000000  9.00000000
  14.79719654  2.11388522  9.00000000
  12.68331132  2.11388522 11.11388522
  14.79719654  0.00000000 11.11388522
  12.68331132  4.22777044  9.00000000
  14.79719654  6.34165566  9.00000000
  12.68331132  6.34165566 11.11388522
  14.79719654  4.22777044 11.11388522
  12.68331132  8.45554088  9.00000000
  14.79719654 10.56942610  9.00000000
  12.68331132 10.56942610 11.11388522
  14.79719654  8.45554088 11.11388522
  12.68331132 12.68331132  9.00000000
  14.79719654 14.79719654  9.00000000
  12.68331132 14.79719654 11.11388522
  14.79719654 12.68331132 11.11388522
  12.68331132 16.91108176  9.00000000
  14.79719654 19.02496698  9.00000000
  12.68331132 19.02496698 11.11388522
  14.79719654 16.91108176 11.11388522
  16.91108176  0.00000000  9.00000000
  19.02496698  2.11388522  9.00000000
  16.91108176  2.11388522 11.11388522
  19.02496698  0.00000000 11.11388522
  16.91108176  4.22777044  9.00000000
  19.02496698  6.34165566  9.00000000
  16.91108176  6.34165566 11.11388522
  19.02496698  4.22777044 11.11388522
  16.91108176  8.45554088  9.00000000
  19.02496698 10.56942610  9.00000000
  16.91108176 10.56942610 11.11388522
  19.02496698  8.45554088 11.11388522
  16.91108176 12.68331132  9.00000000
  19.02496698 14.79719654  9.00000000
  16.91108176 14.79719654 11.11388522
  19.02496698 12.68331132 11.11388522
  16.91108176 16.91108176  9.00000000
  19.02496698 19.02496698  9.00000000
  16.91108176 19.02496698 11.11388522
  19.02496698 16.91108176 11.11388522
   0.00000000  0.00000000 11.11388522
   2.11388522  2.11388522 11.11388522
   0.00000000  2.11388522  9.00000000
   2.11388522  0.00000000  9.00000000
   0.00000000  4.22777044 11.11388522
   2.11388522  6.34165566 11.11388522
   0.00000000  6.34165566  9.00000000
   2.11388522  4.22777044  9.00000000
   0.00000000  8.45554088 11.11388522
   2.11388522 10.56942610 11.11388522
   0.00000000 10.56942610  9.00000000
   2.11388522  8.45554088  9.00000000
   0.00000000 12.68331132 11.11388522
   2.11388522 14.79719654 11.11388522
   0.00000000 14.79719654  9.00000000
   2.11388522 12.68331132  9.00000000
   0.00000000 16.91108176 11.11388522
   2.11388522 19.02496698 11.11388522
   0.00000000 19.02496698  9.00000000
   2.11388522 16.91108176  9.00000000
   4.22777044  0.00000000 11.11388522
   6.34165566  2.11388522 11.11388522
   4.22777044  2.11388522  9.00000000
   6.34165566  0.00000000  9.00000000
   4.22777044  4.22777044 11.11388522
   6.34165566  6.34165566 11.11388522
   4.22777044  6.34165566  9.00000000
   6.34165566  4.22777044  9.00000000
   4.22777044  8.45554088 11.11388522
   6.34165566 10.56942610 11.11388522
   4.22777044 10.56942610  9.00000000
   6.34165566  8.45554088  9.00000000
   4.22777044 12.68331132 11.11388522
   6.34165566 14.79719654 11.11388522
   4.22777044 14.79719654  9.00000000
   6.34165566 12.68331132  9.00000000
   4.22777044 16.91108176 11.11388522
   6.34165566 19.02496698 11.11388522
   4.22777044 19.02496698  9.00000000
   6.34165566 16.91108176  9.00000000
   8.45554088  0.00000000 11.11388522
  10.56942610  2.11388522 11.11388522
   8.45554088  2.11388522  9.00000000
  10.56942610  0.00000000  9.00000000
   8.45554088  4.22777044 11.11388522
  10.56942610  6.34165566 11.11388522
   8.45554088  6.34165566  9.00000000
  10.56942610  4.22777044  9.00000000
[...]
   0.177E+00 -.711E+01 -.691E+03   -.175E+00 0.711E+01 0.695E+03   -.164E-02 0.567E-02 -.324E+01
   -.560E+01 -.658E+01 0.705E+03   0.562E+01 0.658E+01 -.709E+03   -.225E-01 -.295E-03 0.316E+01
   0.196E+00 -.952E+01 0.706E+03   -.195E+00 0.951E+01 -.710E+03   -.228E-02 0.833E-02 0.316E+01
 -----------------------------------------------------------------------------------------------
   0.373E-01 0.566E+00 0.995E+01   0.171E-11 0.114E-12 0.637E-11   -.221E-01 -.540E+00 -.898E+01


 POSITION                                       TOTAL-FORCE (eV/Angst)
 -----------------------------------------------------------------------------------
      6.03778     10.68115     13.92861        -0.450552      0.003794      0.161117
      8.40302      9.32878     13.74873        -0.003699     -0.495457      0.163448
      8.40867     12.00204     13.60841         0.005709      0.526896      0.099129
     10.77601     10.66514     13.90267         0.451235     -0.002923      0.153826
      0.00000      0.00000      9.00000        -0.005195      0.000682      0.483817
      2.11389      2.11389      9.00000        -0.010933     -0.000024      0.483918
      0.00000      2.11389     11.11389        -0.005397      0.003041     -0.461184
      2.11389      0.00000     11.11389        -0.009479      0.001032     -0.461968
      0.00000      4.22777      9.00000        -0.006981      0.002917      0.485296
      2.11389      6.34166      9.00000        -0.022422      0.002321      0.490822
      0.00000      6.34166     11.11389        -0.003770      0.007628     -0.454920
      2.11389      4.22777     11.11389        -0.015746      0.006435     -0.457044
      0.00000      8.45554      9.00000        -0.008184      0.002784      0.489238
      2.11389     10.56943      9.00000        -0.029206     -0.001413      0.502046
      0.00000     10.56943     11.11389         0.005631     -0.000380     -0.447424
      2.11389      8.45554     11.11389        -0.004449      0.015741     -0.428789
      0.00000     12.68331      9.00000        -0.009131     -0.003788      0.489555
      2.11389     14.79720      9.00000        -0.026722     -0.002820      0.491797
      0.00000     14.79720     11.11389        -0.004445     -0.007948     -0.454425
      2.11389     12.68331     11.11389        -0.006023     -0.017081     -0.426708
      0.00000     16.91108      9.00000        -0.008136     -0.002448      0.485656
      2.11389     19.02497      9.00000        -0.012212      0.002090      0.483983
      0.00000     19.02497     11.11389        -0.005946     -0.002166     -0.460998
      2.11389     16.91108     11.11389        -0.018523     -0.006057     -0.455968
      4.22777      0.00000      9.00000        -0.011019      0.001990      0.483602
      6.34166      2.11389      9.00000        -0.009797     -0.011845      0.482908
      4.22777      2.11389     11.11389        -0.013579     -0.003454     -0.460957
      6.34166      0.00000     11.11389        -0.007769      0.002774     -0.461889
      4.22777      4.22777      9.00000        -0.023363     -0.009754      0.483688
      6.34166      6.34166      9.00000        -0.050249     -0.043538      0.465204
      4.22777      6.34166     11.11389        -0.052424      0.018985     -0.432232
      6.34166      4.22777     11.11389        -0.023791     -0.036375     -0.460157
      4.22777      8.45554      9.00000        -0.064709     -0.004354      0.506029
      6.34166     10.56943      9.00000        -0.106850     -0.014362      0.442676
      4.22777     10.56943     11.11389        -0.099955     -0.001622     -0.340452
      6.34166      8.45554     11.11389        -0.307011     -0.002324     -0.332957
      4.22777     12.68331      9.00000        -0.075436     -0.001252      0.507115
      6.34166     14.79720      9.00000        -0.062394      0.050972      0.458271
      4.22777     14.79720     11.11389        -0.063814     -0.022136     -0.424263
      6.34166     12.68331     11.11389        -0.416021     -0.007054     -0.316255
      4.22777     16.91108      9.00000        -0.028088      0.013462      0.483282
      6.34166     19.02497      9.00000        -0.011271      0.018485      0.483167
      4.22777     19.02497     11.11389        -0.015358      0.007150     -0.460314
      6.34166     16.91108     11.11389        -0.028916      0.048157     -0.458320
      8.45554      0.00000      9.00000        -0.000318      0.003362      0.483369
     10.56943      2.11389      9.00000         0.009245     -0.011976      0.482974
      8.45554      2.11389     11.11389        -0.000308     -0.018663     -0.461881
     10.56943      0.00000     11.11389         0.007239      0.002914     -0.461774
      8.45554      4.22777      9.00000        -0.000438     -0.045186      0.480178
     10.56943      6.34166      9.00000         0.048543     -0.046362      0.466636
      8.45554      6.34166     11.11389         0.000765     -0.255928     -0.524629
     10.56943      4.22777     11.11389         0.022933     -0.035940     -0.459894
      8.45554      8.45554      9.00000        -0.004528     -0.044512      0.259382
     10.56943     10.56943      9.00000         0.103514     -0.014410      0.431197
      8.45554     10.56943     11.11389         0.006738     -0.147597     -0.751337
     10.56943      8.45554     11.11389         0.288264     -0.015878     -0.321986
      8.45554     12.68331      9.00000        -0.004820      0.029753      0.182093
     10.56943     14.79720      9.00000         0.060227      0.053658      0.457860
      8.45554     14.79720     11.11389        -0.000689      0.346564     -0.555028
     10.56943     12.68331     11.11389         0.392083      0.005200     -0.312340
      8.45554     16.91108      9.00000        -0.000705      0.057999      0.478908
     10.56943     19.02497      9.00000         0.010574      0.018856      0.482957
      8.45554     19.02497     11.11389        -0.000452      0.027494     -0.461553
     10.56943     16.91108     11.11389         0.027547      0.048907     -0.459103
     12.68331      0.00000      9.00000         0.010810      0.002113      0.483503
     14.79720      2.11389      9.00000         0.011132     -0.000411      0.483927
     12.68331      2.11389     11.11389         0.013307     -0.003735     -0.460857
     14.79720      0.00000     11.11389         0.009664      0.001175     -0.461810
     12.68331      4.22777      9.00000         0.022852     -0.010962      0.483612
     14.79720      6.34166      9.00000         0.023433      0.000606      0.490170
     12.68331      6.34166     11.11389         0.050241      0.013572     -0.432940
     14.79720      4.22777     11.11389         0.015970      0.004921     -0.457263
     12.68331      8.45554      9.00000         0.065340     -0.006980      0.502545
     14.79720     10.56943      9.00000         0.032001     -0.001655      0.499990
     12.68331     10.56943     11.11389         0.110401     -0.002698     -0.360457
     14.79720      8.45554     11.11389         0.009510      0.012374     -0.431823
     12.68331     12.68331      9.00000         0.075883      0.000909      0.502758
     14.79720     14.79720      9.00000         0.028012     -0.001087      0.490809
     12.68331     14.79720     11.11389         0.062721     -0.016009     -0.426759
     14.79720     12.68331     11.11389         0.011978     -0.014185     -0.430374
     12.68331     16.91108      9.00000         0.027592      0.014949      0.482863
     14.79720     19.02497      9.00000         0.012501      0.002712      0.483956
     12.68331     19.02497     11.11389         0.015055      0.008000     -0.460479
     14.79720     16.91108     11.11389         0.019145     -0.004198     -0.456331
     16.91108      0.00000      9.00000         0.005735      0.000741      0.483551
     19.02497      2.11389      9.00000         0.000382      0.001960      0.483718
     16.91108      2.11389     11.11389         0.006024      0.002750     -0.461269
     19.02497      0.00000     11.11389         0.000348      0.000468     -0.462015
     16.91108      4.22777      9.00000         0.007949      0.002368      0.485089
     19.02497      6.34166      9.00000         0.000915      0.003486      0.485513
     16.91108      6.34166     11.11389         0.005932      0.006544     -0.455380
     19.02497      4.22777     11.11389         0.000646      0.004950     -0.460089
     16.91108      8.45554      9.00000         0.010809      0.002091      0.488757
     19.02497     10.56943      9.00000         0.001566     -0.000465      0.486883
     16.91108     10.56943     11.11389        -0.000541     -0.000523     -0.448634
     19.02497      8.45554     11.11389         0.001707      0.003801     -0.454709
     16.91108     12.68331      9.00000         0.011961     -0.003222      0.489086
     19.02497     14.79720      9.00000         0.001053     -0.003762      0.485461
     16.91108     14.79720     11.11389         0.007092     -0.006898     -0.454824
     19.02497     12.68331     11.11389         0.001844     -0.004393     -0.454107
     16.91108     16.91108      9.00000         0.009306     -0.001812      0.485149
     19.02497     19.02497      9.00000         0.000435     -0.001060      0.484119
     16.91108     19.02497     11.11389         0.006741     -0.001716     -0.461054
     19.02497     16.91108     11.11389         0.000797     -0.004645     -0.459719
      0.00000      0.00000     11.11389         0.005522     -0.000646      0.402677
      2.11389      2.11389     11.11389         0.012197     -0.000018      0.401293
      0.00000      2.11389      9.00000         0.005925     -0.001477     -0.425583
      2.11389      0.00000      9.00000         0.010808     -0.001167     -0.425013
      0.00000      4.22777     11.11389         0.005436     -0.004965      0.399795
      2.11389      6.34166     11.11389         0.015534     -0.009221      0.388250
      0.00000      6.34166      9.00000         0.007079     -0.003695     -0.428936
      2.11389      4.22777      9.00000         0.016519      0.000610     -0.426972
      0.00000      8.45554     11.11389         0.001529     -0.006402      0.391148
      2.11389     10.56943     11.11389         0.004909      0.001173      0.357460
      0.00000     10.56943      9.00000         0.005312      0.000837     -0.433638
      2.11389      8.45554      9.00000         0.022075     -0.002510     -0.437904
      0.00000     12.68331     11.11389         0.002017      0.007479      0.390548
      2.11389     14.79720     11.11389         0.018211      0.010252      0.386101
      0.00000     14.79720      9.00000         0.008047      0.004187     -0.429188
      2.11389     12.68331      9.00000         0.024314      0.005210     -0.438628
      0.00000     16.91108     11.11389         0.006182      0.004682      0.399259
      2.11389     19.02497     11.11389         0.013614     -0.002040      0.400829
      0.00000     19.02497      9.00000         0.006488      0.000309     -0.425657
      2.11389     16.91108      9.00000         0.019330     -0.001992     -0.427188
      4.22777      0.00000     11.11389         0.013161     -0.001834      0.401537
      6.34166      2.11389     11.11389         0.013344      0.011654      0.401015
      4.22777      2.11389      9.00000         0.015491      0.005102     -0.424544
      6.34166      0.00000      9.00000         0.009287     -0.002678     -0.423662
      4.22777      4.22777     11.11389         0.031566      0.012147      0.396492
      6.34166      6.34166     11.11389         0.119246      0.070941      0.405755
      4.22777      6.34166      9.00000         0.046152      0.009217     -0.427695
      6.34166      4.22777      9.00000         0.025023      0.028715     -0.419545
      4.22777      8.45554     11.11389         0.052937     -0.010715      0.319711
      6.34166     10.56943     11.11389         0.115575     -0.000013     -0.209033
      4.22777     10.56943      9.00000         0.062284      0.005450     -0.445527
      6.34166      8.45554      9.00000         0.126857      0.019355     -0.372657
      4.22777     12.68331     11.11389         0.052963      0.016826      0.308638
      6.34166     14.79720     11.11389         0.155863     -0.089443      0.404633
      4.22777     14.79720      9.00000         0.055432     -0.010632     -0.426464
      6.34166     12.68331      9.00000         0.154669     -0.008909     -0.351616
      4.22777     16.91108     11.11389         0.038315     -0.017197      0.394731
      6.34166     19.02497     11.11389         0.015486     -0.017968      0.400320
      4.22777     19.02497      9.00000         0.017586     -0.009075     -0.424525
      6.34166     16.91108      9.00000         0.030484     -0.037311     -0.417840
      8.45554      0.00000     11.11389         0.000358     -0.002993      0.401228
     10.56943      2.11389     11.11389        -0.012678      0.011782      0.400956
      8.45554      2.11389      9.00000         0.000369      0.014596     -0.421746
     10.56943      0.00000      9.00000        -0.008682     -0.002773     -0.423645
      8.45554      4.22777     11.11389         0.000271      0.049157      0.407366
     10.56943      6.34166     11.11389        -0.115442      0.072100      0.401876
      8.45554      6.34166      9.00000         0.001341      0.102651     -0.359763
     10.56943      4.22777      9.00000        -0.023956      0.029018     -0.419929
      8.45554      8.45554     11.11389        -0.006524     -0.073111      0.683378
     10.56943     10.56943     11.11389        -0.080251      0.005173     -0.191989
      8.45554     10.56943      9.00000         0.006864      0.034905     -0.285559
     10.56943      8.45554      9.00000        -0.124705      0.024168     -0.368033
      8.45554     12.68331     11.11389        -0.003128      0.142054      0.738966
     10.56943     14.79720     11.11389        -0.151166     -0.092321      0.403679
      8.45554     14.79720      9.00000         0.001851     -0.127755     -0.337355
     10.56943     12.68331      9.00000        -0.152238     -0.013054     -0.346638
      8.45554     16.91108     11.11389         0.000847     -0.064657      0.407894
     10.56943     19.02497     11.11389        -0.014597     -0.018406      0.400356
      8.45554     19.02497      9.00000         0.000491     -0.022042     -0.421045
     10.56943     16.91108      9.00000        -0.029065     -0.038036     -0.417813
     12.68331      0.00000     11.11389        -0.012871     -0.001975      0.401545
     14.79720      2.11389     11.11389        -0.012389      0.000297      0.401283
     12.68331      2.11389      9.00000        -0.015161      0.005399     -0.424528
     14.79720      0.00000      9.00000        -0.011022     -0.001288     -0.424961
     12.68331      4.22777     11.11389        -0.030645      0.013065      0.396391
     14.79720      6.34166     11.11389        -0.017337     -0.006413      0.389017
     12.68331      6.34166      9.00000        -0.045458      0.012206     -0.426995
     14.79720      4.22777      9.00000        -0.016948      0.001646     -0.426788
     12.68331      8.45554     11.11389        -0.055992     -0.001229      0.327899
     14.79720     10.56943     11.11389        -0.011525      0.001648      0.362300
     12.68331     10.56943      9.00000        -0.064196      0.005836     -0.441121
     14.79720      8.45554      9.00000        -0.024581     -0.000741     -0.436141
     12.68331     12.68331     11.11389        -0.058291      0.008129      0.319535
     14.79720     14.79720     11.11389        -0.020596      0.007291      0.387320
     12.68331     14.79720      9.00000        -0.054894     -0.013682     -0.425223
     14.79720     12.68331      9.00000        -0.027166      0.003798     -0.436537
     12.68331     16.91108     11.11389        -0.037619     -0.018740      0.395130
     14.79720     19.02497     11.11389        -0.013952     -0.002706      0.400939
     12.68331     19.02497      9.00000        -0.017262     -0.009710     -0.424391
     14.79720     16.91108      9.00000        -0.019971     -0.003256     -0.426841
     16.91108      0.00000     11.11389        -0.006150     -0.000707      0.402732
     19.02497      2.11389     11.11389        -0.000469     -0.002663      0.402413
     16.91108      2.11389      9.00000        -0.006586     -0.001243     -0.425548
     19.02497      0.00000      9.00000        -0.000366     -0.000580     -0.425302
     16.91108      4.22777     11.11389        -0.006610     -0.004251      0.399918
     19.02497      6.34166     11.11389        -0.001125     -0.005835      0.398367
     16.91108      6.34166      9.00000        -0.008840     -0.002859     -0.428618
     19.02497      4.22777      9.00000        -0.000622     -0.003037     -0.426467
     16.91108      8.45554     11.11389        -0.004893     -0.005226      0.391887
     19.02497     10.56943     11.11389        -0.001769      0.000508      0.394736
     16.91108     10.56943      9.00000        -0.008604      0.000951     -0.432697
     19.02497      8.45554      9.00000        -0.001326     -0.002435     -0.429430
     16.91108     12.68331     11.11389        -0.005669      0.006522      0.391405
     19.02497     14.79720     11.11389        -0.001265      0.006283      0.397960
     16.91108     14.79720      9.00000        -0.010154      0.003381     -0.428777
     19.02497     12.68331      9.00000        -0.001410      0.003502     -0.429487
     16.91108     16.91108     11.11389        -0.007713      0.003822      0.399453
     19.02497     19.02497     11.11389        -0.000524      0.001854      0.402255
     16.91108     19.02497      9.00000        -0.007284     -0.000050     -0.425580
     19.02497     16.91108      9.00000        -0.000753      0.002711     -0.426574
 -----------------------------------------------------------------------------------
    total drift:                               -0.000950     -0.006753     -0.217383


--------------------------------------------------------------------------------------------------------



  FREE ENERGIE OF THE ION-ELECTRON SYSTEM (eV)
  ---------------------------------------------------
  free  energy   TOTEN  =     -1348.14541224 eV

  energy  without entropy=    -1348.14541224  energy(sigma->0) =    -1348.14541224



--------------------------------------------------------------------------------------------------------


    POTLOK:  cpu time      1.3697: real time      1.3710


--------------------------------------------------------------------------------------------------------


     LOOP+:  cpu time  17917.7260: real time  17928.2144
    4ORBIT:  cpu time      0.0000: real time      0.0000

 total amount of memory used by VASP MPI-rank0  1295005. kBytes
=======================================================================

   base      :      30000. kBytes
   nonlr-proj:      75038. kBytes
   fftplans  :      61841. kBytes
   grid      :      50022. kBytes
   one-center:        793. kBytes
   HF        :        194. kBytes
   wavefun   :       9732. kBytes
   fock_wrk  :    1067385. kBytes

  
  
 General timing and accounting informations for this job:
 ========================================================
  
                  Total CPU time used (sec):    18053.672
                            User time (sec):    17950.053
                          System time (sec):      103.618
                         Elapsed time (sec):    18112.012
  
                   Maximum memory used (kb):     2717748.
                   Average memory used (kb):          N/A
  
                          Minor page faults:      8781815
                          Major page faults:           50
                 Voluntary context switches:       235801
