 vasp.6.3.0 20Jan22 (build Apr  1 2022 16:44:48) complex                         
 executed on        HPECrayEX_GCC date 2023.01.06  19:11:02
 running  768 mpi-ranks, with    1 threads/rank
 distrk:  each k-point on  384 cores,    2 groups
 distr:  one band on NCORE=   4 cores,   96 groups


--------------------------------------------------------------------------------------------------------


 INCAR:
   SYSTEM = MgO-rocksalt
   ISMEAR = 0
   SIGMA = 0.05
   EDIFF = 1E-6
   ALGO = ALL
   ISTART = 0
   IBRION = -1
   NSW = 0
   ISYM = 2
   METAGGA = R2SCAN
   ENCUT = 520
   PREC = Accurate
   LASPH = .TRUE.
   LREAL = Auto
   ISPIN = 1
   NELM = 200
   NELMIN = 8
   NCORE = 4
   KPAR = 2
   LWAVE = .FALSE.
   LCHARG = .FALSE.

 POTCAR:    PAW_PBE Au 04Oct2007                  
 POTCAR:    PAW_PBE Au 04Oct2007                  
   SHA256 =  d0044ae04e2bdce24051b198fc5c053d722a5bc6fe3c3b100514a13fc5d2db88 Au/POTCAR             
   COPYR  = (c) Copyright 04Oct2007 Georg Kresse                                                    
   COPYR  = This file is part of the software VASP. Any use, copying, and all other rights are regul
   COPYR  = If you do not have a valid VASP license, you may not use, copy or distribute this file. 
   VRHFIN =Au: s1d10                                                                                
   LEXCH  = PE                                                                                      
   EATOM  =   926.0867 eV,   68.0654 Ry                                                             
                                                                                                    
   TITEL  = PAW_PBE Au 04Oct2007                                                                    
   LULTRA =        F    use ultrasoft PP ?                                                          
   IUNSCR =        1    unscreen: 0-lin 1-nonlin 2-no                                               
   RPACOR =    2.330    partial core radius                                                         
   POMASS =  196.966; ZVAL   =   11.000    mass and valenz                                          
   RCORE  =    2.500    outmost cutoff radius                                                       
   RWIGS  =    2.840; RWIGS  =    1.503    wigner-seitz radius (au A)                               
   ENMAX  =  229.943; ENMIN  =  172.457 eV                                                          
   ICORE  =        3    local potential                                                             
   LCOR   =        T    correct aug charges                                                         
   LPAW   =        T    paw PP                                                                      
   EAUG   =  356.670                                                                                
   DEXC   =    0.000                                                                                
   RMAX   =    2.562    core radius for proj-oper                                                   
   RAUG   =    1.300    factor for augmentation sphere                                              
   RDEP   =    2.598    radius for radial grids                                                     
   RDEPT  =    2.193    core radius for aug-charge                                                  
                                                                                                    
   Atomic configuration                                                                             
   16 entries                                                                                       
     n  l   j            E        occ.                                                              
     1  0  0.50    -80748.5001   2.0000                                                             
     2  0  0.50    -14244.7466   2.0000                                                             
     2  1  1.50    -12310.9591   6.0000                                                             
     3  0  0.50     -3362.1768   2.0000                                                             
     3  1  1.50     -2801.5463   6.0000                                                             
     3  2  2.50     -2203.8206  10.0000                                                             
     4  0  0.50      -729.8168   2.0000                                                             
     4  1  1.50      -546.0527   6.0000                                                             
     4  2  2.50      -325.7302  10.0000                                                             
     4  3  3.50       -81.1472  14.0000                                                             
     5  0  0.50      -108.3201   2.0000                                                             
     5  1  1.50       -59.7479   6.0000                                                             
     5  2  2.50        -6.8783  10.0000                                                             
     6  0  0.50        -5.7602   1.0000                                                             
     6  1  1.50        -6.8029   0.0000                                                             
     5  3  2.50        -1.3606   0.0000                                                             
   Description                                                                                      
     l       E           TYP  RCUT    TYP  RCUT                                                     
     2     -6.8782861     23  2.500                                                                 
     2     -8.2388687     23  2.500                                                                 
     0     -5.7601759     23  2.500                                                                 
     0     -0.8493231     23  2.500                                                                 
     1     -2.7211652     23  2.500                                                                 
     1     27.2116520     23  2.500                                                                 
     3     -1.3605826     23  2.500                                                                 
  local pseudopotential read in
  partial core-charges read in
  partial kinetic energy density read in
  atomic valenz-charges read in
  non local Contribution for L=           2  read in
    real space projection operators read in
  non local Contribution for L=           2  read in
    real space projection operators read in
  non local Contribution for L=           0  read in
    real space projection operators read in
  non local Contribution for L=           0  read in
    real space projection operators read in
  non local Contribution for L=           1  read in
    real space projection operators read in
  non local Contribution for L=           1  read in
    real space projection operators read in
    PAW grid and wavefunctions read in

   number of l-projection  operators is LMAX  =           6
   number of lm-projection operators is LMMAX =          18

 -----------------------------------------------------------------------------
|                                                                             |
|               ----> ADVICE to this user running VASP <----                  |
|                                                                             |
|     You have a (more or less) 'small supercell' and for smaller cells       |
|     it is recommended to use the reciprocal-space projection scheme!        |
|     The real-space optimization is not efficient for small cells and it     |
|     is also less accurate ...                                               |
|     Therefore, set LREAL=.FALSE. in the INCAR file.                         |
|                                                                             |
 -----------------------------------------------------------------------------

 Optimization of the real space projectors (new method)

 maximal supplied QI-value         = 15.12
 optimisation between [QCUT,QGAM] = [ 11.64, 23.28] = [ 37.95,151.78] Ry 
 Optimized for a Real-space Cutoff    1.49 Angstroem

   l    n(q)    QCUT    max X(q) W(low)/X(q) W(high)/X(q)  e(spline) 
   2      9    11.641    60.898    0.24E-03    0.10E-03    0.19E-06
   2      9    11.641    58.894    0.25E-03    0.10E-03    0.19E-06
   0     10    11.641   109.617    0.73E-04    0.33E-04    0.11E-06
   0     10    11.641    75.026    0.71E-04    0.32E-04    0.11E-06
   1     10    11.641    16.344    0.27E-04    0.97E-04    0.16E-06
   1     10    11.641    10.160    0.23E-04    0.77E-04    0.13E-06
  PAW_PBE Au 04Oct2007                  :
 energy of atom  1       EATOM= -926.0867
 kinetic energy error for atom=    0.0034 (will be added to EATOM!!)


 POSCAR: Au
  positions in direct lattice
  velocities in cartesian coordinates

 METAGGA = R2SCA    LMAXTAU =  6    LMIXTAU =  F

 exchange correlation table for  LEXCH =        8
   RHO(1)=    0.500       N(1)  =     2000
   RHO(2)=  100.500       N(2)  =     4000



--------------------------------------------------------------------------------------------------------


 ion  position               nearest neighbor table
   1  0.521  0.574  0.417-   2 2.67   6 2.75   5 2.75
   2  0.475  0.459  0.466-   6 2.67   4 2.67   3 2.67   1 2.67   5 2.67
   3  0.529  0.426  0.583-   2 2.67   4 2.75   5 2.75
   4  0.401  0.474  0.575-   2 2.67   3 2.75   6 2.75
   5  0.604  0.487  0.485-   2 2.67   3 2.75   1 2.75
   6  0.396  0.566  0.473-   2 2.67   1 2.75   4 2.75

  LATTYP: Found a simple cubic cell.
 ALAT       =    20.0000000000
  
  Lattice vectors:
  
 A1 = (  20.0000000000,   0.0000000000,   0.0000000000)
 A2 = (   0.0000000000,  20.0000000000,   0.0000000000)
 A3 = (   0.0000000000,   0.0000000000,  20.0000000000)


Analysis of symmetry for initial positions (statically):
=====================================================================
 Subroutine PRICEL returns:
 Original cell was already a primitive cell.
 

 Routine SETGRP: Setting up the symmetry group for a 
 simple cubic supercell.


 Subroutine GETGRP returns: Found  1 space group operations
 (whereof  1 operations were pure point group operations)
 out of a pool of 48 trial point group operations.


The static configuration has the point symmetry C_1 .


Analysis of symmetry for dynamics (positions and initial velocities):
=====================================================================
 Subroutine PRICEL returns:
 Original cell was already a primitive cell.
 

 Routine SETGRP: Setting up the symmetry group for a 
 simple cubic supercell.


 Subroutine GETGRP returns: Found  1 space group operations
 (whereof  1 operations were pure point group operations)
 out of a pool of 48 trial point group operations.


The dynamic configuration has the point symmetry C_1 .


 Subroutine INISYM returns: Found  1 space group operations
 (whereof  1 operations are pure point group operations),
 and found     1 'primitive' translations


----------------------------------------------------------------------------------------

                                     Primitive cell                                     

  volume of cell :    8000.0000

  direct lattice vectors                    reciprocal lattice vectors
    20.000000000  0.000000000  0.000000000     0.050000000  0.000000000  0.000000000
     0.000000000 20.000000000  0.000000000     0.000000000  0.050000000  0.000000000
     0.000000000  0.000000000 20.000000000     0.000000000  0.000000000  0.050000000

  length of vectors
    20.000000000 20.000000000 20.000000000     0.050000000  0.050000000  0.050000000

  position of ions in fractional coordinates (direct lattice)
     0.521136731  0.573555906  0.416539994
     0.474852389  0.458505140  0.465676283
     0.529321640  0.425810224  0.582962466
     0.400761804  0.474322039  0.575456518
     0.603722748  0.487159467  0.484779740
     0.395695408  0.565626737  0.472586334

  ion indices of the primitive-cell ions
   primitive index   ion index
                 1           1
                 2           2
                 3           3
                 4           4
                 5           5
                 6           6

----------------------------------------------------------------------------------------



 KPOINTS: KPOINTS created by Atomic Simulation Env

Automatic generation of k-mesh.
 Grid dimensions read from file:
 generate k-points for:    1    1    1

 Generating k-lattice:

  Cartesian coordinates                     Fractional coordinates (reciprocal lattice)
     0.050000000  0.000000000  0.000000000     1.000000000  0.000000000  0.000000000
     0.000000000  0.050000000  0.000000000     0.000000000  1.000000000  0.000000000
     0.000000000  0.000000000  0.050000000     0.000000000  0.000000000  1.000000000

  Length of vectors
     0.050000000  0.050000000  0.050000000

  Shift w.r.t. Gamma in fractional coordinates (k-lattice)
     0.000000000  0.000000000  0.000000000

 
 Subroutine IBZKPT returns following result:
 ===========================================
 
 Found      1 irreducible k-points:
 
 Following reciprocal coordinates:
            Coordinates               Weight
  0.000000  0.000000  0.000000      1.000000
 
 Following cartesian coordinates:
            Coordinates               Weight
  0.000000  0.000000  0.000000      1.000000
 


--------------------------------------------------------------------------------------------------------




 Dimension of arrays:
   k-points           NKPTS =      1   k-points in BZ     NKDIM =      1   number of bands    NBANDS=     96
   number of dos      NEDOS =    301   number of ions     NIONS =      6
   non local maximal  LDIM  =      6   non local SUM 2l+1 LMDIM =     18
   total plane-waves  NPLWV = ******
   max r-space proj   IRMAX =   5885   max aug-charges    IRDMAX=  25995
   dimension x,y,z NGX =   150 NGY =  150 NGZ =  150
   dimension x,y,z NGXF=   300 NGYF=  300 NGZF=  300
   support grid    NGXF=   300 NGYF=  300 NGZF=  300
   ions per type =               6
   NGX,Y,Z   is equivalent  to a cutoff of  12.47, 12.47, 12.47 a.u.
   NGXF,Y,Z  is equivalent  to a cutoff of  24.94, 24.94, 24.94 a.u.

 SYSTEM =  MgO-rocksalt                            
 POSCAR =  Au                                      

 Startparameter for this run:
   NWRITE =      2    write-flag & timer
   PREC   = accura    normal or accurate (medium, high low for compatibility)
   ISTART =      0    job   : 0-new  1-cont  2-samecut
   ICHARG =      2    charge: 1-file 2-atom 10-const
   ISPIN  =      1    spin polarized calculation?
   LNONCOLLINEAR =      F non collinear calculations
   LSORBIT =      F    spin-orbit coupling
   INIWAV =      1    electr: 0-lowe 1-rand  2-diag
   LASPH  =      T    aspherical Exc in radial PAW
 Electronic Relaxation 1
   ENCUT  =  520.0 eV  38.22 Ry    6.18 a.u.  37.19 37.19 37.19*2*pi/ulx,y,z
   ENINI  =  520.0     initial cutoff
   ENAUG  =  356.7 eV  augmentation charge cutoff
   NELM   =    200;   NELMIN=  8; NELMDL= -5     # of ELM steps 
   EDIFF  = 0.1E-05   stopping-criterion for ELM
   LREAL  =      T    real-space projection
   NLSPLINE    = F    spline interpolate recip. space projectors
   LCOMPAT=      F    compatible to vasp.4.4
   GGA_COMPAT  = T    GGA compatible to vasp.4.4-vasp.4.6
   LMAXPAW     = -100 max onsite density
   LMAXMIX     =    2 max onsite mixed and CHGCAR
   VOSKOWN=      0    Vosko Wilk Nusair interpolation
   ROPT   =   -0.00025
 Ionic relaxation
   EDIFFG = 0.1E-04   stopping-criterion for IOM
   NSW    =      0    number of steps for IOM
   NBLOCK =      1;   KBLOCK =      1    inner block; outer block 
   IBRION =     -1    ionic relax: 0-MD 1-quasi-New 2-CG
   NFREE  =      0    steps in history (QN), initial steepest desc. (CG)
   ISIF   =      2    stress and relaxation
   IWAVPR =     10    prediction:  0-non 1-charg 2-wave 3-comb
   ISYM   =      2    0-nonsym 1-usesym 2-fastsym
   LCORR  =      T    Harris-Foulkes like correction to forces

   POTIM  = 0.5000    time-step for ionic-motion
   TEIN   =    0.0    initial temperature
   TEBEG  =    0.0;   TEEND  =   0.0 temperature during run
   SMASS  =  -3.00    Nose mass-parameter (am)
   estimated Nose-frequenzy (Omega)   =  0.10E-29 period in steps = 0.13E+47 mass=  -0.914E-26a.u.
   SCALEE = 1.0000    scale energy and forces
   NPACO  =    256;   APACO  = 10.0  distance and # of slots for P.C.
   PSTRESS=    0.0 pullay stress

  Mass of Ions in am
   POMASS = 196.97
  Ionic Valenz
   ZVAL   =  11.00
  Atomic Wigner-Seitz radii
   RWIGS  =  -1.00
  virtual crystal weights 
   VCA    =   1.00
   NELECT =      66.0000    total number of electrons
   NUPDOWN=      -1.0000    fix difference up-down

 DOS related values:
   EMIN   =  10.00;   EMAX   =-10.00  energy-range for DOS
   EFERMI =   0.00
   ISMEAR =     0;   SIGMA  =   0.05  broadening in eV -4-tet -1-fermi 0-gaus

 Electronic relaxation 2 (details)
   IALGO  =     58    algorithm
   LDIAG  =      T    sub-space diagonalisation (order eigenvalues)
   LSUBROT=      F    optimize rotation matrix (better conditioning)
   TURBO    =      0    0=normal 1=particle mesh
   IRESTART =      0    0=no restart 2=restart with 2 vectors
   NREBOOT  =      0    no. of reboots
   NMIN     =      0    reboot dimension
   EREF     =   0.00    reference energy to select bands
   IMIX   =      4    mixing-type and parameters
     AMIX     =   0.40;   BMIX     =  1.00
     AMIX_MAG =   1.60;   BMIX_MAG =  1.00
     AMIN     =   0.10
     WC   =   100.;   INIMIX=   1;  MIXPRE=   1;  MAXMIX= -45

 Intra band minimization:
   WEIMIN = 0.0000     energy-eigenvalue tresh-hold
   EBREAK =  0.26E-08  absolut break condition
   DEPER  =   0.30     relativ break condition  

   TIME   =   0.40     timestep for ELM

  volume/ion in A,a.u.               =    1333.33      8997.78
  Fermi-wavevector in a.u.,A,eV,Ry     =   0.330795  0.625113  1.488826  0.109426
  Thomas-Fermi vector in A             =   1.226404

 Write flags
   LWAVE        =      F    write WAVECAR
   LDOWNSAMPLE  =      F    k-point downsampling of WAVECAR
   LCHARG       =      F    write CHGCAR
   LVTOT        =      F    write LOCPOT, total local potential
   LVHAR        =      F    write LOCPOT, Hartree potential only
   LELF         =      F    write electronic localiz. function (ELF)
   LORBIT       =      0    0 simple, 1 ext, 2 COOP (PROOUT), +10 PAW based schemes


 Dipole corrections
   LMONO  =      F    monopole corrections only (constant potential shift)
   LDIPOL =      F    correct potential (dipole corrections)
   IDIPOL =      0    1-x, 2-y, 3-z, 4-all directions 
   EPSILON=  1.0000000 bulk dielectric constant

 Exchange correlation treatment:
   GGA     =    --    GGA type
   LEXCH   =     8    internal setting for exchange type
   LIBXC   =     F    Libxc                    
   VOSKOWN =     0    Vosko Wilk Nusair interpolation
   LHFCALC =     F    Hartree Fock is set to
   LHFONE  =     F    Hartree Fock one center treatment
   AEXX    =    0.0000 exact exchange contribution

 Linear response parameters
   LEPSILON=     F    determine dielectric tensor
   LRPA    =     F    only Hartree local field effects (RPA)
   LNABLA  =     F    use nabla operator in PAW spheres
   LVEL    =     F    velocity operator in full k-point grid
   CSHIFT  =0.1000    complex shift for real part using Kramers Kronig
   OMEGAMAX=  -1.0    maximum frequency
   DEG_THRESHOLD= 0.2000000E-02 threshold for treating states as degnerate
   RTIME   =   -0.100 relaxation time in fs
  (WPLASMAI=    0.000 imaginary part of plasma frequency in eV, 0.658/RTIME)
   DFIELD  = 0.0000000 0.0000000 0.0000000 field for delta impulse in time

  Optional k-point grid parameters
   LKPOINTS_OPT  =     F    use optional k-point grid
   KPOINTS_OPT_MODE=     1    mode for optional k-point grid

 Orbital magnetization related:
   ORBITALMAG=     F  switch on orbital magnetization
   LCHIMAG   =     F  perturbation theory with respect to B field
   DQ        =  0.001000  dq finite difference perturbation B field
   LLRAUG    =     F  two centre corrections for induced B field



--------------------------------------------------------------------------------------------------------


 Static calculation
 charge density and potential will be updated during run
 non-spin polarized calculation
 Conjugate gradient for all bands (Freysoldt, et al. PRB 79, 241103 (2009))
 preconditioned conjugated gradient                                        
 perform sub-space diagonalisation
    before iterative eigenvector-optimisation
 modified Broyden-mixing scheme, WC =      100.0
 initial mixing is a Kerker type mixing with AMIX =  0.4000 and BMIX =      1.0000
 Hartree-type preconditioning will be used
 using additional bands           63
 real space projection scheme for non local part
 use partial core corrections
 no Harris-corrections to forces 
 use gradient corrections 
 use of overlap-Matrix (Vanderbilt PP)
 Gauss-broadening in eV      SIGMA  =   0.05


--------------------------------------------------------------------------------------------------------


  energy-cutoff  :      520.00
  volume of cell :     8000.00
      direct lattice vectors                 reciprocal lattice vectors
    20.000000000  0.000000000  0.000000000     0.050000000  0.000000000  0.000000000
     0.000000000 20.000000000  0.000000000     0.000000000  0.050000000  0.000000000
     0.000000000  0.000000000 20.000000000     0.000000000  0.000000000  0.050000000

  length of vectors
    20.000000000 20.000000000 20.000000000     0.050000000  0.050000000  0.050000000



 k-points in units of 2pi/SCALE and weight: KPOINTS created by Atomic Simulation Env
   0.00000000  0.00000000  0.00000000       1.000

 k-points in reciprocal lattice and weights: KPOINTS created by Atomic Simulation Env
   0.00000000  0.00000000  0.00000000       1.000

 position of ions in fractional coordinates (direct lattice) 
   0.52113673  0.57355591  0.41653999
   0.47485239  0.45850514  0.46567628
   0.52932164  0.42581022  0.58296247
   0.40076180  0.47432204  0.57545652
   0.60372275  0.48715947  0.48477974
   0.39569541  0.56562674  0.47258633

 position of ions in cartesian coordinates  (Angst):
  10.42273462 11.47111812  8.33079989
   9.49704778  9.17010280  9.31352565
  10.58643280  8.51620448 11.65924932
   8.01523608  9.48644078 11.50913036
  12.07445496  9.74318934  9.69559481
   7.91390815 11.31253474  9.45172669



--------------------------------------------------------------------------------------------------------


 k-point   1 :   0.0000 0.0000 0.0000  plane waves:  215503

 maximum and minimum number of plane-waves per node :     53900    53857

 maximum number of plane-waves:    215503
 maximum index in each direction: 
   IXMAX=   37   IYMAX=   37   IZMAX=   37
   IXMIN=  -37   IYMIN=  -37   IZMIN=  -37


 real space projection operators:
  total allocation   :       4775.20 KBytes
  max/ min on nodes  :       1195.31       1192.92


 parallel 3D FFT for wavefunctions:
    minimum data exchange during FFTs selected (reduces bandwidth)
 parallel 3D FFT for charge:
    minimum data exchange during FFTs selected (reduces bandwidth)


 total amount of memory used by VASP MPI-rank0   129754. kBytes
=======================================================================

   base      :      30000. kBytes
   nonlr-proj:       2063. kBytes
   fftplans  :      28354. kBytes
   grid      :      66714. kBytes
   one-center:         31. kBytes
   wavefun   :       2592. kBytes

     INWAV:  cpu time      0.0000: real time      0.0000
 Broyden mixing: mesh for mixing (old mesh)
   NGX = 75   NGY = 75   NGZ = 75
  (NGX  =300   NGY  =300   NGZ  =300)
  gives a total of 421875 points

 initial charge density was supplied:
 charge density of overlapping atoms calculated
 number of electron      66.0000000 magnetization 
 keeping initial charge density in first step


--------------------------------------------------------------------------------------------------------


 Maximum index for non-local projection operator         1419
 Maximum index for augmentation-charges            0 (set IRDMAX)


--------------------------------------------------------------------------------------------------------


 First call to EWALD:  gamma=   0.089
 Maximum number of real-space cells 3x 3x 3
 Maximum number of reciprocal cells 3x 3x 3

    FEWALD:  cpu time      0.0017: real time      0.0017


--------------------------------------- Iteration      1(   1)  ---------------------------------------


    POTLOK:  cpu time      0.3096: real time      0.3099
    SETDIJ:  cpu time      0.6358: real time      0.6360
    TRIAL :  cpu time      1.2887: real time      1.2893
    CORREC:  cpu time      0.0014: real time      0.0014
    --------------------------------------------
      LOOP:  cpu time      2.2368: real time      2.2378

 eigenvalue-minimisations  :   192
 total energy-change (2. order) : 0.2030400E+03  (-0.1454863E+04)
 number of electron      66.0000000 magnetization 
 augmentation part       66.0000000 magnetization 

 Free energy of the ion-electron system (eV)
  ---------------------------------------------------
  alpha Z        PSCENC =         5.24158223
  Ewald energy   TEWEN  =      4015.90966112
  -Hartree energ DENC   =     -9337.25128920
  -exchange      EXHF   =         0.00000000
  -V(xc)+E(xc)   XCENC  =       144.56497901
  PAW double counting   =      5167.21956229    -5351.81320196
  entropy T*S    EENTRO =        -0.04862680
  eigenvalues    EBANDS =         2.71738145
  atomic energy  EATOM  =      5556.49993434
  ---------------------------------------------------
  free energy    TOTEN  =       203.03998247 eV

  energy without entropy =      203.08860927  energy(sigma->0) =      203.06429587


--------------------------------------------------------------------------------------------------------




--------------------------------------- Iteration      1(   2)  ---------------------------------------


    TRIAL :  cpu time      2.9972: real time      2.9980
    CORREC:  cpu time      0.0005: real time      0.0005
    --------------------------------------------
      LOOP:  cpu time      3.0005: real time      3.0056

 eigenvalue-minimisations  :   384
 total energy-change (2. order) :-0.4916112E+03  (-0.4913020E+03)
 number of electron      66.0000000 magnetization 
 augmentation part       66.0000000 magnetization 

 Free energy of the ion-electron system (eV)
  ---------------------------------------------------
  alpha Z        PSCENC =         5.24158223
  Ewald energy   TEWEN  =      4015.90966112
  -Hartree energ DENC   =     -9337.25128920
  -exchange      EXHF   =         0.00000000
  -V(xc)+E(xc)   XCENC  =       144.56497901
  PAW double counting   =      5167.21956229    -5351.81320196
  entropy T*S    EENTRO =        -0.00000000
  eigenvalues    EBANDS =      -488.94242481
  atomic energy  EATOM  =      5556.49993434
  ---------------------------------------------------
  free energy    TOTEN  =      -288.57119699 eV

  energy without entropy =     -288.57119699  energy(sigma->0) =     -288.57119699


--------------------------------------------------------------------------------------------------------




--------------------------------------- Iteration      1(   3)  ---------------------------------------


    TRIAL :  cpu time      1.2539: real time      1.2551
    CORREC:  cpu time      0.0004: real time      0.0004
    --------------------------------------------
      LOOP:  cpu time      1.2576: real time      1.2623

 eigenvalue-minimisations  :   192
 total energy-change (2. order) :-0.2987917E+02  (-0.2987917E+02)
 number of electron      66.0000000 magnetization 
 augmentation part       66.0000000 magnetization 

 Free energy of the ion-electron system (eV)
  ---------------------------------------------------
  alpha Z        PSCENC =         5.24158223
  Ewald energy   TEWEN  =      4015.90966112
  -Hartree energ DENC   =     -9337.25128920
  -exchange      EXHF   =         0.00000000
  -V(xc)+E(xc)   XCENC  =       144.56497901
  PAW double counting   =      5167.21956229    -5351.81320196
  entropy T*S    EENTRO =        -0.00000000
  eigenvalues    EBANDS =      -518.82159274
  atomic energy  EATOM  =      5556.49993434
  ---------------------------------------------------
  free energy    TOTEN  =      -318.45036491 eV

  energy without entropy =     -318.45036491  energy(sigma->0) =     -318.45036491


--------------------------------------------------------------------------------------------------------




--------------------------------------- Iteration      1(   4)  ---------------------------------------


    TRIAL :  cpu time      1.2545: real time      1.2550
    CORREC:  cpu time      0.0007: real time      0.0007
    --------------------------------------------
      LOOP:  cpu time      1.2620: real time      1.2626

 eigenvalue-minimisations  :   192
 total energy-change (2. order) :-0.2291724E+00  (-0.2291724E+00)
 number of electron      66.0000000 magnetization 
 augmentation part       66.0000000 magnetization 

 Free energy of the ion-electron system (eV)
  ---------------------------------------------------
  alpha Z        PSCENC =         5.24158223
  Ewald energy   TEWEN  =      4015.90966112
  -Hartree energ DENC   =     -9337.25128920
  -exchange      EXHF   =         0.00000000
  -V(xc)+E(xc)   XCENC  =       144.56497901
  PAW double counting   =      5167.21956229    -5351.81320196
  entropy T*S    EENTRO =        -0.00000000
  eigenvalues    EBANDS =      -519.05076518
  atomic energy  EATOM  =      5556.49993434
  ---------------------------------------------------
  free energy    TOTEN  =      -318.67953735 eV

  energy without entropy =     -318.67953735  energy(sigma->0) =     -318.67953735


--------------------------------------------------------------------------------------------------------




--------------------------------------- Iteration      1(   5)  ---------------------------------------


    TRIAL :  cpu time      2.9058: real time      2.9065
    CORREC:  cpu time      0.0003: real time      0.0003
    CHARGE:  cpu time      0.2544: real time      0.2550
    --------------------------------------------
      LOOP:  cpu time      3.1638: real time      3.1690

 eigenvalue-minimisations  :   384
 total energy-change (2. order) :-0.5036630E-02  (-0.5036630E-02)
 number of electron      66.0000000 magnetization 
 augmentation part       23.5916586 magnetization 

 Free energy of the ion-electron system (eV)
  ---------------------------------------------------
  alpha Z        PSCENC =         5.24158223
  Ewald energy   TEWEN  =      4015.90966112
  -Hartree energ DENC   =     -9337.25128920
  -exchange      EXHF   =         0.00000000
  -V(xc)+E(xc)   XCENC  =       144.56497901
  PAW double counting   =      5167.21956229    -5351.81320196
  entropy T*S    EENTRO =        -0.00000000
  eigenvalues    EBANDS =      -519.05580181
  atomic energy  EATOM  =      5556.49993434
  ---------------------------------------------------
  free energy    TOTEN  =      -318.68457398 eV

  energy without entropy =     -318.68457398  energy(sigma->0) =     -318.68457398


--------------------------------------------------------------------------------------------------------




--------------------------------------- Iteration      1(   6)  ---------------------------------------


    POTLOK:  cpu time      0.2820: real time      0.2820
    SETDIJ:  cpu time      0.6431: real time      0.6432
    TRIAL :  cpu time      2.0795: real time      2.0801
    CORREC:  cpu time      1.4546: real time      1.4549
    CHARGE:  cpu time      0.2489: real time      0.2489
    --------------------------------------------
      LOOP:  cpu time      4.7173: real time      4.7218

 eigenvalue-minimisations  :     0
 total energy-change (2. order) : 0.2727464E+02  (-0.2711494E+01)
 number of electron      65.9999999 magnetization 
 augmentation part       24.5033458 magnetization 

 Free energy of the ion-electron system (eV)
  ---------------------------------------------------
  alpha Z        PSCENC =         5.24158223
  Ewald energy   TEWEN  =      4015.90966112
  -Hartree energ DENC   =     -9257.61877086
  -exchange      EXHF   =         0.00000000
  -V(xc)+E(xc)   XCENC  =       159.50064592
  PAW double counting   =      5724.85139960    -5919.60675364
  entropy T*S    EENTRO =        -0.00000000
  eigenvalues    EBANDS =      -576.18763596
  atomic energy  EATOM  =      5556.49993434
  ---------------------------------------------------
  free energy    TOTEN  =      -291.40993726 eV

  energy without entropy =     -291.40993726  energy(sigma->0) =     -291.40993726


--------------------------------------------------------------------------------------------------------




--------------------------------------- Iteration      1(   7)  ---------------------------------------


    POTLOK:  cpu time      0.2830: real time      0.2831
    SETDIJ:  cpu time      0.6339: real time      0.6346
    TRIAL :  cpu time      0.9691: real time      0.9693
    CORREC:  cpu time      1.4459: real time      1.4464
    CHARGE:  cpu time      0.2500: real time      0.2500
    --------------------------------------------
      LOOP:  cpu time      3.5941: real time      3.5958

 eigenvalue-minimisations  :     0
 total energy-change (2. order) :-0.2703266E+01  (-0.2045505E+00)
 number of electron      65.9999999 magnetization 
 augmentation part       24.5278611 magnetization 

 Free energy of the ion-electron system (eV)
  ---------------------------------------------------
  alpha Z        PSCENC =         5.24158223
  Ewald energy   TEWEN  =      4015.90966112
  -Hartree energ DENC   =     -9360.36686150
  -exchange      EXHF   =         0.00000000
  -V(xc)+E(xc)   XCENC  =       163.35703828
  PAW double counting   =      5825.49758932    -6019.09003501
  entropy T*S    EENTRO =        -0.00000000
  eigenvalues    EBANDS =      -481.16211250
  atomic energy  EATOM  =      5556.49993434
  ---------------------------------------------------
  free energy    TOTEN  =      -294.11320373 eV

  energy without entropy =     -294.11320373  energy(sigma->0) =     -294.11320373


--------------------------------------------------------------------------------------------------------




--------------------------------------- Iteration      1(   8)  ---------------------------------------


    POTLOK:  cpu time      0.2835: real time      0.2835
    SETDIJ:  cpu time      0.6407: real time      0.6410
    TRIAL :  cpu time      0.9696: real time      0.9699
    CORREC:  cpu time      1.4513: real time      1.4516
    CHARGE:  cpu time      0.2496: real time      0.2499
    --------------------------------------------
      LOOP:  cpu time      3.6011: real time      3.6071

 eigenvalue-minimisations  :     0
 total energy-change (2. order) :-0.2040068E+00  (-0.6120672E-01)
 number of electron      65.9999999 magnetization 
 augmentation part       24.5674519 magnetization 

 Free energy of the ion-electron system (eV)
  ---------------------------------------------------
  alpha Z        PSCENC =         5.24158223
  Ewald energy   TEWEN  =      4015.90966112
  -Hartree energ DENC   =     -9334.62075389
  -exchange      EXHF   =         0.00000000
  -V(xc)+E(xc)   XCENC  =       162.98699230
  PAW double counting   =      5796.70754099    -5990.42809976
  entropy T*S    EENTRO =        -0.00000000
  eigenvalues    EBANDS =      -506.61406785
  atomic energy  EATOM  =      5556.49993434
  ---------------------------------------------------
  free energy    TOTEN  =      -294.31721053 eV

  energy without entropy =     -294.31721053  energy(sigma->0) =     -294.31721053


--------------------------------------------------------------------------------------------------------




--------------------------------------- Iteration      1(   9)  ---------------------------------------


    POTLOK:  cpu time      0.2843: real time      0.2843
    SETDIJ:  cpu time      0.6335: real time      0.6338
    TRIAL :  cpu time      0.9685: real time      0.9687
    CORREC:  cpu time      1.4429: real time      1.4432
    CHARGE:  cpu time      0.2473: real time      0.2473
    --------------------------------------------
      LOOP:  cpu time      3.5893: real time      3.5902

 eigenvalue-minimisations  :     0
 total energy-change (2. order) :-0.6148040E-01  (-0.2210235E-01)
 number of electron      65.9999999 magnetization 
 augmentation part       24.5765331 magnetization 

 Free energy of the ion-electron system (eV)
  ---------------------------------------------------
  alpha Z        PSCENC =         5.24158223
  Ewald energy   TEWEN  =      4015.90966112
  -Hartree energ DENC   =     -9344.09089075
  -exchange      EXHF   =         0.00000000
  -V(xc)+E(xc)   XCENC  =       163.10469264
  PAW double counting   =      5817.95509746    -6011.66659820
  entropy T*S    EENTRO =        -0.00000000
  eigenvalues    EBANDS =      -497.33216978
  atomic energy  EATOM  =      5556.49993434
  ---------------------------------------------------
  free energy    TOTEN  =      -294.37869093 eV

  energy without entropy =     -294.37869093  energy(sigma->0) =     -294.37869093


--------------------------------------------------------------------------------------------------------




--------------------------------------- Iteration      1(  10)  ---------------------------------------


    POTLOK:  cpu time      0.2835: real time      0.2835
    SETDIJ:  cpu time      0.6302: real time      0.6311
    TRIAL :  cpu time      0.9693: real time      0.9695
    CORREC:  cpu time      1.4433: real time      1.4439
    CHARGE:  cpu time      0.2490: real time      0.2490
    --------------------------------------------
      LOOP:  cpu time      3.5875: real time      3.5895

 eigenvalue-minimisations  :     0
 total energy-change (2. order) :-0.2200527E-01  (-0.6096883E-02)
 number of electron      65.9999999 magnetization 
 augmentation part       24.5767052 magnetization 

 Free energy of the ion-electron system (eV)
  ---------------------------------------------------
  alpha Z        PSCENC =         5.24158223
  Ewald energy   TEWEN  =      4015.90966112
  -Hartree energ DENC   =     -9343.39038356
  -exchange      EXHF   =         0.00000000
  -V(xc)+E(xc)   XCENC  =       163.13680059
  PAW double counting   =      5839.32140078    -6032.81829872
  entropy T*S    EENTRO =        -0.00000000
  eigenvalues    EBANDS =      -498.30139300
  atomic energy  EATOM  =      5556.49993434
  ---------------------------------------------------
  free energy    TOTEN  =      -294.40069621 eV

  energy without entropy =     -294.40069621  energy(sigma->0) =     -294.40069621


--------------------------------------------------------------------------------------------------------




--------------------------------------- Iteration      1(  11)  ---------------------------------------


    POTLOK:  cpu time      0.2839: real time      0.2839
    SETDIJ:  cpu time      0.6392: real time      0.6395
    TRIAL :  cpu time      0.9654: real time      0.9657
    CORREC:  cpu time      1.4471: real time      1.4474
    CHARGE:  cpu time      0.2490: real time      0.2490
    --------------------------------------------
      LOOP:  cpu time      3.5952: real time      3.5964

 eigenvalue-minimisations  :     0
 total energy-change (2. order) :-0.6112013E-02  (-0.1532488E-02)
 number of electron      65.9999999 magnetization 
 augmentation part       24.5836780 magnetization 

 Free energy of the ion-electron system (eV)
  ---------------------------------------------------
  alpha Z        PSCENC =         5.24158223
  Ewald energy   TEWEN  =      4015.90966112
  -Hartree energ DENC   =     -9342.74223475
  -exchange      EXHF   =         0.00000000
  -V(xc)+E(xc)   XCENC  =       163.12595496
  PAW double counting   =      5850.94414143    -6044.31297165
  entropy T*S    EENTRO =        -0.00000000
  eigenvalues    EBANDS =      -499.07287590
  atomic energy  EATOM  =      5556.49993434
  ---------------------------------------------------
  free energy    TOTEN  =      -294.40680822 eV

  energy without entropy =     -294.40680822  energy(sigma->0) =     -294.40680822


--------------------------------------------------------------------------------------------------------




--------------------------------------- Iteration      1(  12)  ---------------------------------------


    POTLOK:  cpu time      0.2813: real time      0.2815
    SETDIJ:  cpu time      0.6384: real time      0.6385
    TRIAL :  cpu time      0.9680: real time      0.9683
    CORREC:  cpu time      1.4550: real time      1.4555
    CHARGE:  cpu time      0.2493: real time      0.2493
    --------------------------------------------
      LOOP:  cpu time      3.6010: real time      3.6060

 eigenvalue-minimisations  :     0
 total energy-change (2. order) :-0.1533535E-02  (-0.3199901E-03)
 number of electron      65.9999999 magnetization 
 augmentation part       24.5834434 magnetization 

 Free energy of the ion-electron system (eV)
  ---------------------------------------------------
  alpha Z        PSCENC =         5.24158223
  Ewald energy   TEWEN  =      4015.90966112
  -Hartree energ DENC   =     -9343.85320299
  -exchange      EXHF   =         0.00000000
  -V(xc)+E(xc)   XCENC  =       163.16110751
  PAW double counting   =      5858.71303862    -6052.02815939
  entropy T*S    EENTRO =        -0.00000000
  eigenvalues    EBANDS =      -498.05230320
  atomic energy  EATOM  =      5556.49993434
  ---------------------------------------------------
  free energy    TOTEN  =      -294.40834176 eV

  energy without entropy =     -294.40834176  energy(sigma->0) =     -294.40834176


--------------------------------------------------------------------------------------------------------




--------------------------------------- Iteration      1(  13)  ---------------------------------------


    POTLOK:  cpu time      0.2837: real time      0.2838
    SETDIJ:  cpu time      0.6332: real time      0.6341
    TRIAL :  cpu time      0.9686: real time      0.9689
    CORREC:  cpu time      1.4437: real time      1.4440
    CHARGE:  cpu time      0.2516: real time      0.2519
    --------------------------------------------
      LOOP:  cpu time      3.5940: real time      3.5960

 eigenvalue-minimisations  :     0
 total energy-change (2. order) :-0.3207801E-03  (-0.6440828E-04)
 number of electron      65.9999999 magnetization 
 augmentation part       24.5845503 magnetization 

 Free energy of the ion-electron system (eV)
  ---------------------------------------------------
  alpha Z        PSCENC =         5.24158223
  Ewald energy   TEWEN  =      4015.90966112
  -Hartree energ DENC   =     -9343.57248473
  -exchange      EXHF   =         0.00000000
  -V(xc)+E(xc)   XCENC  =       163.15316119
  PAW double counting   =      5860.75103021    -6054.05734286
  entropy T*S    EENTRO =        -0.00000000
  eigenvalues    EBANDS =      -498.33420404
  atomic energy  EATOM  =      5556.49993434
  ---------------------------------------------------
  free energy    TOTEN  =      -294.40866254 eV

  energy without entropy =     -294.40866254  energy(sigma->0) =     -294.40866254


--------------------------------------------------------------------------------------------------------




--------------------------------------- Iteration      1(  14)  ---------------------------------------


    POTLOK:  cpu time      0.2844: real time      0.2844
    SETDIJ:  cpu time      0.6368: real time      0.6371
    TRIAL :  cpu time      0.9689: real time      0.9689
    CORREC:  cpu time      1.4381: real time      1.4387
    CHARGE:  cpu time      0.2493: real time      0.2493
    --------------------------------------------
      LOOP:  cpu time      3.5889: real time      3.5901

 eigenvalue-minimisations  :     0
 total energy-change (2. order) :-0.6399173E-04  (-0.1092952E-04)
 number of electron      65.9999999 magnetization 
 augmentation part       24.5841993 magnetization 

 Free energy of the ion-electron system (eV)
  ---------------------------------------------------
  alpha Z        PSCENC =         5.24158223
  Ewald energy   TEWEN  =      4015.90966112
  -Hartree energ DENC   =     -9343.74939805
  -exchange      EXHF   =         0.00000000
  -V(xc)+E(xc)   XCENC  =       163.15659618
  PAW double counting   =      5861.95488928    -6055.26067550
  entropy T*S    EENTRO =        -0.00000000
  eigenvalues    EBANDS =      -498.16131611
  atomic energy  EATOM  =      5556.49993434
  ---------------------------------------------------
  free energy    TOTEN  =      -294.40872653 eV

  energy without entropy =     -294.40872653  energy(sigma->0) =     -294.40872653


--------------------------------------------------------------------------------------------------------




--------------------------------------- Iteration      1(  15)  ---------------------------------------


    POTLOK:  cpu time      0.2844: real time      0.2844
    SETDIJ:  cpu time      0.6315: real time      0.6318
    TRIAL :  cpu time      0.9692: real time      0.9694
    CORREC:  cpu time      1.4435: real time      1.4439
    CHARGE:  cpu time      0.2522: real time      0.2523
    --------------------------------------------
      LOOP:  cpu time      3.5888: real time      3.5945

 eigenvalue-minimisations  :     0
 total energy-change (2. order) :-0.1085693E-04  (-0.2914741E-05)
 number of electron      65.9999999 magnetization 
 augmentation part       24.5844369 magnetization 

 Free energy of the ion-electron system (eV)
  ---------------------------------------------------
  alpha Z        PSCENC =         5.24158223
  Ewald energy   TEWEN  =      4015.90966112
  -Hartree energ DENC   =     -9343.63401555
  -exchange      EXHF   =         0.00000000
  -V(xc)+E(xc)   XCENC  =       163.15421853
  PAW double counting   =      5862.26157920    -6055.57013320
  entropy T*S    EENTRO =        -0.00000000
  eigenvalues    EBANDS =      -498.27156406
  atomic energy  EATOM  =      5556.49993434
  ---------------------------------------------------
  free energy    TOTEN  =      -294.40873738 eV

  energy without entropy =     -294.40873738  energy(sigma->0) =     -294.40873738


--------------------------------------------------------------------------------------------------------




--------------------------------------- Iteration      1(  16)  ---------------------------------------


    POTLOK:  cpu time      0.2834: real time      0.2834
    SETDIJ:  cpu time      0.6329: real time      0.6332
    TRIAL :  cpu time      0.9664: real time      0.9666
    CORREC:  cpu time      1.4552: real time      1.4555
    CHARGE:  cpu time      0.2498: real time      0.2499
    --------------------------------------------
      LOOP:  cpu time      3.5961: real time      3.6012

 eigenvalue-minimisations  :     0
 total energy-change (2. order) :-0.2665538E-05  (-0.9465540E-06)
 number of electron      65.9999999 magnetization 
 augmentation part       24.5843088 magnetization 

 Free energy of the ion-electron system (eV)
  ---------------------------------------------------
  alpha Z        PSCENC =         5.24158223
  Ewald energy   TEWEN  =      4015.90966112
  -Hartree energ DENC   =     -9343.72969888
  -exchange      EXHF   =         0.00000000
  -V(xc)+E(xc)   XCENC  =       163.15588258
  PAW double counting   =      5862.70842536    -6056.01809146
  entropy T*S    EENTRO =        -0.00000000
  eigenvalues    EBANDS =      -498.17643534
  atomic energy  EATOM  =      5556.49993434
  ---------------------------------------------------
  free energy    TOTEN  =      -294.40874005 eV

  energy without entropy =     -294.40874005  energy(sigma->0) =     -294.40874005


--------------------------------------------------------------------------------------------------------




--------------------------------------- Iteration      1(  17)  ---------------------------------------


    POTLOK:  cpu time      0.2832: real time      0.2835
    SETDIJ:  cpu time      0.6351: real time      0.6351
    TRIAL :  cpu time      0.9687: real time      0.9690
    CORREC:  cpu time      1.4548: real time      1.4553
    EDDIAG:  cpu time      0.2664: real time      0.2664
    CHARGE:  cpu time      0.2500: real time      0.2500
    --------------------------------------------
      LOOP:  cpu time      3.8699: real time      3.8715

 eigenvalue-minimisations  :     0
 total energy-change (2. order) :-0.9462929E-06  (-0.2437278E-06)
 number of electron      65.9999999 magnetization 
 augmentation part       24.5842529 magnetization 

 Free energy of the ion-electron system (eV)
  ---------------------------------------------------
  alpha Z        PSCENC =         5.24158223
  Ewald energy   TEWEN  =      4015.90966112
  -Hartree energ DENC   =     -9343.68962195
  -exchange      EXHF   =         0.00000000
  -V(xc)+E(xc)   XCENC  =       163.15510009
  PAW double counting   =      5862.92500156    -6056.23535244
  entropy T*S    EENTRO =        -0.00000000
  eigenvalues    EBANDS =      -498.21504595
  atomic energy  EATOM  =      5556.49993434
  ---------------------------------------------------
  free energy    TOTEN  =      -294.40874100 eV

  energy without entropy =     -294.40874100  energy(sigma->0) =     -294.40874100


--------------------------------------------------------------------------------------------------------


  average scaling for gradient   1.5438


 average (electrostatic) potential at core
  the test charge radii are     1.2098
  (the norm of the test charge is              1.0000)
       1 -82.0660       2 -82.6840       3 -82.0662       4 -82.0660       5 -82.0658
       6 -82.0661



 E-fermi :  -5.4040     XC(G=0):  -0.3302     alpha+bet : -0.1781

 Fermi energy:        -5.4040176744

 k-point     1 :       0.0000    0.0000    0.0000
  band No.  band energies     occupation 
      1     -10.2981      2.00000
      2      -9.6561      2.00000
      3      -9.6557      2.00000
      4      -9.5524      2.00000
      5      -9.5523      2.00000
      6      -8.9587      2.00000
      7      -8.8234      2.00000
      8      -8.2908      2.00000
      9      -8.2904      2.00000
     10      -8.2811      2.00000
     11      -8.2806      2.00000
     12      -7.7356      2.00000
     13      -7.7350      2.00000
     14      -7.6962      2.00000
     15      -7.6957      2.00000
     16      -7.3803      2.00000
     17      -7.0840      2.00000
     18      -7.0836      2.00000
     19      -6.9315      2.00000
     20      -6.9313      2.00000
     21      -6.9261      2.00000
     22      -6.9259      2.00000
     23      -6.8572      2.00000
     24      -6.6570      2.00000
     25      -6.6568      2.00000
     26      -6.5325      2.00000
     27      -6.5197      2.00000
     28      -6.5194      2.00000
     29      -6.1183      2.00000
     30      -6.1075      2.00000
     31      -6.1073      2.00000
     32      -5.6376      2.00000
     33      -5.6372      2.00000
     34      -3.7330      0.00000
     35      -3.5672      0.00000
     36      -3.5668      0.00000
     37      -1.6996      0.00000
     38      -0.8763      0.00000
     39      -0.8760      0.00000
     40      -0.2424      0.00000
     41      -0.2417      0.00000
     42       0.0509      0.00000
     43       0.0917      0.00000
     44       0.0997      0.00000
     45       0.2827      0.00000
     46       0.5247      0.00000
     47       0.5487      0.00000
     48       0.5590      0.00000
     49       0.6186      0.00000
     50       0.6472      0.00000
     51       0.7194      0.00000
     52       0.8604      0.00000
     53       0.8668      0.00000
     54       0.8863      0.00000
     55       0.8924      0.00000
     56       0.9087      0.00000
     57       0.9194      0.00000
     58       0.9296      0.00000
     59       0.9341      0.00000
     60       0.9854      0.00000
     61       1.0696      0.00000
     62       1.0777      0.00000
     63       1.1922      0.00000
     64       1.2331      0.00000
     65       1.2581      0.00000
     66       1.2695      0.00000
     67       1.2897      0.00000
     68       1.3069      0.00000
     69       1.3110      0.00000
     70       1.3920      0.00000
     71       1.5275      0.00000
     72       1.5377      0.00000
     73       1.5575      0.00000
     74       1.6522      0.00000
     75       1.6766      0.00000
     76       1.6874      0.00000
     77       1.7515      0.00000
     78       1.7830      0.00000
     79       1.8041      0.00000
     80       1.9449      0.00000
     81       1.9532      0.00000
     82       1.9746      0.00000
     83       1.9859      0.00000
     84       1.9874      0.00000
     85       1.9997      0.00000
     86       2.0097      0.00000
     87       2.0108      0.00000
     88       2.0129      0.00000
     89       2.0204      0.00000
     90       2.0359      0.00000
     91       2.0387      0.00000
     92       2.0400      0.00000
     93       2.0596      0.00000
     94       2.0617      0.00000
     95       2.0905      0.00000
     96       2.1225      0.00000


--------------------------------------------------------------------------------------------------------


 soft charge-density along one line, spin component           1
         0         1         2         3         4         5         6         7         8         9
 total charge-density along one line

 pseudopotential strength for first ion, spin component:           1
 -9.710   0.004   0.006   0.015   0.002  -9.837   0.004   0.006
  0.004  -9.679   0.007  -0.005  -0.015   0.004  -9.807   0.006
  0.006   0.007  -9.661   0.001  -0.006   0.006   0.006  -9.790
  0.015  -0.005   0.001  -9.670   0.004   0.014  -0.005   0.001
  0.002  -0.015  -0.006   0.004  -9.711   0.002  -0.014  -0.006
 -9.837   0.004   0.006   0.014   0.002  -9.949   0.004   0.006
  0.004  -9.807   0.006  -0.005  -0.014   0.004  -9.920   0.006
  0.006   0.006  -9.790   0.001  -0.006   0.006   0.006  -9.903
  0.014  -0.005   0.001  -9.798   0.004   0.014  -0.005   0.001
  0.002  -0.014  -0.006   0.004  -9.837   0.002  -0.014  -0.006
 -0.003  -0.022  -0.030  -0.005   0.005  -0.003  -0.022  -0.030
 -0.004  -0.032  -0.043  -0.007   0.008  -0.004  -0.032  -0.043
  0.010  -0.010  -0.011   0.000  -0.019   0.009  -0.009  -0.011
  0.000   0.016  -0.013   0.007  -0.000   0.000   0.015  -0.012
  0.016   0.000  -0.005  -0.011   0.005   0.015   0.000  -0.004
  0.012  -0.011  -0.013   0.000  -0.022   0.012  -0.010  -0.013
  0.000   0.017  -0.014   0.007  -0.001   0.000   0.016  -0.013
  0.018   0.000  -0.005  -0.012   0.004   0.017   0.000  -0.005
 total augmentation occupancy for first ion, spin component:           1
  3.538  -0.023  -0.072  -0.521   0.223  -1.424   0.038   0.094   0.573  -0.078   0.009   0.049   0.011  -0.005   0.189   0.007
 -0.023   3.505  -0.017  -0.066   0.399   0.039  -1.282  -0.015   0.074  -0.441   0.835  -0.260  -0.171   0.117   0.035  -0.003
 -0.072  -0.017   3.082   0.052  -0.014   0.093  -0.014  -0.860  -0.067  -0.001   0.770  -0.150  -0.053  -0.008  -0.045  -0.009
 -0.521  -0.066   0.052   3.599  -0.331   0.573   0.074  -0.067  -1.385   0.339   0.233  -0.086   0.029   0.031  -0.234   0.001
  0.223   0.399  -0.014  -0.331   3.517  -0.078  -0.441  -0.002   0.340  -1.441  -0.082  -0.033  -0.129   0.016   0.132  -0.016
 -1.424   0.039   0.093   0.573  -0.078   1.272  -0.051  -0.111  -0.616  -0.033  -0.003  -0.036  -0.035  -0.003  -0.209   0.001
  0.038  -1.282  -0.014   0.074  -0.441  -0.051   1.050   0.039  -0.079   0.474  -0.746   0.254   0.192  -0.141  -0.033  -0.009
  0.094  -0.015  -0.860  -0.067  -0.002  -0.111   0.039   0.625   0.078   0.013  -0.632   0.132   0.085   0.017   0.058  -0.004
  0.573   0.074  -0.067  -1.385   0.340  -0.616  -0.079   0.078   1.156  -0.347  -0.214   0.085  -0.028  -0.040   0.251   0.000
 -0.078  -0.441  -0.001   0.339  -1.441  -0.033   0.474   0.013  -0.347   1.317   0.068   0.019   0.163  -0.006  -0.132  -0.005
  0.009   0.835   0.770   0.233  -0.082  -0.003  -0.746  -0.632  -0.214   0.068   2.268  -0.451  -0.214   0.154  -0.090   0.014
  0.049  -0.260  -0.150  -0.086  -0.033  -0.036   0.254   0.132   0.085   0.019  -0.451   0.123   0.063  -0.050   0.027  -0.003
  0.011  -0.171  -0.053   0.029  -0.129  -0.035   0.192   0.085  -0.028   0.163  -0.214   0.063   0.059  -0.022  -0.009  -0.004
 -0.005   0.117  -0.008   0.031   0.016  -0.003  -0.141   0.017  -0.040  -0.006   0.154  -0.050  -0.022   0.034  -0.005   0.001
  0.189   0.035  -0.045  -0.234   0.132  -0.209  -0.033   0.058   0.251  -0.132  -0.090   0.027  -0.009  -0.005   0.083  -0.000
  0.007  -0.003  -0.009   0.001  -0.016   0.001  -0.009  -0.004   0.000  -0.005   0.014  -0.003  -0.004   0.001  -0.000   0.001
  0.001   0.016  -0.018   0.007  -0.002  -0.000   0.004   0.003   0.001   0.001  -0.011   0.003   0.001  -0.002   0.000  -0.000
  0.015   0.001  -0.003  -0.005   0.005   0.006   0.000  -0.002  -0.009   0.004   0.006  -0.001  -0.000   0.000  -0.004   0.000


------------------------ aborting loop because EDIFF is reached ----------------------------------------


    FORLOC:  cpu time      0.0028: real time      0.0028
    FORNL :  cpu time      0.1047: real time      0.1047
    STRESS:  cpu time      3.3179: real time      3.3200
    FORCOR:  cpu time      0.1936: real time      0.1939
    OFIELD:  cpu time      0.0002: real time      0.0002

  FORCE on cell =-STRESS in cart. coord.  units (eV):
  Direction    XX          YY          ZZ          XY          YZ          ZX
  --------------------------------------------------------------------------------------
  Alpha Z     5.24158     5.24158     5.24158
  Ewald    2208.59799   700.98520  1106.32432  -518.57752 -1387.51317  -451.81861
  Hartree  3802.41142  2610.37993  2930.87846  -403.92145 -1081.12352  -351.90294
  E(xc)    -315.51777  -316.06184  -315.91556    -0.19865    -0.53081    -0.17317
  Local   -7013.40840 -4328.53871 -5050.40515   917.10131  2454.22508   799.01849
  n-local   -31.73474   -24.04504   -26.10423     2.80944     7.51353     2.44927
  augment   416.76052   418.45536   417.99974     0.61916     1.65293     0.53937
  Kinetic   926.70406   932.91309   931.24382     2.26784     6.05779     1.97604
  Fock        0.00000     0.00000     0.00000     0.00000     0.00000     0.00000
  -------------------------------------------------------------------------------------
  Total      -0.94534    -0.67042    -0.73702     0.10014     0.28184     0.08846
  in kB      -0.18933    -0.13427    -0.14760     0.02006     0.05644     0.01772
  external pressure =       -0.16 kB  Pullay stress =        0.00 kB


 VOLUME and BASIS-vectors are now :
 -----------------------------------------------------------------------------
  energy-cutoff  :      520.00
  volume of cell :     8000.00
      direct lattice vectors                 reciprocal lattice vectors
    20.000000000  0.000000000  0.000000000     0.050000000  0.000000000  0.000000000
     0.000000000 20.000000000  0.000000000     0.000000000  0.050000000  0.000000000
     0.000000000  0.000000000 20.000000000     0.000000000  0.000000000  0.050000000

  length of vectors
    20.000000000 20.000000000 20.000000000     0.050000000  0.050000000  0.050000000


 FORCES acting on ions:
    Electron-Ion                     Ewald-Force                    Non-Local-Force
 -----------------------------------------------------------------------------------------------
   -.199E+03 -.462E+03 0.420E+03   0.197E+03 0.458E+03 -.417E+03   0.165E+01 0.400E+01 -.231E+01
   0.139E+03 0.427E+03 0.373E+03   -.139E+03 -.425E+03 -.371E+03   -.785E+00 -.241E+01 -.210E+01
   -.244E+03 0.351E+03 -.496E+03   0.242E+03 -.350E+03 0.492E+03   0.196E+01 -.173E+01 0.415E+01
   0.463E+03 0.842E+02 -.455E+03   -.460E+03 -.843E+02 0.451E+03   -.303E+01 0.155E+00 0.386E+01
   -.652E+03 0.135E+02 0.442E+02   0.648E+03 -.142E+02 -.445E+02   0.485E+01 0.649E+00 0.337E+00
   0.491E+03 -.419E+03 0.111E+03   -.488E+03 0.415E+03 -.111E+03   -.322E+01 0.370E+01 -.129E+00
 -----------------------------------------------------------------------------------------------
   -.142E+01 -.436E+01 -.380E+01   0.114E-12 0.568E-13 -.568E-13   0.142E+01 0.436E+01 0.380E+01


 POSITION                                       TOTAL-FORCE (eV/Angst)
 -----------------------------------------------------------------------------------
     10.42273     11.47112      8.33080        -0.052873     -0.127522      0.089446
      9.49705      9.17010      9.31353         0.058311      0.176727      0.153741
     10.58643      8.51620     11.65925        -0.061697      0.073960     -0.132933
      8.01524      9.48644     11.50913         0.104597      0.005884     -0.122980
     12.07445      9.74319      9.69559        -0.164490     -0.013746     -0.004070
      7.91391     11.31253      9.45173         0.116153     -0.115302      0.016796
 -----------------------------------------------------------------------------------
    total drift:                               -0.002796      0.000960      0.003296


--------------------------------------------------------------------------------------------------------



  FREE ENERGIE OF THE ION-ELECTRON SYSTEM (eV)
  ---------------------------------------------------
  free  energy   TOTEN  =      -294.40874100 eV

  energy  without entropy=     -294.40874100  energy(sigma->0) =     -294.40874100



--------------------------------------------------------------------------------------------------------


    POTLOK:  cpu time      0.9329: real time      0.9330


--------------------------------------------------------------------------------------------------------


     LOOP+:  cpu time     60.6374: real time     60.6969
    4ORBIT:  cpu time      0.0000: real time      0.0000

 total amount of memory used by VASP MPI-rank0   129754. kBytes
=======================================================================

   base      :      30000. kBytes
   nonlr-proj:       2063. kBytes
   fftplans  :      28354. kBytes
   grid      :      66714. kBytes
   one-center:         31. kBytes
   wavefun   :       2592. kBytes

  
  
 General timing and accounting informations for this job:
 ========================================================
  
                  Total CPU time used (sec):       81.273
                            User time (sec):       80.157
                          System time (sec):        1.116
                         Elapsed time (sec):       83.489
  
                   Maximum memory used (kb):      406340.
                   Average memory used (kb):          N/A
  
                          Minor page faults:        29115
                          Major page faults:            0
                 Voluntary context switches:         9843
