 vasp.6.4.0 14Feb23 (build Dec 05 2023 14:15:48) complex                        
  
 executed on             LinuxIFC date 2023.12.12  09:45:28
 running  512 mpi-ranks, with    1 threads/rank, on   32 nodes
 distrk:  each k-point on  512 cores,    1 groups
 distr:  one band on NCORE=  16 cores,   32 groups


--------------------------------------------------------------------------------------------------------


 INCAR:
   SYSTEM = MgO-rocksalt
   ISMEAR = 0
   SIGMA = 0.05
   EDIFF = 1E-6
   ALGO = ALL
   ISTART = 2
   IBRION = -1
   NSW = 0
   ISYM = 0
   METAGGA = M06L
   ENCUT = 520
   PREC = Accurate
   LASPH = .TRUE.
   LREAL = Auto
   ISPIN = 1
   NELM = 2000
   NELMIN = 8
   NCORE = 16
   LWAVE = .FALSE.
   LCHARG = .FALSE.

 POTCAR:    PAW_PBE Ag 02Apr2005                  
 POTCAR:    PAW_PBE Ag 02Apr2005                  
   SHA256 =  6550cfa3543261e132c169e1b98a529204624d72be14e2da2e0242bcb74a174d Ag/POTCAR             
   COPYR  = (c) Copyright 02Apr2005 Georg Kresse                                                    
   COPYR  = This file is part of the software VASP. Any use, copying, and all other rights are regul
   COPYR  = If you do not have a valid VASP license, you may not use, copy or distribute this file. 
   VRHFIN =Ag : s1 d10                                                                              
   LEXCH  = PE                                                                                      
   EATOM  =  1037.2675 eV,   76.2370 Ry                                                             
                                                                                                    
   TITEL  = PAW_PBE Ag 02Apr2005                                                                    
   LULTRA =        F    use ultrasoft PP ?                                                          
   IUNSCR =        1    unscreen: 0-lin 1-nonlin 2-no                                               
   RPACOR =    2.000    partial core radius                                                         
   POMASS =  107.868; ZVAL   =   11.000    mass and valenz                                          
   RCORE  =    2.500    outmost cutoff radius                                                       
   RWIGS  =    2.840; RWIGS  =    1.503    wigner-seitz radius (au A)                               
   ENMAX  =  249.844; ENMIN  =  187.383 eV                                                          
   ICORE  =        3    local potential                                                             
   LCOR   =        T    correct aug charges                                                         
   LPAW   =        T    paw PP                                                                      
   EAUG   =  412.496                                                                                
   DEXC   =    0.000                                                                                
   RMAX   =    2.560    core radius for proj-oper                                                   
   RAUG   =    1.300    factor for augmentation sphere                                              
   RDEP   =    2.576    radius for radial grids                                                     
   RDEPT  =    2.072    core radius for aug-charge                                                  
                                                                                                    
   Atomic configuration                                                                             
   12 entries                                                                                       
     n  l   j            E        occ.                                                              
     1  0  0.50    -25324.9161   2.0000                                                             
     2  0  0.50     -3728.5341   2.0000                                                             
     2  1  1.50     -3344.0404   6.0000                                                             
     3  0  0.50      -683.5581   2.0000                                                             
     3  1  1.50      -557.3225   6.0000                                                             
     3  2  2.50      -358.3853  10.0000                                                             
     4  0  0.50       -95.0341   2.0000                                                             
     4  1  1.50       -58.5511   6.0000                                                             
     4  2  2.50        -7.4440  10.0000                                                             
     5  0  0.50        -4.4045   1.0000                                                             
     5  1  0.50        -1.3606   0.0000                                                             
     4  3  2.50        -1.3606   0.0000                                                             
   Description                                                                                      
     l       E           TYP  RCUT    TYP  RCUT                                                     
     2     -7.4439781     23  2.400                                                                 
     2     -8.8045607     23  2.400                                                                 
     0     -4.4044681     23  2.400                                                                 
     0      1.9520038     23  2.400                                                                 
     1     -1.3605826     23  2.500                                                                 
     1     27.2116520     23  2.500                                                                 
     3     -4.0817478     23  2.400                                                                 
  local pseudopotential read in
  partial core-charges read in
  partial kinetic energy density read in
  atomic valenz-charges read in
  non local Contribution for L=           2  read in
    real space projection operators read in
  non local Contribution for L=           2  read in
    real space projection operators read in
  non local Contribution for L=           0  read in
    real space projection operators read in
  non local Contribution for L=           0  read in
    real space projection operators read in
  non local Contribution for L=           1  read in
    real space projection operators read in
  non local Contribution for L=           1  read in
    real space projection operators read in
    PAW grid and wavefunctions read in
 
   number of l-projection  operators is LMAX  =           6
   number of lm-projection operators is LMMAX =          18
 
 -----------------------------------------------------------------------------
|                                                                             |
|               ----> ADVICE to this user running VASP <----                  |
|                                                                             |
|     You have a (more or less) 'small supercell' and for smaller cells       |
|     it is recommended to use the reciprocal-space projection scheme!        |
|     The real-space optimization is not efficient for small cells and it     |
|     is also less accurate ...                                               |
|     Therefore, set LREAL=.FALSE. in the INCAR file.                         |
|                                                                             |
 -----------------------------------------------------------------------------

 Optimization of the real space projectors (new method)

 maximal supplied QI-value         = 15.12
 optimisation between [QCUT,QGAM] = [ 11.64, 23.28] = [ 37.95,151.78] Ry 
 Optimized for a Real-space Cutoff    1.45 Angstroem

   l    n(q)    QCUT    max X(q) W(low)/X(q) W(high)/X(q)  e(spline) 
   2      9    11.641    53.897    0.22E-03    0.42E-04    0.28E-06
   2      9    11.641    52.416    0.23E-03    0.44E-04    0.29E-06
   0     10    11.641   122.045    0.51E-04    0.25E-04    0.16E-06
   0     10    11.641    73.629    0.49E-04    0.24E-04    0.16E-06
   1     10    11.641    15.255    0.99E-04    0.55E-04    0.11E-06
   1     10    11.641     9.562    0.81E-04    0.47E-04    0.95E-07
  PAW_PBE Ag 02Apr2005                  :
 energy of atom  1       EATOM=-1037.2675
 kinetic energy error for atom=    0.0047 (will be added to EATOM!!)
 
 
 POSCAR: Ag
  positions in direct lattice
  No initial velocities read in

 METAGGA = M06L                                        LMAXTAU =  6    LMIXTAU =  F

 exchange correlation table for  LEXCH =        8
   RHO(1)=    0.500       N(1)  =     2000
   RHO(2)=  100.500       N(2)  =     4000
 


--------------------------------------------------------------------------------------------------------


 ion  position               nearest neighbor table
   1  0.500  0.600  0.746-   2 2.56
   2  0.500  0.600  0.630-   1 2.56
 

IMPORTANT INFORMATION: All symmetrisations will be switched off!
NOSYMM: (Re-)initialisation of all symmetry stuff for point group C_1.


----------------------------------------------------------------------------------------

                                     Primitive cell                                     

  volume of cell :    9881.6133

  direct lattice vectors                    reciprocal lattice vectors
    21.138852197  0.000000000  0.000000000     0.047306258  0.000000000  0.000000000
     0.000000000 21.138852197  0.000000000     0.000000000  0.047306258  0.000000000
     0.000000000  0.000000000 22.113885220     0.000000000  0.000000000  0.045220457

  length of vectors
    21.138852197 21.138852197 22.113885220     0.047306258  0.047306258  0.045220457

  position of ions in fractional coordinates (direct lattice)
     0.499999974  0.599999938  0.745598720
     0.499999974  0.599999938  0.629641752

  ion indices of the primitive-cell ions
   primitive index   ion index
                 1           1
                 2           2

----------------------------------------------------------------------------------------

 
 
 KPOINTS: KPOINTS created by Atomic Simulation Env

Automatic generation of k-mesh.
 Grid dimensions read from file:
 generate k-points for:    1    1    1

 Generating k-lattice:

  Cartesian coordinates                     Fractional coordinates (reciprocal lattice)
     0.047306258  0.000000000  0.000000000     1.000000000  0.000000000  0.000000000
     0.000000000  0.047306258  0.000000000     0.000000000  1.000000000  0.000000000
     0.000000000  0.000000000  0.045220457     0.000000000  0.000000000  1.000000000

  Length of vectors
     0.047306258  0.047306258  0.045220457

  Shift w.r.t. Gamma in fractional coordinates (k-lattice)
     0.000000000  0.000000000  0.000000000

 
 Subroutine IBZKPT returns following result:
 ===========================================
 
 Found      1 irreducible k-points:
 
 Following reciprocal coordinates:
            Coordinates               Weight
  0.000000  0.000000  0.000000      1.000000
 
 Following cartesian coordinates:
            Coordinates               Weight
  0.000000  0.000000  0.000000      1.000000
 


--------------------------------------------------------------------------------------------------------




 Dimension of arrays:
   k-points           NKPTS =      1   k-points in BZ     NKDIM =      1   number of bands    NBANDS=     32
   number of dos      NEDOS =    301   number of ions     NIONS =      2
   non local maximal  LDIM  =      6   non local SUM 2l+1 LMDIM =     18
   total plane-waves  NPLWV = ******
   max r-space proj   IRMAX =   5559   max aug-charges    IRDMAX=  21597
   dimension x,y,z NGX =   160 NGY =  160 NGZ =  168
   dimension x,y,z NGXF=   320 NGYF=  320 NGZF=  336
   support grid    NGXF=   320 NGYF=  320 NGZF=  336
   ions per type =               2
   NGX,Y,Z   is equivalent  to a cutoff of  12.58, 12.58, 12.63 a.u.
   NGXF,Y,Z  is equivalent  to a cutoff of  25.17, 25.17, 25.26 a.u.

 SYSTEM =  MgO-rocksalt                            
 POSCAR =  Ag                                      

 Startparameter for this run:
   NWRITE =      2    write-flag & timer
   PREC   = accura    normal or accurate (medium, high low for compatibility)
   ISTART =      2    job   : 0-new  1-cont  2-samecut
   ICHARG =      0    charge: 1-file 2-atom 10-const
   ISPIN  =      1    spin polarized calculation?
   LNONCOLLINEAR =      F non collinear calculations
   LSORBIT =      F    spin-orbit coupling
   INIWAV =      1    electr: 0-lowe 1-rand  2-diag
   LASPH  =      T    aspherical Exc in radial PAW
 Electronic Relaxation 1
   ENCUT  =  520.0 eV  38.22 Ry    6.18 a.u.  39.30 39.30 41.12*2*pi/ulx,y,z
   ENINI  =  520.0     initial cutoff
   ENAUG  =  412.5 eV  augmentation charge cutoff
   NELM   =   2000;   NELMIN=  8; NELMDL=  0     # of ELM steps 
   EDIFF  = 0.1E-05   stopping-criterion for ELM
   LREAL  =      T    real-space projection
   NLSPLINE    = F    spline interpolate recip. space projectors
   LCOMPAT=      F    compatible to vasp.4.4
   GGA_COMPAT  = T    GGA compatible to vasp.4.4-vasp.4.6
   LMAXPAW     = -100 max onsite density
   LMAXMIX     =    2 max onsite mixed and CHGCAR
   VOSKOWN=      0    Vosko Wilk Nusair interpolation
   ROPT   =   -0.00025
 Ionic relaxation
   EDIFFG = 0.1E-04   stopping-criterion for IOM
   NSW    =      0    number of steps for IOM
   NBLOCK =      1;   KBLOCK =      1    inner block; outer block 
   IBRION =     -1    ionic relax: 0-MD 1-quasi-New 2-CG
   NFREE  =      0    steps in history (QN), initial steepest desc. (CG)
   ISIF   =      2    stress and relaxation
   IWAVPR =     10    prediction:  0-non 1-charg 2-wave 3-comb
   ISYM   =      0    0-nonsym 1-usesym 2-fastsym
   LCORR  =      T    Harris-Foulkes like correction to forces

   POTIM  = 0.5000    time-step for ionic-motion
   TEIN   =    0.0    initial temperature
   TEBEG  =    0.0;   TEEND  =   0.0 temperature during run
   SMASS  =  -3.00    Nose mass-parameter (am)
   estimated Nose-frequenzy (Omega)   =  0.10E-29 period in steps = 0.13E+47 mass=  -0.102E-25a.u.
   SCALEE = 1.0000    scale energy and forces
   NPACO  =    256;   APACO  = 10.0  distance and # of slots for P.C.
   PSTRESS=    0.0 pullay stress

  Mass of Ions in am
   POMASS = 107.87
  Ionic Valenz
   ZVAL   =  11.00
  Atomic Wigner-Seitz radii
   RWIGS  =  -1.00
  virtual crystal weights 
   VCA    =   1.00
   NELECT =      22.0000    total number of electrons
   NUPDOWN=      -1.0000    fix difference up-down

 DOS related values:
   EMIN   =  10.00;   EMAX   =-10.00  energy-range for DOS
   EFERMI =   0.00;   METHOD = LEGACY      
   ISMEAR =     0;   SIGMA  =   0.05  broadening in eV -4-tet -1-fermi 0-gaus

 Electronic relaxation 2 (details)
   IALGO  =     58    algorithm
   LDIAG  =      T    sub-space diagonalisation (order eigenvalues)
   LSUBROT=      F    optimize rotation matrix (better conditioning)
   TURBO    =      0    0=normal 1=particle mesh
   IRESTART =      0    0=no restart 2=restart with 2 vectors
   NREBOOT  =      0    no. of reboots
   NMIN     =      0    reboot dimension
   EREF     =   0.00    reference energy to select bands
   IMIX   =      4    mixing-type and parameters
     AMIX     =   0.40;   BMIX     =  1.00
     AMIX_MAG =   1.60;   BMIX_MAG =  1.00
     AMIN     =   0.10
     WC   =   100.;   INIMIX=   1;  MIXPRE=   1;  MAXMIX= -45

 Intra band minimization:
   WEIMIN = 0.0000     energy-eigenvalue tresh-hold
   EBREAK =  0.78E-08  absolut break condition
   DEPER  =   0.30     relativ break condition  

   TIME   =   0.40     timestep for ELM

  volume/ion in A,a.u.               =    4940.81     33342.21
  Fermi-wavevector in a.u.,A,eV,Ry     =   0.213767  0.403960  0.621734  0.045696
  Thomas-Fermi vector in A             =   0.985879
 
 Write flags
   LWAVE        =      F    write WAVECAR
   LDOWNSAMPLE  =      F    k-point downsampling of WAVECAR
   LCHARG       =      F    write CHGCAR
   LVTOT        =      F    write LOCPOT, total local potential
   LVHAR        =      F    write LOCPOT, Hartree potential only
   LELF         =      F    write electronic localiz. function (ELF)
   LORBIT       =      0    0 simple, 1 ext, 2 COOP (PROOUT), +10 PAW based schemes


 Dipole corrections
   LMONO  =      F    monopole corrections only (constant potential shift)
   LDIPOL =      F    correct potential (dipole corrections)
   IDIPOL =      0    1-x, 2-y, 3-z, 4-all directions 
   EPSILON=  1.0000000 bulk dielectric constant

 Exchange correlation treatment:
   GGA     =    --    GGA type
   LEXCH   =     8    internal setting for exchange type
   LIBXC   =     F    Libxc                    
   VOSKOWN =     0    Vosko Wilk Nusair interpolation
   LHFCALC =     F    Hartree Fock is set to
   LHFONE  =     F    Hartree Fock one center treatment
   AEXX    =    0.0000 exact exchange contribution

 Linear response parameters
   LEPSILON=     F    determine dielectric tensor
   LRPA    =     F    only Hartree local field effects (RPA)
   LNABLA  =     F    use nabla operator in PAW spheres
   LVEL    =     F    velocity operator in full k-point grid
   CSHIFT  =0.1000    complex shift for real part using Kramers Kronig
   OMEGAMAX=  -1.0    maximum frequency
   DEG_THRESHOLD= 0.2000000E-02 threshold for treating states as degnerate
   RTIME   =   -0.100 relaxation time in fs
  (WPLASMAI=    0.000 imaginary part of plasma frequency in eV, 0.658/RTIME)
   DFIELD  = 0.0000000 0.0000000 0.0000000 field for delta impulse in time
 
  Optional k-point grid parameters
   LKPOINTS_OPT  =     F    use optional k-point grid
   KPOINTS_OPT_MODE=     1    mode for optional k-point grid
 
 Orbital magnetization related:
   ORBITALMAG=     F  switch on orbital magnetization
   LCHIMAG   =     F  perturbation theory with respect to B field
   DQ        =  0.001000  dq finite difference perturbation B field
   LLRAUG    =     F  two centre corrections for induced B field
   LBONE     =     F  B-component reconstruction in AE one-centre
   LVGVCALC  =     T  calculate vGv susceptibility
   LVGVAPPL  =     F  apply vGv susceptibility instead of pGv for G=0

 Random number generation:
   RANDOM_GENERATOR = DEFAULT
   PCG_SEED         = not used


--------------------------------------------------------------------------------------------------------


 Static calculation
 charge density and potential will be updated during run
 non-spin polarized calculation
 Conjugate gradient for all bands (Freysoldt, et al. PRB 79, 241103 (2009))
 preconditioned conjugated gradient                                        
 perform sub-space diagonalisation
    before iterative eigenvector-optimisation
 modified Broyden-mixing scheme, WC =      100.0
 initial mixing is a Kerker type mixing with AMIX =  0.4000 and BMIX =      1.0000
 Hartree-type preconditioning will be used
 using additional bands           21
 real space projection scheme for non local part
 use partial core corrections
 no Harris-corrections to forces 
 use gradient corrections 
 use of overlap-Matrix (Vanderbilt PP)
 Gauss-broadening in eV      SIGMA  =   0.05


--------------------------------------------------------------------------------------------------------


  energy-cutoff  :      520.00
  volume of cell :     9881.61
      direct lattice vectors                 reciprocal lattice vectors
    21.138852197  0.000000000  0.000000000     0.047306258  0.000000000  0.000000000
     0.000000000 21.138852197  0.000000000     0.000000000  0.047306258  0.000000000
     0.000000000  0.000000000 22.113885220     0.000000000  0.000000000  0.045220457

  length of vectors
    21.138852197 21.138852197 22.113885220     0.047306258  0.047306258  0.045220457


 
 old parameters found on file WAVECAR:
  energy-cutoff  :      520.00
  volume of cell :     9881.61
      direct lattice vectors                 reciprocal lattice vectors
    21.138852197  0.000000000  0.000000000     0.047306258  0.000000000  0.000000000
     0.000000000 21.138852197  0.000000000     0.000000000  0.047306258  0.000000000
     0.000000000  0.000000000 22.113885220     0.000000000  0.000000000  0.045220457

  length of vectors

 
 k-points in units of 2pi/SCALE and weight: KPOINTS created by Atomic Simulation Env
   0.00000000  0.00000000  0.00000000       1.000
 
 k-points in reciprocal lattice and weights: KPOINTS created by Atomic Simulation Env
   0.00000000  0.00000000  0.00000000       1.000
 
 position of ions in fractional coordinates (direct lattice) 
   0.49999997  0.59999994  0.74559872
   0.49999997  0.59999994  0.62964175
 
 position of ions in cartesian coordinates  (Angst):
  10.56942555 12.68331001 16.48808451
  10.56942555 12.68331001 13.92382543
 


--------------------------------------------------------------------------------------------------------


 k-point   1 :   0.0000 0.0000 0.0000  plane waves:  265979

 maximum and minimum number of plane-waves per node :     16635    16606

 maximum number of plane-waves:    265979
 maximum index in each direction: 
   IXMAX=   39   IYMAX=   39   IZMAX=   41
   IXMIN=  -39   IYMIN=  -39   IZMIN=  -41


 real space projection operators:
  total allocation   :       1497.94 KBytes
  max/ min on nodes  :        103.50         81.84


 parallel 3D FFT for wavefunctions:
    minimum data exchange during FFTs selected (reduces bandwidth)
 parallel 3D FFT for charge:
    minimum data exchange during FFTs selected (reduces bandwidth)


 total amount of memory used by VASP MPI-rank0    68034. kBytes
=======================================================================

   base      :      30000. kBytes
   nonlr-proj:        314. kBytes
   fftplans  :      11482. kBytes
   grid      :      25425. kBytes
   one-center:         15. kBytes
   wavefun   :        798. kBytes
 
     INWAV:  cpu time      1.4568: real time      1.4770
 Broyden mixing: mesh for mixing (old mesh)
   NGX = 79   NGY = 79   NGZ = 83
  (NGX  =320   NGY  =320   NGZ  =336)
  gives a total of 518003 points

 charge density for first step will be calculated from the start-wavefunctions


--------------------------------------------------------------------------------------------------------


 Maximum index for non-local projection operator          368
 Maximum index for augmentation-charges            0 (set IRDMAX)


--------------------------------------------------------------------------------------------------------


 initial charge from wavefunction
 First call to EWALD:  gamma=   0.083
 Maximum number of real-space cells 3x 3x 3
 Maximum number of reciprocal cells 3x 3x 3

    FEWALD:  cpu time      0.0074: real time      0.0074


--------------------------------------- Ionic step        1  -------------------------------------------




--------------------------------------- Iteration      1(   1)  ---------------------------------------


    POTLOK:  cpu time      0.7430: real time      0.7435
    SETDIJ:  cpu time      4.3286: real time      4.3315
    TRIAL :  cpu time      0.4435: real time      0.4449
    CORREC:  cpu time      6.0013: real time      6.0044
    CHARGE:  cpu time      0.1192: real time      0.1191
    --------------------------------------------
      LOOP:  cpu time     11.6375: real time     11.6461

 eigenvalue-minimisations  :     0
 total energy-change (2. order) :-0.2967978E+02  (-0.1991887E+00)
 number of electron      21.9999999 magnetization 
 augmentation part       10.7992744 magnetization 

 Free energy of the ion-electron system (eV)
  ---------------------------------------------------
  alpha Z        PSCENC =         0.34430737
  Ewald energy   TEWEN  =       221.20106937
  -Hartree energ DENC   =     -2209.12372109
  -exchange      EXHF   =         0.00000000
  -V(xc)+E(xc)   XCENC  =         5.67240401
  PAW double counting   =      2057.96184756    -2012.70220276
  entropy T*S    EENTRO =        -0.00000000
  eigenvalues    EBANDS =      -167.55904329
  atomic energy  EATOM  =      2074.52556292
  ---------------------------------------------------
  free energy    TOTEN  =       -29.67977592 eV

  energy without entropy =      -29.67977592  energy(sigma->0) =      -29.67977592


--------------------------------------------------------------------------------------------------------




--------------------------------------- Iteration      1(   2)  ---------------------------------------


    POTLOK:  cpu time      0.8061: real time      0.8065
    SETDIJ:  cpu time      4.8927: real time      4.8962
    TRIAL :  cpu time      0.3724: real time      0.3722
    CORREC:  cpu time      6.0058: real time      6.0091
    CHARGE:  cpu time      0.1187: real time      0.1187
    --------------------------------------------
      LOOP:  cpu time     12.1999: real time     12.2147

 eigenvalue-minimisations  :     0
 total energy-change (2. order) :-0.1988987E+00  (-0.6897615E-01)
 number of electron      21.9999999 magnetization 
 augmentation part       10.8024414 magnetization 

 Free energy of the ion-electron system (eV)
  ---------------------------------------------------
  alpha Z        PSCENC =         0.34430737
  Ewald energy   TEWEN  =       221.20106937
  -Hartree energ DENC   =     -2224.42936563
  -exchange      EXHF   =         0.00000000
  -V(xc)+E(xc)   XCENC  =         6.50958124
  PAW double counting   =      2113.58606203    -2068.89011322
  entropy T*S    EENTRO =        -0.00000000
  eigenvalues    EBANDS =      -152.72577873
  atomic energy  EATOM  =      2074.52556292
  ---------------------------------------------------
  free energy    TOTEN  =       -29.87867466 eV

  energy without entropy =      -29.87867466  energy(sigma->0) =      -29.87867466


--------------------------------------------------------------------------------------------------------




--------------------------------------- Iteration      1(   3)  ---------------------------------------


    POTLOK:  cpu time      0.8395: real time      0.8398
    SETDIJ:  cpu time      4.9016: real time      4.9043
    TRIAL :  cpu time      0.3785: real time      0.3791
    CORREC:  cpu time      6.0070: real time      6.0097
    CHARGE:  cpu time      0.1188: real time      0.1196
    --------------------------------------------
      LOOP:  cpu time     12.2568: real time     12.2724

 eigenvalue-minimisations  :     0
 total energy-change (2. order) :-0.7079307E-01  (-0.1645466E-01)
 number of electron      21.9999999 magnetization 
 augmentation part       10.7948222 magnetization 

 Free energy of the ion-electron system (eV)
  ---------------------------------------------------
  alpha Z        PSCENC =         0.34430737
  Ewald energy   TEWEN  =       221.20106937
  -Hartree energ DENC   =     -2220.73945528
  -exchange      EXHF   =         0.00000000
  -V(xc)+E(xc)   XCENC  =         6.31988560
  PAW double counting   =      2156.65172471    -2111.97649940
  entropy T*S    EENTRO =        -0.00000000
  eigenvalues    EBANDS =      -156.27606300
  atomic energy  EATOM  =      2074.52556292
  ---------------------------------------------------
  free energy    TOTEN  =       -29.94946772 eV

  energy without entropy =      -29.94946772  energy(sigma->0) =      -29.94946772


--------------------------------------------------------------------------------------------------------




--------------------------------------- Iteration      1(   4)  ---------------------------------------


    POTLOK:  cpu time      0.8217: real time      0.8218
    SETDIJ:  cpu time      4.8821: real time      4.8848
    TRIAL :  cpu time      0.3707: real time      0.3705
    CORREC:  cpu time      5.9895: real time      5.9933
    CHARGE:  cpu time      0.1246: real time      0.1247
    --------------------------------------------
      LOOP:  cpu time     12.1927: real time     12.2066

 eigenvalue-minimisations  :     0
 total energy-change (2. order) :-0.1404248E-01  (-0.1129433E-01)
 number of electron      21.9999999 magnetization 
 augmentation part       10.7905734 magnetization 

 Free energy of the ion-electron system (eV)
  ---------------------------------------------------
  alpha Z        PSCENC =         0.34430737
  Ewald energy   TEWEN  =       221.20106937
  -Hartree energ DENC   =     -2218.89259502
  -exchange      EXHF   =         0.00000000
  -V(xc)+E(xc)   XCENC  =         6.20846920
  PAW double counting   =      2175.14374900    -2130.44661158
  entropy T*S    EENTRO =        -0.00000000
  eigenvalues    EBANDS =      -158.04746146
  atomic energy  EATOM  =      2074.52556292
  ---------------------------------------------------
  free energy    TOTEN  =       -29.96351020 eV

  energy without entropy =      -29.96351020  energy(sigma->0) =      -29.96351020


--------------------------------------------------------------------------------------------------------




--------------------------------------- Iteration      1(   5)  ---------------------------------------


    POTLOK:  cpu time      0.8331: real time      0.8326
    SETDIJ:  cpu time      4.8961: real time      4.8996
    TRIAL :  cpu time      0.3771: real time      0.3768
    CORREC:  cpu time      5.9691: real time      5.9726
    CHARGE:  cpu time      0.1243: real time      0.1243
    --------------------------------------------
      LOOP:  cpu time     12.2113: real time     12.2176

 eigenvalue-minimisations  :     0
 total energy-change (2. order) :-0.2139621E-02  (-0.4007005E-02)
 number of electron      21.9999999 magnetization 
 augmentation part       10.7919444 magnetization 

 Free energy of the ion-electron system (eV)
  ---------------------------------------------------
  alpha Z        PSCENC =         0.34430737
  Ewald energy   TEWEN  =       221.20106937
  -Hartree energ DENC   =     -2218.02167619
  -exchange      EXHF   =         0.00000000
  -V(xc)+E(xc)   XCENC  =         6.14775728
  PAW double counting   =      2192.77749130    -2148.07336471
  entropy T*S    EENTRO =        -0.00000000
  eigenvalues    EBANDS =      -158.86679714
  atomic energy  EATOM  =      2074.52556292
  ---------------------------------------------------
  free energy    TOTEN  =       -29.96564982 eV

  energy without entropy =      -29.96564982  energy(sigma->0) =      -29.96564982


--------------------------------------------------------------------------------------------------------




--------------------------------------- Iteration      1(   6)  ---------------------------------------


    POTLOK:  cpu time      0.8160: real time      0.8163
    SETDIJ:  cpu time      4.8863: real time      4.8892
    TRIAL :  cpu time      0.3719: real time      0.3718
    CORREC:  cpu time      5.9645: real time      5.9682
    CHARGE:  cpu time      0.1228: real time      0.1226
    --------------------------------------------
      LOOP:  cpu time     12.1685: real time     12.1839

 eigenvalue-minimisations  :     0
 total energy-change (2. order) :-0.1403164E-02  (-0.5986708E-02)
 number of electron      21.9999999 magnetization 
 augmentation part       10.7967946 magnetization 

 Free energy of the ion-electron system (eV)
  ---------------------------------------------------
  alpha Z        PSCENC =         0.34430737
  Ewald energy   TEWEN  =       221.20106937
  -Hartree energ DENC   =     -2218.37893570
  -exchange      EXHF   =         0.00000000
  -V(xc)+E(xc)   XCENC  =         6.15646085
  PAW double counting   =      2206.94258308    -2162.25334200
  entropy T*S    EENTRO =        -0.00000000
  eigenvalues    EBANDS =      -158.50475886
  atomic energy  EATOM  =      2074.52556292
  ---------------------------------------------------
  free energy    TOTEN  =       -29.96705299 eV

  energy without entropy =      -29.96705299  energy(sigma->0) =      -29.96705299


--------------------------------------------------------------------------------------------------------




--------------------------------------- Iteration      1(   7)  ---------------------------------------


    POTLOK:  cpu time      0.7988: real time      0.7988
    SETDIJ:  cpu time      4.8898: real time      4.8933
    TRIAL :  cpu time      0.3830: real time      0.3828
    CORREC:  cpu time      5.9665: real time      5.9696
    CHARGE:  cpu time      0.1186: real time      0.1186
    --------------------------------------------
      LOOP:  cpu time     12.1626: real time     12.1766

 eigenvalue-minimisations  :     0
 total energy-change (2. order) :-0.2583283E-02  (-0.2983723E-02)
 number of electron      21.9999999 magnetization 
 augmentation part       10.8013432 magnetization 

 Free energy of the ion-electron system (eV)
  ---------------------------------------------------
  alpha Z        PSCENC =         0.34430737
  Ewald energy   TEWEN  =       221.20106937
  -Hartree energ DENC   =     -2219.50173792
  -exchange      EXHF   =         0.00000000
  -V(xc)+E(xc)   XCENC  =         6.20613606
  PAW double counting   =      2221.05524871    -2176.39528989
  entropy T*S    EENTRO =        -0.00000000
  eigenvalues    EBANDS =      -157.40493288
  atomic energy  EATOM  =      2074.52556292
  ---------------------------------------------------
  free energy    TOTEN  =       -29.96963627 eV

  energy without entropy =      -29.96963627  energy(sigma->0) =      -29.96963627


--------------------------------------------------------------------------------------------------------




--------------------------------------- Iteration      1(   8)  ---------------------------------------


    POTLOK:  cpu time      0.7647: real time      0.7648
    SETDIJ:  cpu time      4.8898: real time      4.8925
    TRIAL :  cpu time      0.3672: real time      0.3671
    CORREC:  cpu time      5.9640: real time      5.9679
    CHARGE:  cpu time      0.1238: real time      0.1238
    --------------------------------------------
      LOOP:  cpu time     12.1202: real time     12.1271

 eigenvalue-minimisations  :     0
 total energy-change (2. order) :-0.6569450E-03  (-0.2489614E-02)
 number of electron      21.9999999 magnetization 
 augmentation part       10.8045799 magnetization 

 Free energy of the ion-electron system (eV)
  ---------------------------------------------------
  alpha Z        PSCENC =         0.34430737
  Ewald energy   TEWEN  =       221.20106937
  -Hartree energ DENC   =     -2220.60727207
  -exchange      EXHF   =         0.00000000
  -V(xc)+E(xc)   XCENC  =         6.25778848
  PAW double counting   =      2232.35507698    -2187.72130710
  entropy T*S    EENTRO =        -0.00000000
  eigenvalues    EBANDS =      -156.32551917
  atomic energy  EATOM  =      2074.52556292
  ---------------------------------------------------
  free energy    TOTEN  =       -29.97029321 eV

  energy without entropy =      -29.97029321  energy(sigma->0) =      -29.97029321


--------------------------------------------------------------------------------------------------------




--------------------------------------- Iteration      1(   9)  ---------------------------------------


    POTLOK:  cpu time      0.7599: real time      0.7604
    SETDIJ:  cpu time      4.8901: real time      4.8929
    TRIAL :  cpu time      0.3748: real time      0.3753
    CORREC:  cpu time      5.9608: real time      5.9636
    CHARGE:  cpu time      0.1226: real time      0.1233
    --------------------------------------------
      LOOP:  cpu time     12.1111: real time     12.1273

 eigenvalue-minimisations  :     0
 total energy-change (2. order) :-0.4834472E-03  (-0.2550859E-02)
 number of electron      21.9999999 magnetization 
 augmentation part       10.8063885 magnetization 

 Free energy of the ion-electron system (eV)
  ---------------------------------------------------
  alpha Z        PSCENC =         0.34430737
  Ewald energy   TEWEN  =       221.20106937
  -Hartree energ DENC   =     -2221.51787203
  -exchange      EXHF   =         0.00000000
  -V(xc)+E(xc)   XCENC  =         6.30007980
  PAW double counting   =      2241.75793496    -2197.14362486
  entropy T*S    EENTRO =        -0.00000000
  eigenvalues    EBANDS =      -155.43823419
  atomic energy  EATOM  =      2074.52556292
  ---------------------------------------------------
  free energy    TOTEN  =       -29.97077666 eV

  energy without entropy =      -29.97077666  energy(sigma->0) =      -29.97077666


--------------------------------------------------------------------------------------------------------




--------------------------------------- Iteration      1(  10)  ---------------------------------------


    POTLOK:  cpu time      0.7639: real time      0.7632
    SETDIJ:  cpu time      4.8868: real time      4.8903
    TRIAL :  cpu time      0.3689: real time      0.3688
    CORREC:  cpu time      6.0033: real time      6.0073
    CHARGE:  cpu time      0.1174: real time      0.1174
    --------------------------------------------
      LOOP:  cpu time     12.1441: real time     12.1587

 eigenvalue-minimisations  :     0
 total energy-change (2. order) :-0.2697564E-04  (-0.2140393E-02)
 number of electron      21.9999999 magnetization 
 augmentation part       10.8063012 magnetization 

 Free energy of the ion-electron system (eV)
  ---------------------------------------------------
  alpha Z        PSCENC =         0.34430737
  Ewald energy   TEWEN  =       221.20106937
  -Hartree energ DENC   =     -2222.23124842
  -exchange      EXHF   =         0.00000000
  -V(xc)+E(xc)   XCENC  =         6.33235408
  PAW double counting   =      2250.67125685    -2206.06996058
  entropy T*S    EENTRO =        -0.00000000
  eigenvalues    EBANDS =      -154.74414522
  atomic energy  EATOM  =      2074.52556292
  ---------------------------------------------------
  free energy    TOTEN  =       -29.97080364 eV

  energy without entropy =      -29.97080364  energy(sigma->0) =      -29.97080364


--------------------------------------------------------------------------------------------------------




--------------------------------------- Iteration      1(  11)  ---------------------------------------


    POTLOK:  cpu time      0.7781: real time      0.7782
    SETDIJ:  cpu time      4.8924: real time      4.8950
    TRIAL :  cpu time      0.3645: real time      0.3652
    CORREC:  cpu time      5.9970: real time      6.0003
    CHARGE:  cpu time      0.1182: real time      0.1187
    --------------------------------------------
      LOOP:  cpu time     12.1541: real time     12.1686

 eigenvalue-minimisations  :     0
 total energy-change (2. order) :-0.1087234E-04  (-0.2122626E-02)
 number of electron      21.9999999 magnetization 
 augmentation part       10.8046667 magnetization 

 Free energy of the ion-electron system (eV)
  ---------------------------------------------------
  alpha Z        PSCENC =         0.34430737
  Ewald energy   TEWEN  =       221.20106937
  -Hartree energ DENC   =     -2222.60313216
  -exchange      EXHF   =         0.00000000
  -V(xc)+E(xc)   XCENC  =         6.34710076
  PAW double counting   =      2258.19110575    -2213.59382330
  entropy T*S    EENTRO =        -0.00000000
  eigenvalues    EBANDS =      -154.38300519
  atomic energy  EATOM  =      2074.52556292
  ---------------------------------------------------
  free energy    TOTEN  =       -29.97081451 eV

  energy without entropy =      -29.97081451  energy(sigma->0) =      -29.97081451


--------------------------------------------------------------------------------------------------------




--------------------------------------- Iteration      1(  12)  ---------------------------------------


    POTLOK:  cpu time      0.8848: real time      0.8852
    SETDIJ:  cpu time      4.8825: real time      4.8853
    TRIAL :  cpu time      0.3674: real time      0.3673
    CORREC:  cpu time      5.9789: real time      5.9821
    CHARGE:  cpu time      0.1227: real time      0.1227
    --------------------------------------------
      LOOP:  cpu time     12.2399: real time     12.2546

 eigenvalue-minimisations  :     0
 total energy-change (2. order) : 0.1025180E-03  (-0.7169892E-02)
 number of electron      21.9999999 magnetization 
 augmentation part       10.8020325 magnetization 

 Free energy of the ion-electron system (eV)
  ---------------------------------------------------
  alpha Z        PSCENC =         0.34430737
  Ewald energy   TEWEN  =       221.20106937
  -Hartree energ DENC   =     -2222.69554817
  -exchange      EXHF   =         0.00000000
  -V(xc)+E(xc)   XCENC  =         6.34701818
  PAW double counting   =      2264.93415597    -2220.33373495
  entropy T*S    EENTRO =        -0.00000000
  eigenvalues    EBANDS =      -154.29354268
  atomic energy  EATOM  =      2074.52556292
  ---------------------------------------------------
  free energy    TOTEN  =       -29.97071199 eV

  energy without entropy =      -29.97071199  energy(sigma->0) =      -29.97071199


--------------------------------------------------------------------------------------------------------




--------------------------------------- Iteration      1(  13)  ---------------------------------------


    POTLOK:  cpu time      0.7899: real time      0.7903
    SETDIJ:  cpu time      4.8900: real time      4.8934
    TRIAL :  cpu time      0.3689: real time      0.3687
    CORREC:  cpu time      5.9509: real time      5.9549
    CHARGE:  cpu time      0.1189: real time      0.1188
    --------------------------------------------
      LOOP:  cpu time     12.1233: real time     12.1378

 eigenvalue-minimisations  :     0
 total energy-change (2. order) :-0.2165734E-02  (-0.6025544E-02)
 number of electron      21.9999999 magnetization 
 augmentation part       10.7984316 magnetization 

 Free energy of the ion-electron system (eV)
  ---------------------------------------------------
  alpha Z        PSCENC =         0.34430737
  Ewald energy   TEWEN  =       221.20106937
  -Hartree energ DENC   =     -2222.23124739
  -exchange      EXHF   =         0.00000000
  -V(xc)+E(xc)   XCENC  =         6.32335651
  PAW double counting   =      2264.04537522    -2219.43307671
  entropy T*S    EENTRO =        -0.00000000
  eigenvalues    EBANDS =      -154.74822500
  atomic energy  EATOM  =      2074.52556292
  ---------------------------------------------------
  free energy    TOTEN  =       -29.97287772 eV

  energy without entropy =      -29.97287772  energy(sigma->0) =      -29.97287772


--------------------------------------------------------------------------------------------------------




--------------------------------------- Iteration      1(  14)  ---------------------------------------


    POTLOK:  cpu time      0.7774: real time      0.7779
    SETDIJ:  cpu time      4.8894: real time      4.8923
    TRIAL :  cpu time      0.3722: real time      0.3721
    CORREC:  cpu time      5.9460: real time      5.9501
    CHARGE:  cpu time      0.1190: real time      0.1190
    --------------------------------------------
      LOOP:  cpu time     12.1075: real time     12.1224

 eigenvalue-minimisations  :     0
 total energy-change (2. order) :-0.2954036E-02  (-0.7048171E-02)
 number of electron      21.9999999 magnetization 
 augmentation part       10.7979372 magnetization 

 Free energy of the ion-electron system (eV)
  ---------------------------------------------------
  alpha Z        PSCENC =         0.34430737
  Ewald energy   TEWEN  =       221.20106937
  -Hartree energ DENC   =     -2221.57906807
  -exchange      EXHF   =         0.00000000
  -V(xc)+E(xc)   XCENC  =         6.28742769
  PAW double counting   =      2262.71841242    -2218.08945004
  entropy T*S    EENTRO =        -0.00000000
  eigenvalues    EBANDS =      -155.38409341
  atomic energy  EATOM  =      2074.52556292
  ---------------------------------------------------
  free energy    TOTEN  =       -29.97583176 eV

  energy without entropy =      -29.97583176  energy(sigma->0) =      -29.97583176


--------------------------------------------------------------------------------------------------------




--------------------------------------- Iteration      1(  15)  ---------------------------------------


    POTLOK:  cpu time      0.7780: real time      0.7783
    SETDIJ:  cpu time      4.8920: real time      4.8954
    TRIAL :  cpu time      0.3786: real time      0.3785
    CORREC:  cpu time      5.9664: real time      5.9703
    CHARGE:  cpu time      0.1196: real time      0.1196
    --------------------------------------------
      LOOP:  cpu time     12.1389: real time     12.1550

 eigenvalue-minimisations  :     0
 total energy-change (2. order) :-0.5962681E-04  (-0.2674845E-02)
 number of electron      21.9999999 magnetization 
 augmentation part       10.7972709 magnetization 

 Free energy of the ion-electron system (eV)
  ---------------------------------------------------
  alpha Z        PSCENC =         0.34430737
  Ewald energy   TEWEN  =       221.20106937
  -Hartree energ DENC   =     -2221.47276228
  -exchange      EXHF   =         0.00000000
  -V(xc)+E(xc)   XCENC  =         6.28400741
  PAW double counting   =      2262.36285874    -2217.73121505
  entropy T*S    EENTRO =        -0.00000000
  eigenvalues    EBANDS =      -155.48971985
  atomic energy  EATOM  =      2074.52556292
  ---------------------------------------------------
  free energy    TOTEN  =       -29.97589139 eV

  energy without entropy =      -29.97589139  energy(sigma->0) =      -29.97589139


--------------------------------------------------------------------------------------------------------




--------------------------------------- Iteration      1(  16)  ---------------------------------------


    POTLOK:  cpu time      0.7916: real time      0.7922
    SETDIJ:  cpu time      4.8868: real time      4.8894
    TRIAL :  cpu time      0.3723: real time      0.3722
    CORREC:  cpu time      5.9619: real time      5.9659
    CHARGE:  cpu time      0.1193: real time      0.1193
    --------------------------------------------
      LOOP:  cpu time     12.1434: real time     12.1507

 eigenvalue-minimisations  :     0
 total energy-change (2. order) :-0.5482868E-03  (-0.2298358E-02)
 number of electron      21.9999999 magnetization 
 augmentation part       10.7964992 magnetization 

 Free energy of the ion-electron system (eV)
  ---------------------------------------------------
  alpha Z        PSCENC =         0.34430737
  Ewald energy   TEWEN  =       221.20106937
  -Hartree energ DENC   =     -2221.32627689
  -exchange      EXHF   =         0.00000000
  -V(xc)+E(xc)   XCENC  =         6.27643620
  PAW double counting   =      2261.85023972    -2217.21488629
  entropy T*S    EENTRO =        -0.00000000
  eigenvalues    EBANDS =      -155.63289207
  atomic energy  EATOM  =      2074.52556292
  ---------------------------------------------------
  free energy    TOTEN  =       -29.97643967 eV

  energy without entropy =      -29.97643967  energy(sigma->0) =      -29.97643967


--------------------------------------------------------------------------------------------------------




--------------------------------------- Iteration      1(  17)  ---------------------------------------


    POTLOK:  cpu time      0.7858: real time      0.7863
    SETDIJ:  cpu time      4.8887: real time      4.8921
    TRIAL :  cpu time      0.3738: real time      0.3738
    CORREC:  cpu time      5.9722: real time      5.9752
    CHARGE:  cpu time      0.1183: real time      0.1182
    --------------------------------------------
      LOOP:  cpu time     12.1425: real time     12.1570

 eigenvalue-minimisations  :     0
 total energy-change (2. order) :-0.1343640E-03  (-0.1874689E-02)
 number of electron      21.9999999 magnetization 
 augmentation part       10.7959304 magnetization 

 Free energy of the ion-electron system (eV)
  ---------------------------------------------------
  alpha Z        PSCENC =         0.34430737
  Ewald energy   TEWEN  =       221.20106937
  -Hartree energ DENC   =     -2221.14863294
  -exchange      EXHF   =         0.00000000
  -V(xc)+E(xc)   XCENC  =         6.26746918
  PAW double counting   =      2261.17085852    -2216.53101307
  entropy T*S    EENTRO =        -0.00000000
  eigenvalues    EBANDS =      -155.80619539
  atomic energy  EATOM  =      2074.52556292
  ---------------------------------------------------
  free energy    TOTEN  =       -29.97657404 eV

  energy without entropy =      -29.97657404  energy(sigma->0) =      -29.97657404


--------------------------------------------------------------------------------------------------------




--------------------------------------- Iteration      1(  18)  ---------------------------------------


    POTLOK:  cpu time      0.7970: real time      0.7971
    SETDIJ:  cpu time      4.8902: real time      4.8928
    TRIAL :  cpu time      0.3683: real time      0.3690
    CORREC:  cpu time      5.9577: real time      5.9611
    CHARGE:  cpu time      0.1186: real time      0.1185
    --------------------------------------------
      LOOP:  cpu time     12.1355: real time     12.1510

 eigenvalue-minimisations  :     0
 total energy-change (2. order) :-0.9742644E-05  (-0.1444778E-02)
 number of electron      21.9999999 magnetization 
 augmentation part       10.7955099 magnetization 

 Free energy of the ion-electron system (eV)
  ---------------------------------------------------
  alpha Z        PSCENC =         0.34430737
  Ewald energy   TEWEN  =       221.20106937
  -Hartree energ DENC   =     -2221.00540315
  -exchange      EXHF   =         0.00000000
  -V(xc)+E(xc)   XCENC  =         6.26006068
  PAW double counting   =      2260.52484340    -2215.88140570
  entropy T*S    EENTRO =        -0.00000000
  eigenvalues    EBANDS =      -155.94561866
  atomic energy  EATOM  =      2074.52556292
  ---------------------------------------------------
  free energy    TOTEN  =       -29.97658378 eV

  energy without entropy =      -29.97658378  energy(sigma->0) =      -29.97658378


--------------------------------------------------------------------------------------------------------




--------------------------------------- Iteration      1(  19)  ---------------------------------------


    POTLOK:  cpu time      0.7950: real time      0.7955
    SETDIJ:  cpu time      4.8814: real time      4.8848
    TRIAL :  cpu time      0.3731: real time      0.3730
    CORREC:  cpu time      5.9542: real time      5.9581
    CHARGE:  cpu time      0.1192: real time      0.1192
    --------------------------------------------
      LOOP:  cpu time     12.1267: real time     12.1420

 eigenvalue-minimisations  :     0
 total energy-change (2. order) :-0.1669155E-03  (-0.1449673E-02)
 number of electron      21.9999999 magnetization 
 augmentation part       10.7952255 magnetization 

 Free energy of the ion-electron system (eV)
  ---------------------------------------------------
  alpha Z        PSCENC =         0.34430737
  Ewald energy   TEWEN  =       221.20106937
  -Hartree energ DENC   =     -2220.88468948
  -exchange      EXHF   =         0.00000000
  -V(xc)+E(xc)   XCENC  =         6.25318253
  PAW double counting   =      2259.84165610    -2215.19522903
  entropy T*S    EENTRO =        -0.00000000
  eigenvalues    EBANDS =      -156.06261046
  atomic energy  EATOM  =      2074.52556292
  ---------------------------------------------------
  free energy    TOTEN  =       -29.97675070 eV

  energy without entropy =      -29.97675070  energy(sigma->0) =      -29.97675070


--------------------------------------------------------------------------------------------------------




--------------------------------------- Iteration      1(  20)  ---------------------------------------


    POTLOK:  cpu time      0.8318: real time      0.8320
    SETDIJ:  cpu time      4.8941: real time      4.8970
    TRIAL :  cpu time      0.3730: real time      0.3736
    CORREC:  cpu time      5.9629: real time      5.9656
    CHARGE:  cpu time      0.1197: real time      0.1197
    --------------------------------------------
      LOOP:  cpu time     12.1865: real time     12.2005

 eigenvalue-minimisations  :     0
 total energy-change (2. order) :-0.5664758E-03  (-0.1473996E-02)
 number of electron      21.9999999 magnetization 
 augmentation part       10.7953535 magnetization 

 Free energy of the ion-electron system (eV)
  ---------------------------------------------------
  alpha Z        PSCENC =         0.34430737
  Ewald energy   TEWEN  =       221.20106937
  -Hartree energ DENC   =     -2220.78139687
  -exchange      EXHF   =         0.00000000
  -V(xc)+E(xc)   XCENC  =         6.24654488
  PAW double counting   =      2259.03433756    -2214.38535914
  entropy T*S    EENTRO =        -0.00000000
  eigenvalues    EBANDS =      -156.16238326
  atomic energy  EATOM  =      2074.52556292
  ---------------------------------------------------
  free energy    TOTEN  =       -29.97731717 eV

  energy without entropy =      -29.97731717  energy(sigma->0) =      -29.97731717


--------------------------------------------------------------------------------------------------------




--------------------------------------- Iteration      1(  21)  ---------------------------------------


    POTLOK:  cpu time      0.7918: real time      0.7925
    SETDIJ:  cpu time      4.8940: real time      4.8976
    TRIAL :  cpu time      0.3692: real time      0.3691
    CORREC:  cpu time      5.9575: real time      5.9611
    CHARGE:  cpu time      0.1186: real time      0.1185
    --------------------------------------------
      LOOP:  cpu time     12.1345: real time     12.1503

 eigenvalue-minimisations  :     0
 total energy-change (2. order) : 0.4358397E-03  (-0.3086748E-03)
 number of electron      21.9999999 magnetization 
 augmentation part       10.7954977 magnetization 

 Free energy of the ion-electron system (eV)
  ---------------------------------------------------
  alpha Z        PSCENC =         0.34430737
  Ewald energy   TEWEN  =       221.20106937
  -Hartree energ DENC   =     -2220.80673792
  -exchange      EXHF   =         0.00000000
  -V(xc)+E(xc)   XCENC  =         6.24859168
  PAW double counting   =      2259.00039658    -2214.35201346
  entropy T*S    EENTRO =        -0.00000000
  eigenvalues    EBANDS =      -156.13805787
  atomic energy  EATOM  =      2074.52556292
  ---------------------------------------------------
  free energy    TOTEN  =       -29.97688133 eV

  energy without entropy =      -29.97688133  energy(sigma->0) =      -29.97688133


--------------------------------------------------------------------------------------------------------




--------------------------------------- Iteration      1(  22)  ---------------------------------------


    POTLOK:  cpu time      0.7978: real time      0.7980
    SETDIJ:  cpu time      4.8832: real time      4.8859
    TRIAL :  cpu time      0.3674: real time      0.3682
    CORREC:  cpu time      5.9904: real time      5.9922
    CHARGE:  cpu time      0.1172: real time      0.1171
    --------------------------------------------
      LOOP:  cpu time     12.1596: real time     12.1729

 eigenvalue-minimisations  :     0
 total energy-change (2. order) :-0.6137861E-04  (-0.3198759E-03)
 number of electron      21.9999999 magnetization 
 augmentation part       10.7957594 magnetization 

 Free energy of the ion-electron system (eV)
  ---------------------------------------------------
  alpha Z        PSCENC =         0.34430737
  Ewald energy   TEWEN  =       221.20106937
  -Hartree energ DENC   =     -2220.83623981
  -exchange      EXHF   =         0.00000000
  -V(xc)+E(xc)   XCENC  =         6.24998432
  PAW double counting   =      2258.95754663    -2214.30987595
  entropy T*S    EENTRO =        -0.00000000
  eigenvalues    EBANDS =      -156.10929756
  atomic energy  EATOM  =      2074.52556292
  ---------------------------------------------------
  free energy    TOTEN  =       -29.97694271 eV

  energy without entropy =      -29.97694271  energy(sigma->0) =      -29.97694271


--------------------------------------------------------------------------------------------------------




--------------------------------------- Iteration      1(  23)  ---------------------------------------


    POTLOK:  cpu time      0.7881: real time      0.7877
    SETDIJ:  cpu time      4.9003: real time      4.9038
    TRIAL :  cpu time      0.3727: real time      0.3726
    CORREC:  cpu time      5.8879: real time      5.8917
    CHARGE:  cpu time      0.1157: real time      0.1154
    --------------------------------------------
      LOOP:  cpu time     12.0703: real time     12.0845

 eigenvalue-minimisations  :     0
 total energy-change (2. order) :-0.2358262E-03  ( 0.3248380E-03)
 number of electron      21.9999999 magnetization 
 augmentation part       10.7961917 magnetization 

 Free energy of the ion-electron system (eV)
  ---------------------------------------------------
  alpha Z        PSCENC =         0.34430737
  Ewald energy   TEWEN  =       221.20106937
  -Hartree energ DENC   =     -2220.88964189
  -exchange      EXHF   =         0.00000000
  -V(xc)+E(xc)   XCENC  =         6.25207722
  PAW double counting   =      2258.86961662    -2214.22323142
  entropy T*S    EENTRO =        -0.00000000
  eigenvalues    EBANDS =      -156.05693872
  atomic energy  EATOM  =      2074.52556292
  ---------------------------------------------------
  free energy    TOTEN  =       -29.97717854 eV

  energy without entropy =      -29.97717854  energy(sigma->0) =      -29.97717854


--------------------------------------------------------------------------------------------------------




--------------------------------------- Iteration      1(  24)  ---------------------------------------


    POTLOK:  cpu time      0.7830: real time      0.7832
    SETDIJ:  cpu time      4.8826: real time      4.8855
    TRIAL :  cpu time      0.3694: real time      0.3701
    CORREC:  cpu time      5.9479: real time      5.9510
    CHARGE:  cpu time      0.1182: real time      0.1182
    --------------------------------------------
      LOOP:  cpu time     12.1048: real time     12.1201

 eigenvalue-minimisations  :     0
 total energy-change (2. order) :-0.7379685E-03  (-0.2283789E-03)
 number of electron      21.9999999 magnetization 
 augmentation part       10.7962088 magnetization 

 Free energy of the ion-electron system (eV)
  ---------------------------------------------------
  alpha Z        PSCENC =         0.34430737
  Ewald energy   TEWEN  =       221.20106937
  -Hartree energ DENC   =     -2220.97769615
  -exchange      EXHF   =         0.00000000
  -V(xc)+E(xc)   XCENC  =         6.25545737
  PAW double counting   =      2258.70082199    -2214.05653718
  entropy T*S    EENTRO =        -0.00000000
  eigenvalues    EBANDS =      -155.97090220
  atomic energy  EATOM  =      2074.52556292
  ---------------------------------------------------
  free energy    TOTEN  =       -29.97791651 eV

  energy without entropy =      -29.97791651  energy(sigma->0) =      -29.97791651


--------------------------------------------------------------------------------------------------------




--------------------------------------- Iteration      1(  25)  ---------------------------------------


    POTLOK:  cpu time      0.7927: real time      0.7933
    SETDIJ:  cpu time      4.8935: real time      4.8973
    TRIAL :  cpu time      0.3720: real time      0.3719
    CORREC:  cpu time      5.9449: real time      5.9493
    CHARGE:  cpu time      0.1177: real time      0.1176
    --------------------------------------------
      LOOP:  cpu time     12.1268: real time     12.1438

 eigenvalue-minimisations  :     0
 total energy-change (2. order) : 0.1539267E-03  (-0.8733887E-04)
 number of electron      21.9999999 magnetization 
 augmentation part       10.7962274 magnetization 

 Free energy of the ion-electron system (eV)
  ---------------------------------------------------
  alpha Z        PSCENC =         0.34430737
  Ewald energy   TEWEN  =       221.20106937
  -Hartree energ DENC   =     -2220.98137112
  -exchange      EXHF   =         0.00000000
  -V(xc)+E(xc)   XCENC  =         6.25577203
  PAW double counting   =      2258.67568212    -2214.03146210
  entropy T*S    EENTRO =        -0.00000000
  eigenvalues    EBANDS =      -155.96732317
  atomic energy  EATOM  =      2074.52556292
  ---------------------------------------------------
  free energy    TOTEN  =       -29.97776258 eV

  energy without entropy =      -29.97776258  energy(sigma->0) =      -29.97776258


--------------------------------------------------------------------------------------------------------




--------------------------------------- Iteration      1(  26)  ---------------------------------------


    POTLOK:  cpu time      0.7806: real time      0.7810
    SETDIJ:  cpu time      4.8919: real time      4.8951
    TRIAL :  cpu time      0.3687: real time      0.3694
    CORREC:  cpu time      5.9758: real time      5.9794
    CHARGE:  cpu time      0.1178: real time      0.1178
    --------------------------------------------
      LOOP:  cpu time     12.1391: real time     12.1548

 eigenvalue-minimisations  :     0
 total energy-change (2. order) : 0.6716374E-04  (-0.3186082E-04)
 number of electron      21.9999999 magnetization 
 augmentation part       10.7962409 magnetization 

 Free energy of the ion-electron system (eV)
  ---------------------------------------------------
  alpha Z        PSCENC =         0.34430737
  Ewald energy   TEWEN  =       221.20106937
  -Hartree energ DENC   =     -2220.98541814
  -exchange      EXHF   =         0.00000000
  -V(xc)+E(xc)   XCENC  =         6.25589356
  PAW double counting   =      2258.64663240    -2214.00248524
  entropy T*S    EENTRO =        -0.00000000
  eigenvalues    EBANDS =      -155.96325765
  atomic energy  EATOM  =      2074.52556292
  ---------------------------------------------------
  free energy    TOTEN  =       -29.97769541 eV

  energy without entropy =      -29.97769541  energy(sigma->0) =      -29.97769541


--------------------------------------------------------------------------------------------------------




--------------------------------------- Iteration      1(  27)  ---------------------------------------


    POTLOK:  cpu time      0.7922: real time      0.7926
    SETDIJ:  cpu time      4.8921: real time      4.8959
    TRIAL :  cpu time      0.3705: real time      0.3704
    CORREC:  cpu time      5.9609: real time      5.9651
    CHARGE:  cpu time      0.1188: real time      0.1188
    --------------------------------------------
      LOOP:  cpu time     12.1385: real time     12.1553

 eigenvalue-minimisations  :     0
 total energy-change (2. order) : 0.2154613E-04  (-0.2549859E-04)
 number of electron      21.9999999 magnetization 
 augmentation part       10.7962560 magnetization 

 Free energy of the ion-electron system (eV)
  ---------------------------------------------------
  alpha Z        PSCENC =         0.34430737
  Ewald energy   TEWEN  =       221.20106937
  -Hartree energ DENC   =     -2220.98845321
  -exchange      EXHF   =         0.00000000
  -V(xc)+E(xc)   XCENC  =         6.25595636
  PAW double counting   =      2258.62485419    -2213.98076092
  entropy T*S    EENTRO =        -0.00000000
  eigenvalues    EBANDS =      -155.96020994
  atomic energy  EATOM  =      2074.52556292
  ---------------------------------------------------
  free energy    TOTEN  =       -29.97767387 eV

  energy without entropy =      -29.97767387  energy(sigma->0) =      -29.97767387


--------------------------------------------------------------------------------------------------------




--------------------------------------- Iteration      1(  28)  ---------------------------------------


    POTLOK:  cpu time      0.7887: real time      0.7891
    SETDIJ:  cpu time      4.8908: real time      4.8939
    TRIAL :  cpu time      0.3724: real time      0.3731
    CORREC:  cpu time      5.9524: real time      5.9561
    CHARGE:  cpu time      0.1183: real time      0.1182
    --------------------------------------------
      LOOP:  cpu time     12.1259: real time     12.1416

 eigenvalue-minimisations  :     0
 total energy-change (2. order) : 0.4256337E-05  (-0.1942875E-04)
 number of electron      21.9999999 magnetization 
 augmentation part       10.7962709 magnetization 

 Free energy of the ion-electron system (eV)
  ---------------------------------------------------
  alpha Z        PSCENC =         0.34430737
  Ewald energy   TEWEN  =       221.20106937
  -Hartree energ DENC   =     -2220.99184074
  -exchange      EXHF   =         0.00000000
  -V(xc)+E(xc)   XCENC  =         6.25602698
  PAW double counting   =      2258.60196999    -2213.95793204
  entropy T*S    EENTRO =        -0.00000000
  eigenvalues    EBANDS =      -155.95683345
  atomic energy  EATOM  =      2074.52556292
  ---------------------------------------------------
  free energy    TOTEN  =       -29.97766961 eV

  energy without entropy =      -29.97766961  energy(sigma->0) =      -29.97766961


--------------------------------------------------------------------------------------------------------




--------------------------------------- Iteration      1(  29)  ---------------------------------------


    POTLOK:  cpu time      0.7889: real time      0.7896
    SETDIJ:  cpu time      4.8880: real time      4.8919
    TRIAL :  cpu time      0.3697: real time      0.3696
    CORREC:  cpu time      5.9465: real time      5.9509
    CHARGE:  cpu time      0.1201: real time      0.1201
    --------------------------------------------
      LOOP:  cpu time     12.1166: real time     12.1335

 eigenvalue-minimisations  :     0
 total energy-change (2. order) : 0.7351874E-05  (-0.2788388E-04)
 number of electron      21.9999999 magnetization 
 augmentation part       10.7962955 magnetization 

 Free energy of the ion-electron system (eV)
  ---------------------------------------------------
  alpha Z        PSCENC =         0.34430737
  Ewald energy   TEWEN  =       221.20106937
  -Hartree energ DENC   =     -2220.99519826
  -exchange      EXHF   =         0.00000000
  -V(xc)+E(xc)   XCENC  =         6.25608814
  PAW double counting   =      2258.58054063    -2213.93655317
  entropy T*S    EENTRO =        -0.00000000
  eigenvalues    EBANDS =      -155.95347925
  atomic energy  EATOM  =      2074.52556292
  ---------------------------------------------------
  free energy    TOTEN  =       -29.97766226 eV

  energy without entropy =      -29.97766226  energy(sigma->0) =      -29.97766226


--------------------------------------------------------------------------------------------------------




--------------------------------------- Iteration      1(  30)  ---------------------------------------


    POTLOK:  cpu time      0.7829: real time      0.7832
    SETDIJ:  cpu time      4.8896: real time      4.8928
    TRIAL :  cpu time      0.3706: real time      0.3705
    CORREC:  cpu time      5.9507: real time      5.9550
    CHARGE:  cpu time      0.1202: real time      0.1202
    --------------------------------------------
      LOOP:  cpu time     12.1199: real time     12.1365

 eigenvalue-minimisations  :     0
 total energy-change (2. order) :-0.2021606E-04  (-0.2074436E-04)
 number of electron      21.9999999 magnetization 
 augmentation part       10.7963129 magnetization 

 Free energy of the ion-electron system (eV)
  ---------------------------------------------------
  alpha Z        PSCENC =         0.34430737
  Ewald energy   TEWEN  =       221.20106937
  -Hartree energ DENC   =     -2221.00080241
  -exchange      EXHF   =         0.00000000
  -V(xc)+E(xc)   XCENC  =         6.25618735
  PAW double counting   =      2258.54649284    -2213.90258257
  entropy T*S    EENTRO =        -0.00000000
  eigenvalues    EBANDS =      -155.94791734
  atomic energy  EATOM  =      2074.52556292
  ---------------------------------------------------
  free energy    TOTEN  =       -29.97768248 eV

  energy without entropy =      -29.97768248  energy(sigma->0) =      -29.97768248


--------------------------------------------------------------------------------------------------------




--------------------------------------- Iteration      1(  31)  ---------------------------------------


    POTLOK:  cpu time      0.7751: real time      0.7756
    SETDIJ:  cpu time      4.8893: real time      4.8933
    TRIAL :  cpu time      0.3708: real time      0.3707
    CORREC:  cpu time      5.9494: real time      5.9537
    CHARGE:  cpu time      0.1190: real time      0.1190
    --------------------------------------------
      LOOP:  cpu time     12.1076: real time     12.1274

 eigenvalue-minimisations  :     0
 total energy-change (2. order) : 0.5178181E-06  (-0.3131211E-04)
 number of electron      21.9999999 magnetization 
 augmentation part       10.7963440 magnetization 

 Free energy of the ion-electron system (eV)
  ---------------------------------------------------
  alpha Z        PSCENC =         0.34430737
  Ewald energy   TEWEN  =       221.20106937
  -Hartree energ DENC   =     -2221.00488228
  -exchange      EXHF   =         0.00000000
  -V(xc)+E(xc)   XCENC  =         6.25625081
  PAW double counting   =      2258.52198495    -2213.87812302
  entropy T*S    EENTRO =        -0.00000000
  eigenvalues    EBANDS =      -155.94385207
  atomic energy  EATOM  =      2074.52556292
  ---------------------------------------------------
  free energy    TOTEN  =       -29.97768196 eV

  energy without entropy =      -29.97768196  energy(sigma->0) =      -29.97768196


--------------------------------------------------------------------------------------------------------




--------------------------------------- Iteration      1(  32)  ---------------------------------------


    POTLOK:  cpu time      0.7862: real time      0.7865
    SETDIJ:  cpu time      4.8938: real time      4.8968
    TRIAL :  cpu time      0.3798: real time      0.3797
    CORREC:  cpu time      5.9722: real time      5.9768
    CHARGE:  cpu time      0.1181: real time      0.1181
    --------------------------------------------
      LOOP:  cpu time     12.1547: real time     12.1693

 eigenvalue-minimisations  :     0
 total energy-change (2. order) :-0.3780037E-04  (-0.1942828E-04)
 number of electron      21.9999999 magnetization 
 augmentation part       10.7963579 magnetization 

 Free energy of the ion-electron system (eV)
  ---------------------------------------------------
  alpha Z        PSCENC =         0.34430737
  Ewald energy   TEWEN  =       221.20106937
  -Hartree energ DENC   =     -2221.01230935
  -exchange      EXHF   =         0.00000000
  -V(xc)+E(xc)   XCENC  =         6.25636931
  PAW double counting   =      2258.47734549    -2213.83356114
  entropy T*S    EENTRO =        -0.00000000
  eigenvalues    EBANDS =      -155.93650373
  atomic energy  EATOM  =      2074.52556292
  ---------------------------------------------------
  free energy    TOTEN  =       -29.97771976 eV

  energy without entropy =      -29.97771976  energy(sigma->0) =      -29.97771976


--------------------------------------------------------------------------------------------------------




--------------------------------------- Iteration      1(  33)  ---------------------------------------


    POTLOK:  cpu time      0.7755: real time      0.7759
    SETDIJ:  cpu time      4.9014: real time      4.9046
    TRIAL :  cpu time      0.3699: real time      0.3706
    CORREC:  cpu time     23.7466: real time     23.7623
    CHARGE:  cpu time      0.1204: real time      0.1204
    --------------------------------------------
      LOOP:  cpu time     29.9269: real time     29.9554

 eigenvalue-minimisations  :     0
 total energy-change (2. order) : 0.1517139E-04  (-0.1664829E-03)
 number of electron      21.9999999 magnetization 
 augmentation part       10.7964788 magnetization 

 Free energy of the ion-electron system (eV)
  ---------------------------------------------------
  alpha Z        PSCENC =         0.34430737
  Ewald energy   TEWEN  =       221.20106937
  -Hartree energ DENC   =     -2221.01591399
  -exchange      EXHF   =         0.00000000
  -V(xc)+E(xc)   XCENC  =         6.25639333
  PAW double counting   =      2258.45191827    -2213.80816495
  entropy T*S    EENTRO =        -0.00000000
  eigenvalues    EBANDS =      -155.93287690
  atomic energy  EATOM  =      2074.52556292
  ---------------------------------------------------
  free energy    TOTEN  =       -29.97770459 eV

  energy without entropy =      -29.97770459  energy(sigma->0) =      -29.97770459


--------------------------------------------------------------------------------------------------------




--------------------------------------- Iteration      1(  34)  ---------------------------------------


    POTLOK:  cpu time      0.7724: real time      0.7729
    SETDIJ:  cpu time      4.7599: real time      4.7638
    TRIAL :  cpu time      0.3710: real time      0.3710
    CORREC:  cpu time      5.9365: real time      5.9410
    CHARGE:  cpu time      0.1196: real time      0.1195
    --------------------------------------------
      LOOP:  cpu time     11.9622: real time     11.9799

 eigenvalue-minimisations  :     0
 total energy-change (2. order) :-0.2555554E-03  (-0.4497086E-03)
 number of electron      21.9999999 magnetization 
 augmentation part       10.7969331 magnetization 

 Free energy of the ion-electron system (eV)
  ---------------------------------------------------
  alpha Z        PSCENC =         0.34430737
  Ewald energy   TEWEN  =       221.20106937
  -Hartree energ DENC   =     -2221.04937728
  -exchange      EXHF   =         0.00000000
  -V(xc)+E(xc)   XCENC  =         6.25644020
  PAW double counting   =      2258.18830904    -2213.54482080
  entropy T*S    EENTRO =        -0.00000000
  eigenvalues    EBANDS =      -155.89945096
  atomic energy  EATOM  =      2074.52556292
  ---------------------------------------------------
  free energy    TOTEN  =       -29.97796014 eV

  energy without entropy =      -29.97796014  energy(sigma->0) =      -29.97796014


--------------------------------------------------------------------------------------------------------




--------------------------------------- Iteration      1(  35)  ---------------------------------------


    POTLOK:  cpu time      0.7767: real time      0.7771
    SETDIJ:  cpu time      4.8842: real time      4.8874
    TRIAL :  cpu time      0.3721: real time      0.3720
    CORREC:  cpu time      5.9436: real time      5.9478
    CHARGE:  cpu time      0.1192: real time      0.1192
    --------------------------------------------
      LOOP:  cpu time     12.0992: real time     12.1145

 eigenvalue-minimisations  :     0
 total energy-change (2. order) :-0.5207911E-03  (-0.4725697E-03)
 number of electron      21.9999999 magnetization 
 augmentation part       10.7968760 magnetization 

 Free energy of the ion-electron system (eV)
  ---------------------------------------------------
  alpha Z        PSCENC =         0.34430737
  Ewald energy   TEWEN  =       221.20106937
  -Hartree energ DENC   =     -2221.18012793
  -exchange      EXHF   =         0.00000000
  -V(xc)+E(xc)   XCENC  =         6.25645361
  PAW double counting   =      2257.08103801    -2212.43844174
  entropy T*S    EENTRO =        -0.00000000
  eigenvalues    EBANDS =      -155.76834254
  atomic energy  EATOM  =      2074.52556292
  ---------------------------------------------------
  free energy    TOTEN  =       -29.97848093 eV

  energy without entropy =      -29.97848093  energy(sigma->0) =      -29.97848093


--------------------------------------------------------------------------------------------------------




--------------------------------------- Iteration      1(  36)  ---------------------------------------


    POTLOK:  cpu time      0.7696: real time      0.7701
    SETDIJ:  cpu time      4.8999: real time      4.9029
    TRIAL :  cpu time      0.3707: real time      0.3715
    CORREC:  cpu time      6.0372: real time      6.0411
    CHARGE:  cpu time      0.1181: real time      0.1190
    --------------------------------------------
      LOOP:  cpu time     12.1993: real time     12.2159

 eigenvalue-minimisations  :     0
 total energy-change (2. order) : 0.2751100E-03  (-0.1355433E-03)
 number of electron      21.9999999 magnetization 
 augmentation part       10.7968222 magnetization 

 Free energy of the ion-electron system (eV)
  ---------------------------------------------------
  alpha Z        PSCENC =         0.34430737
  Ewald energy   TEWEN  =       221.20106937
  -Hartree energ DENC   =     -2221.17171015
  -exchange      EXHF   =         0.00000000
  -V(xc)+E(xc)   XCENC  =         6.25636885
  PAW double counting   =      2257.06607570    -2212.42328101
  entropy T*S    EENTRO =        -0.00000000
  eigenvalues    EBANDS =      -155.77659886
  atomic energy  EATOM  =      2074.52556292
  ---------------------------------------------------
  free energy    TOTEN  =       -29.97820582 eV

  energy without entropy =      -29.97820582  energy(sigma->0) =      -29.97820582


--------------------------------------------------------------------------------------------------------




--------------------------------------- Iteration      1(  37)  ---------------------------------------


    POTLOK:  cpu time      0.7610: real time      0.7606
    SETDIJ:  cpu time      4.8860: real time      4.8899
    TRIAL :  cpu time      0.3738: real time      0.3738
    CORREC:  cpu time      5.9493: real time      5.9538
    CHARGE:  cpu time      0.1193: real time      0.1192
    --------------------------------------------
      LOOP:  cpu time     12.0966: real time     12.1130

 eigenvalue-minimisations  :     0
 total energy-change (2. order) : 0.1133707E-03  (-0.4178053E-04)
 number of electron      21.9999999 magnetization 
 augmentation part       10.7967916 magnetization 

 Free energy of the ion-electron system (eV)
  ---------------------------------------------------
  alpha Z        PSCENC =         0.34430737
  Ewald energy   TEWEN  =       221.20106937
  -Hartree energ DENC   =     -2221.16439566
  -exchange      EXHF   =         0.00000000
  -V(xc)+E(xc)   XCENC  =         6.25602912
  PAW double counting   =      2257.05256859    -2212.40960998
  entropy T*S    EENTRO =        -0.00000000
  eigenvalues    EBANDS =      -155.78362417
  atomic energy  EATOM  =      2074.52556292
  ---------------------------------------------------
  free energy    TOTEN  =       -29.97809245 eV

  energy without entropy =      -29.97809245  energy(sigma->0) =      -29.97809245


--------------------------------------------------------------------------------------------------------




--------------------------------------- Iteration      1(  38)  ---------------------------------------


    POTLOK:  cpu time      0.8682: real time      0.8688
    SETDIJ:  cpu time      4.8920: real time      4.8952
    TRIAL :  cpu time      0.3688: real time      0.3694
    CORREC:  cpu time      5.9303: real time      5.9339
    CHARGE:  cpu time      0.1178: real time      0.1185
    --------------------------------------------
      LOOP:  cpu time     12.1805: real time     12.1971

 eigenvalue-minimisations  :     0
 total energy-change (2. order) : 0.5791692E-04  (-0.2812662E-04)
 number of electron      21.9999999 magnetization 
 augmentation part       10.7967627 magnetization 

 Free energy of the ion-electron system (eV)
[...]
  ---------------------------------------------------
  free energy    TOTEN  =       -29.97772475 eV

  energy without entropy =      -29.97772475  energy(sigma->0) =      -29.97772475


--------------------------------------------------------------------------------------------------------




--------------------------------------- Iteration      1( 134)  ---------------------------------------


    POTLOK:  cpu time      0.7721: real time      0.7725
    SETDIJ:  cpu time      4.8911: real time      4.8951
    TRIAL :  cpu time      0.3732: real time      0.3732
    CORREC:  cpu time      5.9466: real time      5.9512
    CHARGE:  cpu time      0.1182: real time      0.1182
    --------------------------------------------
      LOOP:  cpu time     12.1129: real time     12.1218

 eigenvalue-minimisations  :     0
 total energy-change (2. order) : 0.5157643E-05  (-0.3053976E-05)
 number of electron      21.9999999 magnetization 
 augmentation part       10.7962285 magnetization 

 Free energy of the ion-electron system (eV)
  ---------------------------------------------------
  alpha Z        PSCENC =         0.34430737
  Ewald energy   TEWEN  =       221.20106937
  -Hartree energ DENC   =     -2221.12239856
  -exchange      EXHF   =         0.00000000
  -V(xc)+E(xc)   XCENC  =         6.25249364
  PAW double counting   =      2256.91396114    -2212.27108324
  entropy T*S    EENTRO =        -0.00000000
  eigenvalues    EBANDS =      -155.82163223
  atomic energy  EATOM  =      2074.52556292
  ---------------------------------------------------
  free energy    TOTEN  =       -29.97771959 eV

  energy without entropy =      -29.97771959  energy(sigma->0) =      -29.97771959


--------------------------------------------------------------------------------------------------------




--------------------------------------- Iteration      1( 135)  ---------------------------------------


    POTLOK:  cpu time      0.7697: real time      0.7702
    SETDIJ:  cpu time      4.8974: real time      4.9007
    TRIAL :  cpu time      0.3669: real time      0.3668
    CORREC:  cpu time      5.9452: real time      5.9499
    CHARGE:  cpu time      0.1178: real time      0.1178
    --------------------------------------------
      LOOP:  cpu time     12.1076: real time     12.1159

 eigenvalue-minimisations  :     0
 total energy-change (2. order) :-0.4027795E-05  (-0.8378199E-06)
 number of electron      21.9999999 magnetization 
 augmentation part       10.7962284 magnetization 

 Free energy of the ion-electron system (eV)
  ---------------------------------------------------
  alpha Z        PSCENC =         0.34430737
  Ewald energy   TEWEN  =       221.20106937
  -Hartree energ DENC   =     -2221.12250542
  -exchange      EXHF   =         0.00000000
  -V(xc)+E(xc)   XCENC  =         6.25250300
  PAW double counting   =      2256.91435053    -2212.27147836
  entropy T*S    EENTRO =        -0.00000000
  eigenvalues    EBANDS =      -155.82153302
  atomic energy  EATOM  =      2074.52556292
  ---------------------------------------------------
  free energy    TOTEN  =       -29.97772362 eV

  energy without entropy =      -29.97772362  energy(sigma->0) =      -29.97772362


--------------------------------------------------------------------------------------------------------




--------------------------------------- Iteration      1( 136)  ---------------------------------------


    POTLOK:  cpu time      0.7722: real time      0.7724
    SETDIJ:  cpu time      4.8863: real time      4.8896
    TRIAL :  cpu time      0.3814: real time      0.3822
    CORREC:  cpu time      5.9577: real time      5.9615
    CHARGE:  cpu time      0.1177: real time      0.1185
    --------------------------------------------
      LOOP:  cpu time     12.1266: real time     12.1355

 eigenvalue-minimisations  :     0
 total energy-change (2. order) : 0.3079139E-05  (-0.1306573E-05)
 number of electron      21.9999999 magnetization 
 augmentation part       10.7962283 magnetization 

 Free energy of the ion-electron system (eV)
  ---------------------------------------------------
  alpha Z        PSCENC =         0.34430737
  Ewald energy   TEWEN  =       221.20106937
  -Hartree energ DENC   =     -2221.12253021
  -exchange      EXHF   =         0.00000000
  -V(xc)+E(xc)   XCENC  =         6.25250560
  PAW double counting   =      2256.91444260    -2212.27157176
  entropy T*S    EENTRO =        -0.00000000
  eigenvalues    EBANDS =      -155.82150642
  atomic energy  EATOM  =      2074.52556292
  ---------------------------------------------------
  free energy    TOTEN  =       -29.97772054 eV

  energy without entropy =      -29.97772054  energy(sigma->0) =      -29.97772054


--------------------------------------------------------------------------------------------------------




--------------------------------------- Iteration      1( 137)  ---------------------------------------


    POTLOK:  cpu time      0.7748: real time      0.7745
    SETDIJ:  cpu time      4.8939: real time      4.8979
    TRIAL :  cpu time      0.3678: real time      0.3678
    CORREC:  cpu time      5.8526: real time      5.8573
    CHARGE:  cpu time      0.1164: real time      0.1163
    --------------------------------------------
      LOOP:  cpu time     12.0162: real time     12.0245

 eigenvalue-minimisations  :     0
 total energy-change (2. order) : 0.3916186E-05  ( 0.1280569E-04)
 number of electron      21.9999999 magnetization 
 augmentation part       10.7962279 magnetization 

 Free energy of the ion-electron system (eV)
  ---------------------------------------------------
  alpha Z        PSCENC =         0.34430737
  Ewald energy   TEWEN  =       221.20106937
  -Hartree energ DENC   =     -2221.12257431
  -exchange      EXHF   =         0.00000000
  -V(xc)+E(xc)   XCENC  =         6.25250706
  PAW double counting   =      2256.91460677    -2212.27173835
  entropy T*S    EENTRO =        -0.00000000
  eigenvalues    EBANDS =      -155.82145744
  atomic energy  EATOM  =      2074.52556292
  ---------------------------------------------------
  free energy    TOTEN  =       -29.97771662 eV

  energy without entropy =      -29.97771662  energy(sigma->0) =      -29.97771662


--------------------------------------------------------------------------------------------------------




--------------------------------------- Iteration      1( 138)  ---------------------------------------


    POTLOK:  cpu time      0.7827: real time      0.7830
    SETDIJ:  cpu time      4.8967: real time      4.8995
    TRIAL :  cpu time      0.3728: real time      0.3735
    CORREC:  cpu time      5.9551: real time      5.9590
    CHARGE:  cpu time      0.1255: real time      0.1255
    --------------------------------------------
      LOOP:  cpu time     12.1434: real time     12.1511

 eigenvalue-minimisations  :     0
 total energy-change (2. order) :-0.6507824E-05  (-0.8556537E-06)
 number of electron      21.9999999 magnetization 
 augmentation part       10.7962278 magnetization 

 Free energy of the ion-electron system (eV)
  ---------------------------------------------------
  alpha Z        PSCENC =         0.34430737
  Ewald energy   TEWEN  =       221.20106937
  -Hartree energ DENC   =     -2221.12268124
  -exchange      EXHF   =         0.00000000
  -V(xc)+E(xc)   XCENC  =         6.25249859
  PAW double counting   =      2256.91500936    -2212.27214687
  entropy T*S    EENTRO =        -0.00000000
  eigenvalues    EBANDS =      -155.82134261
  atomic energy  EATOM  =      2074.52556292
  ---------------------------------------------------
  free energy    TOTEN  =       -29.97772313 eV

  energy without entropy =      -29.97772313  energy(sigma->0) =      -29.97772313


--------------------------------------------------------------------------------------------------------




--------------------------------------- Iteration      1( 139)  ---------------------------------------


    POTLOK:  cpu time      0.7709: real time      0.7715
    SETDIJ:  cpu time      4.8939: real time      4.8979
    TRIAL :  cpu time      0.3711: real time      0.3710
    CORREC:  cpu time      5.9493: real time      5.9541
    EDDIAG:  cpu time      0.1558: real time      0.1558
    CHARGE:  cpu time      0.1182: real time      0.1182
    --------------------------------------------
      LOOP:  cpu time     12.2697: real time     12.2790

 eigenvalue-minimisations  :     0
 total energy-change (2. order) : 0.9597557E-06  (-0.8379760E-06)
 number of electron      21.9999999 magnetization 
 augmentation part       10.7962277 magnetization 

 Free energy of the ion-electron system (eV)
  ---------------------------------------------------
  alpha Z        PSCENC =         0.34430737
  Ewald energy   TEWEN  =       221.20106937
  -Hartree energ DENC   =     -2221.12270972
  -exchange      EXHF   =         0.00000000
  -V(xc)+E(xc)   XCENC  =         6.25250189
  PAW double counting   =      2256.91511678    -2212.27225578
  entropy T*S    EENTRO =        -0.00000000
  eigenvalues    EBANDS =      -155.82131499
  atomic energy  EATOM  =      2074.52556292
  ---------------------------------------------------
  free energy    TOTEN  =       -29.97772217 eV

  energy without entropy =      -29.97772217  energy(sigma->0) =      -29.97772217


--------------------------------------------------------------------------------------------------------


  average scaling for gradient   0.3126


 average (electrostatic) potential at core
  the test charge radii are     1.1249
  (the norm of the test charge is              1.0000)
       1 -87.0874       2 -87.0874
 
 
 
 E-fermi :  -4.6562     XC(G=0):  -0.3090     alpha+bet : -0.0465

 Fermi energy:        -4.6562389196

 k-point     1 :       0.0000    0.0000    0.0000
  band No.  band energies     occupation 
      1      -8.2354      2.00000
      2      -7.8136      2.00000
      3      -7.8136      2.00000
      4      -7.3036      2.00000
      5      -7.3017      2.00000
      6      -7.1022      2.00000
      7      -7.1001      2.00000
      8      -6.8359      2.00000
      9      -6.8359      2.00000
     10      -6.6806      2.00000
     11      -4.8881      2.00000
     12      -2.5238      0.00000
     13      -1.2535      0.00000
     14      -1.2107      0.00000
     15      -0.7906      0.00000
     16      -0.7900      0.00000
     17      -0.1186      0.00000
     18      -0.0676      0.00000
     19      -0.0367      0.00000
     20       0.0888      0.00000
     21       0.1653      0.00000
     22       0.3488      0.00000
     23       0.4234      0.00000
     24       0.4331      0.00000
     25       0.4358      0.00000
     26       0.4479      0.00000
     27       0.4694      0.00000
     28       0.4751      0.00000
     29       0.5171      0.00000
     30       0.5927      0.00000
     31       0.6195      0.00000
     32       0.6555      0.00000


--------------------------------------------------------------------------------------------------------


 soft charge-density along one line, spin component           1
         0         1         2         3         4         5         6         7         8         9
 total charge-density along one line
 
 pseudopotential strength for first ion, spin component:           1
-10.517   0.000   0.000   0.000  -0.000 -10.494   0.000   0.000
  0.000 -10.542  -0.000  -0.000  -0.000   0.000 -10.518  -0.000
  0.000  -0.000 -10.561  -0.000   0.000   0.000  -0.000 -10.536
  0.000  -0.000  -0.000 -10.542   0.000   0.000  -0.000  -0.000
 -0.000  -0.000   0.000   0.000 -10.519  -0.000  -0.000   0.000
-10.494   0.000   0.000   0.000  -0.000 -10.446   0.000   0.000
  0.000 -10.518  -0.000  -0.000  -0.000   0.000 -10.469  -0.000
  0.000  -0.000 -10.536  -0.000   0.000   0.000  -0.000 -10.486
  0.000  -0.000  -0.000 -10.518   0.000   0.000  -0.000  -0.000
 -0.000  -0.000   0.000   0.000 -10.496  -0.000  -0.000   0.000
  0.000  -0.000   0.015  -0.000   0.000   0.000  -0.000   0.015
  0.000  -0.000   0.025  -0.000   0.000   0.000  -0.000   0.024
 -0.000   0.039  -0.000   0.000  -0.000  -0.000   0.038  -0.000
  0.000   0.000   0.040  -0.000  -0.000   0.000   0.000   0.039
  0.000   0.000   0.000   0.039  -0.000   0.000   0.000   0.000
 -0.000   0.046  -0.000   0.000  -0.000  -0.000   0.044  -0.000
  0.000   0.000   0.047  -0.000  -0.000   0.000   0.000   0.045
  0.000   0.000   0.000   0.046  -0.000   0.000   0.000   0.000
 total augmentation occupancy for first ion, spin component:           1
  2.787   0.000  -0.000  -0.000  -0.000  -0.436   0.000   0.000   0.000   0.000  -0.000   0.000   0.000   0.000   0.000  -0.000
  0.000   2.876  -0.000   0.000  -0.000  -0.000  -0.598   0.000  -0.000   0.000   0.000  -0.000   0.019  -0.000   0.000   0.024
 -0.000  -0.000   3.191   0.000  -0.000   0.000   0.000  -0.999  -0.000   0.000  -1.329   0.390   0.000   0.144  -0.000  -0.000
 -0.000   0.000   0.000   2.876  -0.000   0.000  -0.000  -0.000  -0.598   0.000  -0.000   0.000   0.000   0.000   0.019  -0.000
 -0.000  -0.000  -0.000  -0.000   2.790   0.000   0.000   0.000   0.000  -0.437  -0.000   0.000   0.000   0.000   0.000  -0.000
 -0.436  -0.000   0.000   0.000   0.000   0.076  -0.000   0.000  -0.000  -0.000   0.000  -0.000  -0.000  -0.000   0.000  -0.000
  0.000  -0.598   0.000  -0.000   0.000  -0.000   0.306  -0.000   0.000  -0.000  -0.000   0.000  -0.039   0.000   0.000   0.001
  0.000   0.000  -0.999  -0.000   0.000   0.000  -0.000   0.782   0.000   0.000   1.131  -0.326  -0.000  -0.183   0.000   0.000
  0.000  -0.000  -0.000  -0.598   0.000  -0.000   0.000   0.000   0.306  -0.000   0.000  -0.000   0.000  -0.000  -0.039  -0.000
  0.000   0.000   0.000   0.000  -0.437  -0.000  -0.000   0.000  -0.000   0.077   0.000  -0.000  -0.000  -0.000  -0.000   0.000
 -0.000   0.000  -1.329  -0.000  -0.000   0.000  -0.000   1.131   0.000   0.000   3.553  -0.948  -0.000  -0.369   0.000   0.000
  0.000  -0.000   0.390   0.000   0.000  -0.000   0.000  -0.326  -0.000  -0.000  -0.948   0.254   0.000   0.102  -0.000  -0.000
  0.000   0.019   0.000   0.000   0.000  -0.000  -0.039  -0.000   0.000  -0.000  -0.000   0.000   0.007   0.000  -0.000  -0.001
  0.000  -0.000   0.144   0.000   0.000  -0.000   0.000  -0.183  -0.000  -0.000  -0.369   0.102   0.000   0.052  -0.000  -0.000
  0.000   0.000  -0.000   0.019   0.000   0.000   0.000   0.000  -0.039  -0.000   0.000  -0.000  -0.000  -0.000   0.007   0.000
 -0.000   0.024  -0.000  -0.000  -0.000  -0.000   0.001   0.000  -0.000   0.000   0.000  -0.000  -0.001  -0.000   0.000   0.000
  0.000   0.000   0.007  -0.000   0.000   0.000  -0.000   0.019   0.000   0.000   0.042  -0.012  -0.000  -0.007   0.000   0.000
  0.000  -0.000   0.000   0.024  -0.000  -0.000  -0.000  -0.000   0.001   0.000  -0.000   0.000   0.000   0.000  -0.001  -0.000


------------------------ aborting loop because EDIFF is reached ----------------------------------------


    FORLOC:  cpu time      0.0048: real time      0.0048
    FORNL :  cpu time      0.0478: real time      0.0478
    STRESS:  cpu time      1.6804: real time      1.6810
    FORCOR:  cpu time      0.6756: real time      0.6761
    OFIELD:  cpu time      0.0003: real time      0.0003

  FORCE on cell =-STRESS in cart. coord.  units (eV):
  Direction    XX          YY          ZZ          XY          YZ          ZX
  --------------------------------------------------------------------------------------
  Alpha Z     0.34431     0.34431     0.34431
  Ewald    -147.83442  -147.83442   516.86994     0.00000    -0.00000    -0.00000
  Hartree   580.53549   580.53589  1060.05135     0.00001    -0.00036     0.00010
  E(xc)    -131.20212  -131.20269  -130.83468     0.00006     0.00008    -0.00010
  Local    -748.03374  -748.03435 -1881.90844     0.00001     0.00034    -0.00010
  n-local   -24.89128   -24.89167   -27.71633     0.00002     0.00004    -0.00001
  augment   194.46746   194.46673   192.57655     0.00001     0.00015    -0.00002
  Kinetic   276.52417   276.52409   270.88497     0.00000     0.00008    -0.00002
  Fock        0.00000     0.00000     0.00000     0.00000     0.00000     0.00000
  -------------------------------------------------------------------------------------
  Total      -0.09013    -0.09211     0.26766     0.00011     0.00033    -0.00016
  in kB      -0.01461    -0.01493     0.04340     0.00002     0.00005    -0.00003
  external pressure =        0.00 kB  Pullay stress =        0.00 kB


 VOLUME and BASIS-vectors are now :
 -----------------------------------------------------------------------------
  energy-cutoff  :      520.00
  volume of cell :     9881.61
      direct lattice vectors                 reciprocal lattice vectors
    21.138852197  0.000000000  0.000000000     0.047306258  0.000000000  0.000000000
     0.000000000 21.138852197  0.000000000     0.000000000  0.047306258  0.000000000
     0.000000000  0.000000000 22.113885220     0.000000000  0.000000000  0.045220457

  length of vectors
    21.138852197 21.138852197 22.113885220     0.047306258  0.047306258  0.045220457


 FORCES acting on ions:
    Electron-Ion                     Ewald-Force                    Non-Local-Force
 -----------------------------------------------------------------------------------------------
   0.982E-04 -.617E-03 -.270E+03   0.613E-16 0.475E-16 0.263E+03   -.801E-04 0.475E-03 0.743E+01
   0.970E-04 -.350E-03 0.270E+03   -.807E-16 -.260E-16 -.263E+03   -.118E-04 0.246E-03 -.743E+01
 -----------------------------------------------------------------------------------------------
   -.169E-02 0.390E-03 0.249E-03   -.194E-16 0.215E-16 0.000E+00   -.919E-04 0.721E-03 0.648E-02
 
 
 POSITION                                       TOTAL-FORCE (eV/Angst)
 -----------------------------------------------------------------------------------
     10.56943     12.68331     16.48808        -0.000266      0.000112      0.100062
     10.56943     12.68331     13.92383         0.000266     -0.000112     -0.100062
 -----------------------------------------------------------------------------------
    total drift:                               -0.001777      0.001111      0.006724


--------------------------------------------------------------------------------------------------------



  FREE ENERGIE OF THE ION-ELECTRON SYSTEM (eV)
  ---------------------------------------------------
  free  energy   TOTEN  =       -29.97772217 eV

  energy  without entropy=      -29.97772217  energy(sigma->0) =      -29.97772217
 


--------------------------------------------------------------------------------------------------------


    POTLOK:  cpu time      5.6495: real time      5.6534


--------------------------------------------------------------------------------------------------------


     LOOP+:  cpu time   1733.3347: real time   1735.3778
    4ORBIT:  cpu time      0.0000: real time      0.0000

 total amount of memory used by VASP MPI-rank0    68034. kBytes
=======================================================================

   base      :      30000. kBytes
   nonlr-proj:        314. kBytes
   fftplans  :      11482. kBytes
   grid      :      25425. kBytes
   one-center:         15. kBytes
   wavefun   :        798. kBytes
 
  
  
 General timing and accounting informations for this job:
 ========================================================
  
                  Total CPU time used (sec):     1747.435
                            User time (sec):     1745.130
                          System time (sec):        2.305
                         Elapsed time (sec):     1750.028
  
                   Maximum memory used (kb):      736744.
                   Average memory used (kb):          N/A
  
                          Minor page faults:        39623
                          Major page faults:            0
                 Voluntary context switches:        12560
