 vasp.6.3.0 20Jan22 (build Apr  1 2022 16:44:48) complex                         
 executed on        HPECrayEX_GCC date 2022.08.15  14:22:14
 running  512 mpi-ranks, with    1 threads/rank
 distrk:  each k-point on  256 cores,    2 groups
 distr:  one band on NCORE=   4 cores,   64 groups


--------------------------------------------------------------------------------------------------------


 INCAR:
   SYSTEM = MgO-rocksalt
   ISMEAR = 0
   SIGMA = 0.05
   EDIFF = 1E-6
   ALGO = ALL
   ISTART = 0
   IBRION = -1
   NSW = 0
   ISYM = 2
   LHFCALC = .TRUE.
   GGA = B5
   AEXX = 0.2
   AGGAX = 0.72
   AGGAC = 0.81
   ALDAC = 0.19
   IVDW = 12
   VDW_S8 = 1.9889
   VDW_A1 = 0.3981
   VDW_A2 = 4.4211
   ENCUT = 520
   PREC = Accurate
   LASPH = .TRUE.
   LREAL = Auto
   ISPIN = 1
   NELM = 200
   NELMIN = 8
   NCORE = 4
   KPAR = 2
   LWAVE = .FALSE.
   LCHARG = .FALSE.

 POTCAR:    PAW_PBE Au 04Oct2007                  
 -----------------------------------------------------------------------------
|                                                                             |
|           W    W    AA    RRRRR   N    N  II  N    N   GGGG   !!!           |
|           W    W   A  A   R    R  NN   N  II  NN   N  G    G  !!!           |
|           W    W  A    A  R    R  N N  N  II  N N  N  G       !!!           |
|           W WW W  AAAAAA  RRRRR   N  N N  II  N  N N  G  GGG   !            |
|           WW  WW  A    A  R   R   N   NN  II  N   NN  G    G                |
|           W    W  A    A  R    R  N    N  II  N    N   GGGG   !!!           |
|                                                                             |
|     You have selected ISYM=2 for a HF type calculation. This will           |
|     symmetrize the charge density but not the exchange potential. I         |
|     suggest to use ISYM=3 instead. This uses symmetry to obtain the         |
|     orbitals at all k-points in the Brillouin zone, but does not apply      |
|     symmetry to the Hartree potential directly. The resultant charge        |
|     might have lower symmetry than the crystal but, at least, Hartree       |
|     and exchange are fully compatible.                                      |
|                                                                             |
 -----------------------------------------------------------------------------

 POTCAR:    PAW_PBE Au 04Oct2007                  
   SHA256 =  d0044ae04e2bdce24051b198fc5c053d722a5bc6fe3c3b100514a13fc5d2db88 Au/POTCAR             
   COPYR  = (c) Copyright 04Oct2007 Georg Kresse                                                    
   COPYR  = This file is part of the software VASP. Any use, copying, and all other rights are regul
   COPYR  = If you do not have a valid VASP license, you may not use, copy or distribute this file. 
   VRHFIN =Au: s1d10                                                                                
   LEXCH  = PE                                                                                      
   EATOM  =   926.0867 eV,   68.0654 Ry                                                             
                                                                                                    
   TITEL  = PAW_PBE Au 04Oct2007                                                                    
   LULTRA =        F    use ultrasoft PP ?                                                          
   IUNSCR =        1    unscreen: 0-lin 1-nonlin 2-no                                               
   RPACOR =    2.330    partial core radius                                                         
   POMASS =  196.966; ZVAL   =   11.000    mass and valenz                                          
   RCORE  =    2.500    outmost cutoff radius                                                       
   RWIGS  =    2.840; RWIGS  =    1.503    wigner-seitz radius (au A)                               
   ENMAX  =  229.943; ENMIN  =  172.457 eV                                                          
   ICORE  =        3    local potential                                                             
   LCOR   =        T    correct aug charges                                                         
   LPAW   =        T    paw PP                                                                      
   EAUG   =  356.670                                                                                
   DEXC   =    0.000                                                                                
   RMAX   =    2.562    core radius for proj-oper                                                   
   RAUG   =    1.300    factor for augmentation sphere                                              
   RDEP   =    2.598    radius for radial grids                                                     
   RDEPT  =    2.193    core radius for aug-charge                                                  
                                                                                                    
   Atomic configuration                                                                             
   16 entries                                                                                       
     n  l   j            E        occ.                                                              
     1  0  0.50    -80748.5001   2.0000                                                             
     2  0  0.50    -14244.7466   2.0000                                                             
     2  1  1.50    -12310.9591   6.0000                                                             
     3  0  0.50     -3362.1768   2.0000                                                             
     3  1  1.50     -2801.5463   6.0000                                                             
     3  2  2.50     -2203.8206  10.0000                                                             
     4  0  0.50      -729.8168   2.0000                                                             
     4  1  1.50      -546.0527   6.0000                                                             
     4  2  2.50      -325.7302  10.0000                                                             
     4  3  3.50       -81.1472  14.0000                                                             
     5  0  0.50      -108.3201   2.0000                                                             
     5  1  1.50       -59.7479   6.0000                                                             
     5  2  2.50        -6.8783  10.0000                                                             
     6  0  0.50        -5.7602   1.0000                                                             
     6  1  1.50        -6.8029   0.0000                                                             
     5  3  2.50        -1.3606   0.0000                                                             
   Description                                                                                      
     l       E           TYP  RCUT    TYP  RCUT                                                     
     2     -6.8782861     23  2.500                                                                 
     2     -8.2388687     23  2.500                                                                 
     0     -5.7601759     23  2.500                                                                 
     0     -0.8493231     23  2.500                                                                 
     1     -2.7211652     23  2.500                                                                 
     1     27.2116520     23  2.500                                                                 
     3     -1.3605826     23  2.500                                                                 
  local pseudopotential read in
  partial core-charges read in
  partial kinetic energy density read in
  atomic valenz-charges read in
  non local Contribution for L=           2  read in
    real space projection operators read in
  non local Contribution for L=           2  read in
    real space projection operators read in
  non local Contribution for L=           0  read in
    real space projection operators read in
  non local Contribution for L=           0  read in
    real space projection operators read in
  non local Contribution for L=           1  read in
    real space projection operators read in
  non local Contribution for L=           1  read in
    real space projection operators read in
    PAW grid and wavefunctions read in

   number of l-projection  operators is LMAX  =           6
   number of lm-projection operators is LMMAX =          18

 -----------------------------------------------------------------------------
|                                                                             |
|               ----> ADVICE to this user running VASP <----                  |
|                                                                             |
|     You have a (more or less) 'small supercell' and for smaller cells       |
|     it is recommended to use the reciprocal-space projection scheme!        |
|     The real-space optimization is not efficient for small cells and it     |
|     is also less accurate ...                                               |
|     Therefore, set LREAL=.FALSE. in the INCAR file.                         |
|                                                                             |
 -----------------------------------------------------------------------------

 Optimization of the real space projectors (new method)

 maximal supplied QI-value         = 15.12
 optimisation between [QCUT,QGAM] = [ 11.64, 23.28] = [ 37.95,151.78] Ry 
 Optimized for a Real-space Cutoff    1.49 Angstroem

   l    n(q)    QCUT    max X(q) W(low)/X(q) W(high)/X(q)  e(spline) 
   2      9    11.641    60.898    0.24E-03    0.10E-03    0.19E-06
   2      9    11.641    58.894    0.25E-03    0.10E-03    0.19E-06
   0     10    11.641   109.617    0.73E-04    0.33E-04    0.11E-06
   0     10    11.641    75.026    0.71E-04    0.32E-04    0.11E-06
   1     10    11.641    16.344    0.27E-04    0.97E-04    0.16E-06
   1     10    11.641    10.160    0.23E-04    0.77E-04    0.13E-06
 -----------------------------------------------------------------------------
|                                                                             |
|               ----> ADVICE to this user running VASP <----                  |
|                                                                             |
|     You enforced a specific xc type in the INCAR file but a different       |
|     type was found in the POTCAR file.                                      |
|     I HOPE YOU KNOW WHAT YOU ARE DOING!                                     |
|                                                                             |
 -----------------------------------------------------------------------------

  PAW_PBE Au 04Oct2007                  :
 energy of atom  1       EATOM= -926.0867
 kinetic energy error for atom=    0.0034 (will be added to EATOM!!)


 POSCAR: au8
  positions in direct lattice
  velocities in cartesian coordinates
 exchange correlation table for  LEXCH =       12
   RHO(1)=    0.500       N(1)  =     2000
   RHO(2)=  100.500       N(2)  =     4000



--------------------------------------------------------------------------------------------------------


 ion  position               nearest neighbor table
   1  0.008  0.997  0.997-   2 2.65   4 2.72   7 2.72
   2  0.140  0.992  0.992-   1 2.65   3 2.65   4 2.84   5 2.84   7 2.84   8 2.84
   3  0.272  0.997  0.997-   2 2.65   5 2.72   8 2.72
   4  0.073  0.116  0.008-   5 2.69   1 2.72   6 2.75   2 2.84   7 3.06
   5  0.207  0.116  0.008-   4 2.69   3 2.72   6 2.75   2 2.84   8 3.06
   6  0.140  0.127  0.127-   4 2.75   5 2.75   7 2.75   8 2.75
   7  0.073  0.008  0.116-   8 2.69   1 2.72   6 2.75   2 2.84   4 3.06
   8  0.207  0.008  0.116-   7 2.69   3 2.72   6 2.75   2 2.84   5 3.06

  LATTYP: Found a simple cubic cell.
 ALAT       =    20.0000000000
  
  Lattice vectors:
  
 A1 = (  20.0000000000,   0.0000000000,   0.0000000000)
 A2 = (   0.0000000000,  20.0000000000,   0.0000000000)
 A3 = (   0.0000000000,   0.0000000000,  20.0000000000)


Analysis of symmetry for initial positions (statically):
=====================================================================
 Subroutine PRICEL returns:
 Original cell was already a primitive cell.
 

 Routine SETGRP: Setting up the symmetry group for a 
 simple cubic supercell.


 Subroutine GETGRP returns: Found  4 space group operations
 (whereof  2 operations were pure point group operations)
 out of a pool of 48 trial point group operations.


The static configuration has the point symmetry C_1h.
 The point group associated with its full space group is C_2v.


Analysis of symmetry for dynamics (positions and initial velocities):
=====================================================================
 Subroutine PRICEL returns:
 Original cell was already a primitive cell.
 

 Routine SETGRP: Setting up the symmetry group for a 
 simple cubic supercell.


 Subroutine GETGRP returns: Found  4 space group operations
 (whereof  2 operations were pure point group operations)
 out of a pool of 48 trial point group operations.


The dynamic configuration has the point symmetry C_1h.
 The point group associated with its full space group is C_2v.


 Subroutine INISYM returns: Found  4 space group operations
 (whereof  2 operations are pure point group operations),
 and found     1 'primitive' translations


----------------------------------------------------------------------------------------

                                     Primitive cell                                     

  volume of cell :    8000.0000

  direct lattice vectors                    reciprocal lattice vectors
    20.000000000  0.000000000  0.000000000     0.050000000  0.000000000  0.000000000
     0.000000000 20.000000000  0.000000000     0.000000000  0.050000000  0.000000000
     0.000000000  0.000000000 20.000000000     0.000000000  0.000000000  0.050000000

  length of vectors
    20.000000000 20.000000000 20.000000000     0.050000000  0.050000000  0.050000000

  position of ions in fractional coordinates (direct lattice)
     0.007905846  0.997190163  0.997190163
     0.140000000  0.992415064  0.992415064
     0.272094154  0.997190163  0.997190163
     0.072855632  0.116311041  0.008078308
     0.207144368  0.116311041  0.008078308
     0.140000000  0.127425862  0.127425862
     0.072855632  0.008078308  0.116311041
     0.207144368  0.008078308  0.116311041

  ion indices of the primitive-cell ions
   primitive index   ion index
                 1           1
                 2           2
                 3           3
                 4           4
                 5           5
                 6           6
                 7           7
                 8           8

----------------------------------------------------------------------------------------



 KPOINTS: KPOINTS created by Atomic Simulation Env

Automatic generation of k-mesh.
 Grid dimensions read from file:
 generate k-points for:    1    1    1

 Generating k-lattice:

  Cartesian coordinates                     Fractional coordinates (reciprocal lattice)
     0.050000000  0.000000000  0.000000000     1.000000000  0.000000000  0.000000000
     0.000000000  0.050000000  0.000000000     0.000000000  1.000000000  0.000000000
     0.000000000  0.000000000  0.050000000     0.000000000  0.000000000  1.000000000

  Length of vectors
     0.050000000  0.050000000  0.050000000

  Shift w.r.t. Gamma in fractional coordinates (k-lattice)
     0.000000000  0.000000000  0.000000000

 
 Subroutine IBZKPT returns following result:
 ===========================================
 
 Found      1 irreducible k-points:
 
 Following reciprocal coordinates:
            Coordinates               Weight
  0.000000  0.000000  0.000000      1.000000
 
 Following cartesian coordinates:
            Coordinates               Weight
  0.000000  0.000000  0.000000      1.000000
 
 
 Subroutine IBZKPT_HF returns following result:
 ==============================================
 
 Found      1 k-points in 1st BZ
 the following      1 k-points will be used (e.g. in the exchange kernel)
 Following reciprocal coordinates:   # in IRBZ
  0.000000  0.000000  0.000000    1.00000000   1 t-inv F


--------------------------------------------------------------------------------------------------------




 Dimension of arrays:
   k-points           NKPTS =      1   k-points in BZ     NKDIM =      1   number of bands    NBANDS=     64
   number of dos      NEDOS =    301   number of ions     NIONS =      8
   non local maximal  LDIM  =      6   non local SUM 2l+1 LMDIM =     18
   total plane-waves  NPLWV = ******
   max r-space proj   IRMAX =   5885   max aug-charges    IRDMAX=  25995
   dimension x,y,z NGX =   150 NGY =  150 NGZ =  150
   dimension x,y,z NGXF=   300 NGYF=  300 NGZF=  300
   support grid    NGXF=   300 NGYF=  300 NGZF=  300
   ions per type =               8
   NGX,Y,Z   is equivalent  to a cutoff of  12.47, 12.47, 12.47 a.u.
   NGXF,Y,Z  is equivalent  to a cutoff of  24.94, 24.94, 24.94 a.u.

 SYSTEM =  MgO-rocksalt                            
 POSCAR =  au8                                     

 Startparameter for this run:
   NWRITE =      2    write-flag & timer
   PREC   = accura    normal or accurate (medium, high low for compatibility)
   ISTART =      0    job   : 0-new  1-cont  2-samecut
   ICHARG =      2    charge: 1-file 2-atom 10-const
   ISPIN  =      1    spin polarized calculation?
   LNONCOLLINEAR =      F non collinear calculations
   LSORBIT =      F    spin-orbit coupling
   INIWAV =      1    electr: 0-lowe 1-rand  2-diag
   LASPH  =      T    aspherical Exc in radial PAW
 Electronic Relaxation 1
   ENCUT  =  520.0 eV  38.22 Ry    6.18 a.u.  37.19 37.19 37.19*2*pi/ulx,y,z
   ENINI  =  520.0     initial cutoff
   ENAUG  =  356.7 eV  augmentation charge cutoff
   NELM   =    200;   NELMIN=  8; NELMDL= -5     # of ELM steps 
   EDIFF  = 0.1E-05   stopping-criterion for ELM
   LREAL  =      T    real-space projection
   NLSPLINE    = F    spline interpolate recip. space projectors
   LCOMPAT=      F    compatible to vasp.4.4
   GGA_COMPAT  = T    GGA compatible to vasp.4.4-vasp.4.6
   LMAXPAW     = -100 max onsite density
   LMAXMIX     =    2 max onsite mixed and CHGCAR
   VOSKOWN=      0    Vosko Wilk Nusair interpolation
   ROPT   =   -0.00025
 Ionic relaxation
   EDIFFG = 0.1E-04   stopping-criterion for IOM
   NSW    =      0    number of steps for IOM
   NBLOCK =      1;   KBLOCK =      1    inner block; outer block 
   IBRION =     -1    ionic relax: 0-MD 1-quasi-New 2-CG
   NFREE  =      0    steps in history (QN), initial steepest desc. (CG)
   ISIF   =      0    stress and relaxation
   IWAVPR =     10    prediction:  0-non 1-charg 2-wave 3-comb
   ISYM   =      2    0-nonsym 1-usesym 2-fastsym
   LCORR  =      T    Harris-Foulkes like correction to forces

   POTIM  = 0.5000    time-step for ionic-motion
   TEIN   =    0.0    initial temperature
   TEBEG  =    0.0;   TEEND  =   0.0 temperature during run
   SMASS  =  -3.00    Nose mass-parameter (am)
   estimated Nose-frequenzy (Omega)   =  0.10E-29 period in steps = 0.13E+47 mass=  -0.914E-26a.u.
   SCALEE = 1.0000    scale energy and forces
   NPACO  =    256;   APACO  = 10.0  distance and # of slots for P.C.
   PSTRESS=    0.0 pullay stress

  Mass of Ions in am
   POMASS = 196.97
  Ionic Valenz
   ZVAL   =  11.00
  Atomic Wigner-Seitz radii
   RWIGS  =  -1.00
  virtual crystal weights 
   VCA    =   1.00
   NELECT =      88.0000    total number of electrons
   NUPDOWN=      -1.0000    fix difference up-down

 DOS related values:
   EMIN   =  10.00;   EMAX   =-10.00  energy-range for DOS
   EFERMI =   0.00
   ISMEAR =     0;   SIGMA  =   0.05  broadening in eV -4-tet -1-fermi 0-gaus

 Electronic relaxation 2 (details)
   IALGO  =     58    algorithm
   LDIAG  =      T    sub-space diagonalisation (order eigenvalues)
   LSUBROT=      F    optimize rotation matrix (better conditioning)
   TURBO    =      0    0=normal 1=particle mesh
   IRESTART =      0    0=no restart 2=restart with 2 vectors
   NREBOOT  =      0    no. of reboots
   NMIN     =      0    reboot dimension
   EREF     =   0.00    reference energy to select bands
   IMIX   =      4    mixing-type and parameters
     AMIX     =   0.40;   BMIX     =  1.00
     AMIX_MAG =   1.60;   BMIX_MAG =  1.00
     AMIN     =   0.10
     WC   =   100.;   INIMIX=   1;  MIXPRE=   1;  MAXMIX= -45

 Intra band minimization:
   WEIMIN = 0.0000     energy-eigenvalue tresh-hold
   EBREAK =  0.39E-08  absolut break condition
   DEPER  =   0.30     relativ break condition  

   TIME   =   0.40     timestep for ELM

  volume/ion in A,a.u.               =    1000.00      6748.33
  Fermi-wavevector in a.u.,A,eV,Ry     =   0.364087  0.688026  1.803584  0.132560
  Thomas-Fermi vector in A             =   1.286639

 Write flags
   LWAVE        =      F    write WAVECAR
   LDOWNSAMPLE  =      F    k-point downsampling of WAVECAR
   LCHARG       =      F    write CHGCAR
   LVTOT        =      F    write LOCPOT, total local potential
   LVHAR        =      F    write LOCPOT, Hartree potential only
   LELF         =      F    write electronic localiz. function (ELF)
   LORBIT       =      0    0 simple, 1 ext, 2 COOP (PROOUT), +10 PAW based schemes


 Dipole corrections
   LMONO  =      F    monopole corrections only (constant potential shift)
   LDIPOL =      F    correct potential (dipole corrections)
   IDIPOL =      0    1-x, 2-y, 3-z, 4-all directions 
   EPSILON=  1.0000000 bulk dielectric constant

 Exchange correlation treatment:
   GGA     =    B5    GGA type
   LEXCH   =    12    internal setting for exchange type
   LIBXC   =     F    Libxc                    
   VOSKOWN =     0    Vosko Wilk Nusair interpolation
   EXXOEP  =     0    0=HF, 1=EXX-LHF (local Hartree Fock) 2=EXX OEP
   LHFCALC =     T    Hartree Fock is set to
   LSYMGRAD=     F    symmetrize gradient (conserves proper symmetry)
   PRECFOCK=normal    Normal, Fast or Accurate (Low or Medium for compatibility)
   LRHFCALC=     F    long range Hartree Fock
   LRSCOR  =     F    long range correlation only (use DFT for short range part)
   LTHOMAS =     F    Thomas Fermi screening in HF
   LMODELHF=     F    short range full HF, long range fraction AEXX
   LFOCKACE=     T    use Adeptively-Compressed-Exchange operator
   ENCUT4O =  -1.0   cutoff for four orbital integrals eV
   LMAXFOCK=     4    L truncation for augmentation on plane wave grid
   LMAXFOCKAE=  -1    L truncation for all-electron charge restoration on plane wave grid
   NMAXFOCKAE=   1    number of basis functions for all-electron charge restoration
   LFOCKAEDFT=     F  apply the AE augmentation even for DFT
   NKREDX  =     1    reduce k-point grid by
   NKREDY  =     1    reduce k-point grid by
   NKREDZ  =     1    reduce k-point grid by
   SHIFTRED=     F    shift reduced grid of Gamma
   HFKIDENT=     F    idential grid for each k-point
   ODDONLY =     F    use only odd q-grid points
   EVENONLY=     F    use only even q-grid points
   HFALPHA =   -1.0000 decay constant for conv. correction
   MCALPHA =    0.0000 extent of test-charge in conv. correction in multipole expansion
   AEXX    =    0.2000 exact exchange contribution
   HFSCREEN=    0.0000 screening length (either q_TF or 0.3 A-1)
   HFSCREENC=   0.0000 screening length for correlation (either q_TF or 0.3 A-1)
   HFRCUT  =    0.0000 spherical cutoff for potential kernel
   ALDAX   =    0.8000 LDA exchange part
   AGGAX   =    0.7200 GGA exchange part
   ALDAC   =    0.1900 LDA correlation
   AGGAC   =    0.8100 GGA correlation
   ENCUTFOCK=  -1.0 apply spherical cutoff to Coloumb kernel
   NBANDSGWLOW=     1    first orbital included in HF term
   NBLOCK_FOCK=    64    blocking factor in FOCK_ACC

 Linear response parameters
   LEPSILON=     F    determine dielectric tensor
   LRPA    =     F    only Hartree local field effects (RPA)
   LNABLA  =     F    use nabla operator in PAW spheres
   LVEL    =     F    velocity operator in full k-point grid
   CSHIFT  =0.1000    complex shift for real part using Kramers Kronig
   OMEGAMAX=  -1.0    maximum frequency
   DEG_THRESHOLD= 0.2000000E-02 threshold for treating states as degnerate
   RTIME   =   -0.100 relaxation time in fs
  (WPLASMAI=    0.000 imaginary part of plasma frequency in eV, 0.658/RTIME)
   DFIELD  = 0.0000000 0.0000000 0.0000000 field for delta impulse in time

  Optional k-point grid parameters
   LKPOINTS_OPT  =     F    use optional k-point grid
   KPOINTS_OPT_MODE=     1    mode for optional k-point grid

 Orbital magnetization related:
   ORBITALMAG=     F  switch on orbital magnetization
   LCHIMAG   =     F  perturbation theory with respect to B field
   DQ        =  0.001000  dq finite difference perturbation B field
   LLRAUG    =     F  two centre corrections for induced B field



--------------------------------------------------------------------------------------------------------


 Static calculation
 charge density and potential will be updated during run
 non-spin polarized calculation
 Conjugate gradient for all bands (Freysoldt, et al. PRB 79, 241103 (2009))
 preconditioned conjugated gradient                                        
 perform sub-space diagonalisation
    before iterative eigenvector-optimisation
 modified Broyden-mixing scheme, WC =      100.0
 initial mixing is a Kerker type mixing with AMIX =  0.4000 and BMIX =      1.0000
 Hartree-type preconditioning will be used
 using additional bands           20
 real space projection scheme for non local part
 use partial core corrections
 no Harris-corrections to forces 
 use gradient corrections 
 use of overlap-Matrix (Vanderbilt PP)
 Gauss-broadening in eV      SIGMA  =   0.05


--------------------------------------------------------------------------------------------------------


  energy-cutoff  :      520.00
  volume of cell :     8000.00
      direct lattice vectors                 reciprocal lattice vectors
    20.000000000  0.000000000  0.000000000     0.050000000  0.000000000  0.000000000
     0.000000000 20.000000000  0.000000000     0.000000000  0.050000000  0.000000000
     0.000000000  0.000000000 20.000000000     0.000000000  0.000000000  0.050000000

  length of vectors
    20.000000000 20.000000000 20.000000000     0.050000000  0.050000000  0.050000000



 k-points in units of 2pi/SCALE and weight: KPOINTS created by Atomic Simulation Env
   0.00000000  0.00000000  0.00000000       1.000

 k-points in reciprocal lattice and weights: KPOINTS created by Atomic Simulation Env
   0.00000000  0.00000000  0.00000000       1.000

 position of ions in fractional coordinates (direct lattice) 
   0.00790585  0.99719016  0.99719016
   0.14000000  0.99241506  0.99241506
   0.27209415  0.99719016  0.99719016
   0.07285563  0.11631104  0.00807831
   0.20714437  0.11631104  0.00807831
   0.14000000  0.12742586  0.12742586
   0.07285563  0.00807831  0.11631104
   0.20714437  0.00807831  0.11631104

 position of ions in cartesian coordinates  (Angst):
   0.15811693 19.94380326 19.94380326
   2.80000000 19.84830129 19.84830129
   5.44188307 19.94380326 19.94380326
   1.45711264  2.32622082  0.16156615
   4.14288736  2.32622082  0.16156615
   2.80000000  2.54851725  2.54851725
   1.45711264  0.16156615  2.32622082
   4.14288736  0.16156615  2.32622082



--------------------------------------------------------------------------------------------------------


 k-point   1 :   0.0000 0.0000 0.0000  plane waves:  215503

 maximum and minimum number of plane-waves per node :     53900    53857

 maximum number of plane-waves:    215503
 maximum index in each direction: 
   IXMAX=   37   IYMAX=   37   IZMAX=   37
   IXMIN=  -37   IYMIN=  -37   IZMIN=  -37


 real space projection operators:
  total allocation   :       6363.84 KBytes
  max/ min on nodes  :       1626.61       1563.33


 parallel 3D FFT for wavefunctions:
    minimum data exchange during FFTs selected (reduces bandwidth)
 parallel 3D FFT for charge:
    minimum data exchange during FFTs selected (reduces bandwidth)


 FFT grid for exact exchange (Hartree Fock) 
  NGX =112; NGY =112; NGZ =112


 Radii for the augmentation spheres in the non-local exchange
 for species   1 augmentation radius   1.512 (default was   1.210)
       energy cutoff for augmentation   2080.0

 real space projection operators:
  total allocation   :       3977.54 KBytes
  max/ min on nodes  :       1005.86        986.33

 Maximum index for augmentation-charges in exchange          645
  SETUP_FOCK is finished

 total amount of memory used by VASP MPI-rank0   131421. kBytes
=======================================================================

   base      :      30000. kBytes
   nonlr-proj:       4339. kBytes
   fftplans  :      51426. kBytes
   grid      :      42969. kBytes
   one-center:         31. kBytes
   HF        :         64. kBytes
   wavefun   :       2592. kBytes

     INWAV:  cpu time      0.0001: real time      0.0002
 Broyden mixing: mesh for mixing (old mesh)
   NGX = 75   NGY = 75   NGZ = 75
  (NGX  =300   NGY  =300   NGZ  =300)
  gives a total of 421875 points

 initial charge density was supplied:
 charge density of overlapping atoms calculated
 number of electron      88.0000000 magnetization 
 keeping initial charge density in first step


--------------------------------------------------------------------------------------------------------


 Maximum index for non-local projection operator         1564
 Maximum index for augmentation-charges         1019 (set IRDMAX)


--------------------------------------------------------------------------------------------------------


    FEWALD:  cpu time      0.0005: real time      0.0005


--------------------------------------- Iteration      1(   1)  ---------------------------------------


    POTLOK:  cpu time      0.1614: real time      0.1617
    SETDIJ:  cpu time      0.1133: real time      0.1133
    TRIAL :  cpu time      0.3606: real time      0.3610
    CORREC:  cpu time      0.0009: real time      0.0009
    --------------------------------------------
      LOOP:  cpu time      0.6376: real time      0.6384

 eigenvalue-minimisations  :   128
 total energy-change (2. order) :-0.2115599E+05  (-0.1699250E+04)
 number of electron      88.0000000 magnetization 
 augmentation part       88.0000000 magnetization 

 Free energy of the ion-electron system (eV)
  ---------------------------------------------------
  alpha Z        PSCENC =         9.31836840
  Ewald energy   TEWEN  =      7463.93985099
  -Hartree energ DENC   =    -14561.14647860
  -exchange      EXHF   =         0.00000000
  -V(xc)+E(xc)   XCENC  =       117.01981783
  PAW double counting   =      6992.78002682   -28610.01536986
  entropy T*S    EENTRO =        -0.02273875
  eigenvalues    EBANDS =        41.40013164
  atomic energy  EATOM  =      7390.73709587
  ---------------------------------------------------
  free energy    TOTEN  =    -21155.98929566 eV

  energy without entropy =   -21155.96655691  energy(sigma->0) =   -21155.97792629
  exchange ACFDT corr.  =         0.00000000  see jH, gK, PRB 81, 115126


--------------------------------------------------------------------------------------------------------




--------------------------------------- Iteration      1(   2)  ---------------------------------------


    TRIAL :  cpu time      0.7996: real time      0.7997
    CORREC:  cpu time      0.0005: real time      0.0005
    --------------------------------------------
      LOOP:  cpu time      0.8057: real time      0.8128

 eigenvalue-minimisations  :   256
 total energy-change (2. order) :-0.7089712E+03  (-0.7089554E+03)
 number of electron      88.0000000 magnetization 
 augmentation part       88.0000000 magnetization 

 Free energy of the ion-electron system (eV)
  ---------------------------------------------------
  alpha Z        PSCENC =         9.31836840
  Ewald energy   TEWEN  =      7463.93985099
  -Hartree energ DENC   =    -14561.14647860
  -exchange      EXHF   =         0.00000000
  -V(xc)+E(xc)   XCENC  =       117.01981783
  PAW double counting   =      6992.78002682   -28610.01536986
  entropy T*S    EENTRO =        -0.00130016
  eigenvalues    EBANDS =      -667.59254318
  atomic energy  EATOM  =      7390.73709587
  ---------------------------------------------------
  free energy    TOTEN  =    -21864.96053190 eV

  energy without entropy =   -21864.95923174  energy(sigma->0) =   -21864.95988182
  exchange ACFDT corr.  =         0.00000000  see jH, gK, PRB 81, 115126


--------------------------------------------------------------------------------------------------------




--------------------------------------- Iteration      1(   3)  ---------------------------------------


    TRIAL :  cpu time      0.5399: real time      0.5399
    CORREC:  cpu time      0.0002: real time      0.0002
    --------------------------------------------
      LOOP:  cpu time      0.5454: real time      0.5523

 eigenvalue-minimisations  :   192
 total energy-change (2. order) :-0.1747306E+03  (-0.1747193E+03)
 number of electron      88.0000000 magnetization 
 augmentation part       88.0000000 magnetization 

 Free energy of the ion-electron system (eV)
  ---------------------------------------------------
  alpha Z        PSCENC =         9.31836840
  Ewald energy   TEWEN  =      7463.93985099
  -Hartree energ DENC   =    -14561.14647860
  -exchange      EXHF   =         0.00000000
  -V(xc)+E(xc)   XCENC  =       117.01981783
  PAW double counting   =      6992.78002682   -28610.01536986
  entropy T*S    EENTRO =        -0.00000000
  eigenvalues    EBANDS =      -842.32446513
  atomic energy  EATOM  =      7390.73709587
  ---------------------------------------------------
  free energy    TOTEN  =    -22039.69115368 eV

  energy without entropy =   -22039.69115368  energy(sigma->0) =   -22039.69115368
  exchange ACFDT corr.  =         0.00000000  see jH, gK, PRB 81, 115126


--------------------------------------------------------------------------------------------------------




--------------------------------------- Iteration      1(   4)  ---------------------------------------


    TRIAL :  cpu time      0.3489: real time      0.3489
    CORREC:  cpu time      0.0002: real time      0.0002
    --------------------------------------------
      LOOP:  cpu time      0.3618: real time      0.3620

 eigenvalue-minimisations  :   128
 total energy-change (2. order) :-0.2268714E+01  (-0.2268715E+01)
 number of electron      88.0000000 magnetization 
 augmentation part       88.0000000 magnetization 

 Free energy of the ion-electron system (eV)
  ---------------------------------------------------
  alpha Z        PSCENC =         9.31836840
  Ewald energy   TEWEN  =      7463.93985099
  -Hartree energ DENC   =    -14561.14647860
  -exchange      EXHF   =         0.00000000
  -V(xc)+E(xc)   XCENC  =       117.01981783
  PAW double counting   =      6992.78002682   -28610.01536986
  entropy T*S    EENTRO =        -0.00000000
  eigenvalues    EBANDS =      -844.59317869
  atomic energy  EATOM  =      7390.73709587
  ---------------------------------------------------
  free energy    TOTEN  =    -22041.95986724 eV

  energy without entropy =   -22041.95986724  energy(sigma->0) =   -22041.95986724
  exchange ACFDT corr.  =         0.00000000  see jH, gK, PRB 81, 115126


--------------------------------------------------------------------------------------------------------




--------------------------------------- Iteration      1(   5)  ---------------------------------------


    POTLOK:  cpu time      0.1945: real time      0.1945
    SETDIJ:  cpu time      0.3646: real time      0.3646
    TRIAL :  cpu time      6.3260: real time      6.3296
    CORREC:  cpu time      0.0002: real time      0.0002
    CHARGE:  cpu time      0.4334: real time      0.4336
    --------------------------------------------
      LOOP:  cpu time      7.3222: real time      7.3347

 eigenvalue-minimisations  :   192
 total energy-change (2. order) : 0.2202544E+05  (-0.7095508E+01)
 number of electron      88.0000010 magnetization 
 augmentation part       32.7176521 magnetization 

 Free energy of the ion-electron system (eV)
  ---------------------------------------------------
  alpha Z        PSCENC =         9.31836840
  Ewald energy   TEWEN  =      7463.93985099
  -Hartree energ DENC   =    -14561.14647860
  -exchange      EXHF   =       164.46440997
  -V(xc)+E(xc)   XCENC  =        90.02720044
  PAW double counting   =      7017.43071938    -6850.78642831
  entropy T*S    EENTRO =        -0.00000000
  eigenvalues    EBANDS =      -740.50840597
  atomic energy  EATOM  =      7390.73709587
  ---------------------------------------------------
  free energy    TOTEN  =       -16.52366783 eV

  energy without entropy =      -16.52366783  energy(sigma->0) =      -16.52366783
  exchange ACFDT corr.  =        -0.00000000  see jH, gK, PRB 81, 115126


--------------------------------------------------------------------------------------------------------




--------------------------------------- Iteration      1(   6)  ---------------------------------------


    POTLOK:  cpu time      0.1944: real time      0.1944
    SETDIJ:  cpu time      0.3710: real time      0.3710
    TRIAL :  cpu time      5.9416: real time      5.9445
    CORREC:  cpu time      6.8128: real time      6.8151
    CHARGE:  cpu time      0.4251: real time      0.4256
    --------------------------------------------
      LOOP:  cpu time     13.7580: real time     13.7640

 eigenvalue-minimisations  :     0
 total energy-change (2. order) : 0.1041011E+01  (-0.1019389E+01)
 number of electron      88.0000010 magnetization 
 augmentation part       32.6892170 magnetization 

 Free energy of the ion-electron system (eV)
  ---------------------------------------------------
  alpha Z        PSCENC =         9.31836840
  Ewald energy   TEWEN  =      7463.93985099
  -Hartree energ DENC   =    -14630.67739786
  -exchange      EXHF   =       158.07361279
  -V(xc)+E(xc)   XCENC  =        88.76214437
  PAW double counting   =      8623.84387064    -8468.57019427
  entropy T*S    EENTRO =        -0.00000000
  eigenvalues    EBANDS =      -650.91000736
  atomic energy  EATOM  =      7390.73709587
  ---------------------------------------------------
  free energy    TOTEN  =       -15.48265643 eV

  energy without entropy =      -15.48265643  energy(sigma->0) =      -15.48265643
  exchange ACFDT corr.  =        -0.00000000  see jH, gK, PRB 81, 115126


--------------------------------------------------------------------------------------------------------




--------------------------------------- Iteration      1(   7)  ---------------------------------------


    POTLOK:  cpu time      0.1963: real time      0.1963
    SETDIJ:  cpu time      0.3632: real time      0.3632
    TRIAL :  cpu time      5.9393: real time      5.9416
    CORREC:  cpu time      6.7351: real time      6.7372
    CHARGE:  cpu time      0.4232: real time      0.4232
    --------------------------------------------
      LOOP:  cpu time     13.6706: real time     13.6753

 eigenvalue-minimisations  :     0
 total energy-change (2. order) :-0.1021800E+01  (-0.1354488E+00)
 number of electron      88.0000010 magnetization 
 augmentation part       32.8194353 magnetization 

 Free energy of the ion-electron system (eV)
  ---------------------------------------------------
  alpha Z        PSCENC =         9.31836840
  Ewald energy   TEWEN  =      7463.93985099
  -Hartree energ DENC   =    -14534.34320841
  -exchange      EXHF   =       157.63334108
  -V(xc)+E(xc)   XCENC  =        88.17701939
  PAW double counting   =      8511.73975414    -8356.25032332
  entropy T*S    EENTRO =        -0.00000000
  eigenvalues    EBANDS =      -747.45635408
  atomic energy  EATOM  =      7390.73709587
  ---------------------------------------------------
  free energy    TOTEN  =       -16.50445594 eV

  energy without entropy =      -16.50445594  energy(sigma->0) =      -16.50445594
  exchange ACFDT corr.  =        -0.00000000  see jH, gK, PRB 81, 115126


--------------------------------------------------------------------------------------------------------




--------------------------------------- Iteration      1(   8)  ---------------------------------------


    POTLOK:  cpu time      0.1966: real time      0.1966
    SETDIJ:  cpu time      0.3644: real time      0.3644
    TRIAL :  cpu time      5.9437: real time      5.9458
    CORREC:  cpu time      6.7965: real time      6.7994
    CHARGE:  cpu time      0.4210: real time      0.4210
    --------------------------------------------
      LOOP:  cpu time     13.7281: real time     13.7412

 eigenvalue-minimisations  :     0
 total energy-change (2. order) :-0.1355558E+00  (-0.5043523E-01)
 number of electron      88.0000010 magnetization 
 augmentation part       32.7538934 magnetization 

 Free energy of the ion-electron system (eV)
  ---------------------------------------------------
  alpha Z        PSCENC =         9.31836840
  Ewald energy   TEWEN  =      7463.93985099
  -Hartree energ DENC   =    -14549.18495473
  -exchange      EXHF   =       157.96487747
  -V(xc)+E(xc)   XCENC  =        88.65489400
  PAW double counting   =      8487.79450716    -8332.05073823
  entropy T*S    EENTRO =        -0.00000000
  eigenvalues    EBANDS =      -733.81391262
  atomic energy  EATOM  =      7390.73709587
  ---------------------------------------------------
  free energy    TOTEN  =       -16.64001170 eV

  energy without entropy =      -16.64001170  energy(sigma->0) =      -16.64001170
  exchange ACFDT corr.  =        -0.00000000  see jH, gK, PRB 81, 115126


--------------------------------------------------------------------------------------------------------




--------------------------------------- Iteration      1(   9)  ---------------------------------------


    POTLOK:  cpu time      0.1960: real time      0.1960
    SETDIJ:  cpu time      0.3646: real time      0.3647
    TRIAL :  cpu time      5.9226: real time      5.9248
    CORREC:  cpu time      6.7654: real time      6.7681
    CHARGE:  cpu time      0.4190: real time      0.4190
    --------------------------------------------
      LOOP:  cpu time     13.6736: real time     13.6864

 eigenvalue-minimisations  :     0
 total energy-change (2. order) :-0.5026393E-01  (-0.1330752E-01)
 number of electron      88.0000010 magnetization 
 augmentation part       32.7621487 magnetization 

 Free energy of the ion-electron system (eV)
  ---------------------------------------------------
  alpha Z        PSCENC =         9.31836840
  Ewald energy   TEWEN  =      7463.93985099
  -Hartree energ DENC   =    -14538.27328987
  -exchange      EXHF   =       157.80525943
  -V(xc)+E(xc)   XCENC  =        88.44499236
  PAW double counting   =      8437.88390389    -8282.34442497
  entropy T*S    EENTRO =        -0.00000000
  eigenvalues    EBANDS =      -744.20203174
  atomic energy  EATOM  =      7390.73709587
  ---------------------------------------------------
  free energy    TOTEN  =       -16.69027563 eV

  energy without entropy =      -16.69027563  energy(sigma->0) =      -16.69027563
  exchange ACFDT corr.  =        -0.00000000  see jH, gK, PRB 81, 115126


--------------------------------------------------------------------------------------------------------




--------------------------------------- Iteration      1(  10)  ---------------------------------------


    POTLOK:  cpu time      0.1965: real time      0.1965
    SETDIJ:  cpu time      0.3632: real time      0.3632
    TRIAL :  cpu time      5.9419: real time      5.9442
    CORREC:  cpu time      6.7514: real time      6.7541
    CHARGE:  cpu time      0.4208: real time      0.4208
    --------------------------------------------
      LOOP:  cpu time     13.6812: real time     13.6929

 eigenvalue-minimisations  :     0
 total energy-change (2. order) :-0.1332757E-01  (-0.3155595E-02)
 number of electron      88.0000010 magnetization 
 augmentation part       32.7754146 magnetization 

 Free energy of the ion-electron system (eV)
  ---------------------------------------------------
  alpha Z        PSCENC =         9.31836840
  Ewald energy   TEWEN  =      7463.93985099
  -Hartree energ DENC   =    -14536.19039678
  -exchange      EXHF   =       157.81440668
  -V(xc)+E(xc)   XCENC  =        88.44580358
  PAW double counting   =      8424.90639491    -8269.25851186
  entropy T*S    EENTRO =        -0.00000000
  eigenvalues    EBANDS =      -746.41661499
  atomic energy  EATOM  =      7390.73709587
  ---------------------------------------------------
  free energy    TOTEN  =       -16.70360320 eV

  energy without entropy =      -16.70360320  energy(sigma->0) =      -16.70360320
  exchange ACFDT corr.  =        -0.00000000  see jH, gK, PRB 81, 115126


--------------------------------------------------------------------------------------------------------




--------------------------------------- Iteration      1(  11)  ---------------------------------------


    POTLOK:  cpu time      0.1957: real time      0.1957
    SETDIJ:  cpu time      0.3631: real time      0.3631
    TRIAL :  cpu time      5.9263: real time      5.9288
    CORREC:  cpu time      7.1633: real time      7.1745
    CHARGE:  cpu time      0.4210: real time      0.4210
    --------------------------------------------
      LOOP:  cpu time     14.0745: real time     14.0970

 eigenvalue-minimisations  :     0
 total energy-change (2. order) :-0.3144466E-02  (-0.1180903E-02)
 number of electron      88.0000010 magnetization 
 augmentation part       32.7677733 magnetization 

 Free energy of the ion-electron system (eV)
  ---------------------------------------------------
  alpha Z        PSCENC =         9.31836840
  Ewald energy   TEWEN  =      7463.93985099
  -Hartree energ DENC   =    -14537.79030507
  -exchange      EXHF   =       157.84873225
  -V(xc)+E(xc)   XCENC  =        88.48895167
  PAW double counting   =      8424.65280991    -8268.92959736
  entropy T*S    EENTRO =        -0.00000000
  eigenvalues    EBANDS =      -744.97265432
  atomic energy  EATOM  =      7390.73709587
  ---------------------------------------------------
  free energy    TOTEN  =       -16.70674767 eV

  energy without entropy =      -16.70674767  energy(sigma->0) =      -16.70674767
  exchange ACFDT corr.  =        -0.00000000  see jH, gK, PRB 81, 115126


--------------------------------------------------------------------------------------------------------




--------------------------------------- Iteration      1(  12)  ---------------------------------------


    POTLOK:  cpu time      0.1955: real time      0.1959
    SETDIJ:  cpu time      0.3638: real time      0.3639
    TRIAL :  cpu time      6.9182: real time      6.9214
    CORREC:  cpu time      8.1502: real time      8.1534
    CHARGE:  cpu time      0.4216: real time      0.4216
    --------------------------------------------
      LOOP:  cpu time     16.0548: real time     16.0704

 eigenvalue-minimisations  :     0
 total energy-change (2. order) :-0.1188602E-02  (-0.3516700E-03)
 number of electron      88.0000010 magnetization 
 augmentation part       32.7677859 magnetization 

 Free energy of the ion-electron system (eV)
  ---------------------------------------------------
  alpha Z        PSCENC =         9.31836840
  Ewald energy   TEWEN  =      7463.93985099
  -Hartree energ DENC   =    -14535.85605596
  -exchange      EXHF   =       157.82252263
  -V(xc)+E(xc)   XCENC  =        88.45191676
  PAW double counting   =      8422.00119298    -8266.27984313
  entropy T*S    EENTRO =        -0.00000000
  eigenvalues    EBANDS =      -746.84298480
  atomic energy  EATOM  =      7390.73709587
  ---------------------------------------------------
  free energy    TOTEN  =       -16.70793627 eV

  energy without entropy =      -16.70793627  energy(sigma->0) =      -16.70793627
  exchange ACFDT corr.  =        -0.00000000  see jH, gK, PRB 81, 115126


--------------------------------------------------------------------------------------------------------




--------------------------------------- Iteration      1(  13)  ---------------------------------------


    POTLOK:  cpu time      0.1945: real time      0.1945
    SETDIJ:  cpu time      0.3643: real time      0.3643
    TRIAL :  cpu time      7.5927: real time      7.5959
    CORREC:  cpu time      8.5204: real time      8.5230
    CHARGE:  cpu time      0.4202: real time      0.4202
    --------------------------------------------
      LOOP:  cpu time     17.0975: real time     17.1120

 eigenvalue-minimisations  :     0
 total energy-change (2. order) :-0.3536465E-03  (-0.8614782E-04)
 number of electron      88.0000010 magnetization 
 augmentation part       32.7685149 magnetization 

 Free energy of the ion-electron system (eV)
  ---------------------------------------------------
  alpha Z        PSCENC =         9.31836840
  Ewald energy   TEWEN  =      7463.93985099
  -Hartree energ DENC   =    -14536.06446096
  -exchange      EXHF   =       157.82403779
  -V(xc)+E(xc)   XCENC  =        88.45478265
  PAW double counting   =      8422.19852627    -8266.48249016
  entropy T*S    EENTRO =        -0.00000000
  eigenvalues    EBANDS =      -746.63400077
  atomic energy  EATOM  =      7390.73709587
  ---------------------------------------------------
  free energy    TOTEN  =       -16.70828992 eV

  energy without entropy =      -16.70828992  energy(sigma->0) =      -16.70828992
  exchange ACFDT corr.  =        -0.00000000  see jH, gK, PRB 81, 115126


--------------------------------------------------------------------------------------------------------




--------------------------------------- Iteration      1(  14)  ---------------------------------------


    POTLOK:  cpu time      0.1937: real time      0.1938
    SETDIJ:  cpu time      0.3650: real time      0.3650
    TRIAL :  cpu time      7.7589: real time      7.7615
    CORREC:  cpu time      8.5554: real time      8.5575
    CHARGE:  cpu time      0.4165: real time      0.4165
    --------------------------------------------
      LOOP:  cpu time     17.2956: real time     17.3081

 eigenvalue-minimisations  :     0
 total energy-change (2. order) :-0.8807182E-04  (-0.3150773E-04)
 number of electron      88.0000010 magnetization 
 augmentation part       32.7682349 magnetization 

 Free energy of the ion-electron system (eV)
  ---------------------------------------------------
  alpha Z        PSCENC =         9.31836840
  Ewald energy   TEWEN  =      7463.93985099
  -Hartree energ DENC   =    -14536.10945775
  -exchange      EXHF   =       157.82661842
  -V(xc)+E(xc)   XCENC  =        88.45818667
  PAW double counting   =      8422.31380989    -8266.59950637
  entropy T*S    EENTRO =        -0.00000000
  eigenvalues    EBANDS =      -746.59334411
  atomic energy  EATOM  =      7390.73709587
  ---------------------------------------------------
  free energy    TOTEN  =       -16.70837799 eV

  energy without entropy =      -16.70837799  energy(sigma->0) =      -16.70837799
  exchange ACFDT corr.  =        -0.00000000  see jH, gK, PRB 81, 115126


--------------------------------------------------------------------------------------------------------




--------------------------------------- Iteration      1(  15)  ---------------------------------------


    POTLOK:  cpu time      0.1938: real time      0.1938
    SETDIJ:  cpu time      0.3645: real time      0.3645
    TRIAL :  cpu time      7.8014: real time      7.8039
    CORREC:  cpu time      8.6741: real time      8.6768
    CHARGE:  cpu time      0.4222: real time      0.4222
    --------------------------------------------
      LOOP:  cpu time     17.4621: real time     17.4751

 eigenvalue-minimisations  :     0
 total energy-change (2. order) :-0.3197201E-04  (-0.8190760E-05)
 number of electron      88.0000010 magnetization 
 augmentation part       32.7679959 magnetization 

 Free energy of the ion-electron system (eV)
  ---------------------------------------------------
  alpha Z        PSCENC =         9.31836840
  Ewald energy   TEWEN  =      7463.93985099
  -Hartree energ DENC   =    -14536.14787323
  -exchange      EXHF   =       157.82636798
  -V(xc)+E(xc)   XCENC  =        88.45831663
  PAW double counting   =      8422.37394153    -8266.66212879
  entropy T*S    EENTRO =        -0.00000000
  eigenvalues    EBANDS =      -746.55234935
  atomic energy  EATOM  =      7390.73709587
  ---------------------------------------------------
  free energy    TOTEN  =       -16.70840996 eV

  energy without entropy =      -16.70840996  energy(sigma->0) =      -16.70840996
  exchange ACFDT corr.  =        -0.00000000  see jH, gK, PRB 81, 115126


--------------------------------------------------------------------------------------------------------




--------------------------------------- Iteration      1(  16)  ---------------------------------------


    POTLOK:  cpu time      0.1959: real time      0.1959
    SETDIJ:  cpu time      0.3622: real time      0.3622
    TRIAL :  cpu time      7.9033: real time      7.9055
    CORREC:  cpu time      8.7080: real time      8.7102
    CHARGE:  cpu time      0.4228: real time      0.4229
    --------------------------------------------
      LOOP:  cpu time     17.5973: real time     17.6103

 eigenvalue-minimisations  :     0
 total energy-change (2. order) :-0.8706285E-05  (-0.5073768E-05)
 number of electron      88.0000010 magnetization 
 augmentation part       32.7679382 magnetization 

 Free energy of the ion-electron system (eV)
  ---------------------------------------------------
  alpha Z        PSCENC =         9.31836840
  Ewald energy   TEWEN  =      7463.93985099
  -Hartree energ DENC   =    -14536.11617912
  -exchange      EXHF   =       157.82579897
  -V(xc)+E(xc)   XCENC  =        88.45695758
  PAW double counting   =      8422.36569052    -8266.65449314
  entropy T*S    EENTRO =        -0.00000000
  eigenvalues    EBANDS =      -746.58150874
  atomic energy  EATOM  =      7390.73709587
  ---------------------------------------------------
  free energy    TOTEN  =       -16.70841867 eV

  energy without entropy =      -16.70841867  energy(sigma->0) =      -16.70841867
  exchange ACFDT corr.  =        -0.00000000  see jH, gK, PRB 81, 115126


--------------------------------------------------------------------------------------------------------




--------------------------------------- Iteration      1(  17)  ---------------------------------------


    POTLOK:  cpu time      0.1954: real time      0.1954
    SETDIJ:  cpu time      0.3632: real time      0.3632
    TRIAL :  cpu time      7.9284: real time      7.9307
    CORREC:  cpu time      8.7129: real time      8.7156
    CHARGE:  cpu time      0.4201: real time      0.4202
    --------------------------------------------
      LOOP:  cpu time     17.6338: real time     17.6390

 eigenvalue-minimisations  :     0
 total energy-change (2. order) :-0.7152586E-05  (-0.1760063E-05)
 number of electron      88.0000010 magnetization 
 augmentation part       32.7680038 magnetization 

 Free energy of the ion-electron system (eV)
  ---------------------------------------------------
  alpha Z        PSCENC =         9.31836840
  Ewald energy   TEWEN  =      7463.93985099
  -Hartree energ DENC   =    -14536.10859785
  -exchange      EXHF   =       157.82577212
  -V(xc)+E(xc)   XCENC  =        88.45692967
  PAW double counting   =      8422.39926961    -8266.68803787
  entropy T*S    EENTRO =        -0.00000000
  eigenvalues    EBANDS =      -746.58907676
  atomic energy  EATOM  =      7390.73709587
  ---------------------------------------------------
  free energy    TOTEN  =       -16.70842582 eV

  energy without entropy =      -16.70842582  energy(sigma->0) =      -16.70842582
  exchange ACFDT corr.  =        -0.00000000  see jH, gK, PRB 81, 115126


--------------------------------------------------------------------------------------------------------




--------------------------------------- Iteration      1(  18)  ---------------------------------------


    POTLOK:  cpu time      0.1975: real time      0.1975
    SETDIJ:  cpu time      0.3609: real time      0.3609
    TRIAL :  cpu time      7.9148: real time      7.9177
    CORREC:  cpu time      9.0013: real time      9.0038
    CHARGE:  cpu time      0.4199: real time      0.4199
    --------------------------------------------
      LOOP:  cpu time     17.8996: real time     17.9135

 eigenvalue-minimisations  :     0
 total energy-change (2. order) :-0.1288287E-05  (-0.5870902E-06)
 number of electron      88.0000010 magnetization 
 augmentation part       32.7680438 magnetization 

 Free energy of the ion-electron system (eV)
  ---------------------------------------------------
  alpha Z        PSCENC =         9.31836840
  Ewald energy   TEWEN  =      7463.93985099
  -Hartree energ DENC   =    -14536.12627364
  -exchange      EXHF   =       157.82605463
  -V(xc)+E(xc)   XCENC  =        88.45740945
  PAW double counting   =      8422.44642095    -8266.73505410
  entropy T*S    EENTRO =        -0.00000000
  eigenvalues    EBANDS =      -746.57229966
  atomic energy  EATOM  =      7390.73709587
  ---------------------------------------------------
  free energy    TOTEN  =       -16.70842711 eV

  energy without entropy =      -16.70842711  energy(sigma->0) =      -16.70842711
  exchange ACFDT corr.  =        -0.00000000  see jH, gK, PRB 81, 115126


--------------------------------------------------------------------------------------------------------




--------------------------------------- Iteration      1(  19)  ---------------------------------------


    POTLOK:  cpu time      0.1955: real time      0.1959
    SETDIJ:  cpu time      0.3626: real time      0.3626
    TRIAL :  cpu time      7.8600: real time      7.8624
    CORREC:  cpu time      8.9353: real time      8.9380
    CHARGE:  cpu time      0.4216: real time      0.4216
    --------------------------------------------
      LOOP:  cpu time     17.7802: real time     17.7948

 eigenvalue-minimisations  :     0
 total energy-change (2. order) : 0.6636010E-06  (-0.2036078E-05)
 number of electron      88.0000010 magnetization 
 augmentation part       32.7680371 magnetization 

 Free energy of the ion-electron system (eV)
  ---------------------------------------------------
  alpha Z        PSCENC =         9.31836840
  Ewald energy   TEWEN  =      7463.93985099
  -Hartree energ DENC   =    -14536.13705170
  -exchange      EXHF   =       157.82620486
  -V(xc)+E(xc)   XCENC  =        88.45753668
  PAW double counting   =      8422.47128985    -8266.75991082
  entropy T*S    EENTRO =        -0.00000000
  eigenvalues    EBANDS =      -746.56181057
  atomic energy  EATOM  =      7390.73709587
  ---------------------------------------------------
  free energy    TOTEN  =       -16.70842644 eV

  energy without entropy =      -16.70842644  energy(sigma->0) =      -16.70842644
  exchange ACFDT corr.  =        -0.00000000  see jH, gK, PRB 81, 115126


--------------------------------------------------------------------------------------------------------




--------------------------------------- Iteration      1(  20)  ---------------------------------------


    POTLOK:  cpu time      0.1948: real time      0.1948
    SETDIJ:  cpu time      0.3635: real time      0.3635
    TRIAL :  cpu time      8.6780: real time      8.6811
    CORREC:  cpu time      9.7561: real time      9.7588
    CHARGE:  cpu time      0.4201: real time      0.4201
    --------------------------------------------
      LOOP:  cpu time     19.4262: real time     19.4324

 eigenvalue-minimisations  :     0
 total energy-change (2. order) : 0.3153345E-05  (-0.2798836E-05)
 number of electron      88.0000010 magnetization 
 augmentation part       32.7680271 magnetization 

 Free energy of the ion-electron system (eV)
  ---------------------------------------------------
  alpha Z        PSCENC =         9.31836840
  Ewald energy   TEWEN  =      7463.93985099
  -Hartree energ DENC   =    -14536.14276206
  -exchange      EXHF   =       157.82622111
  -V(xc)+E(xc)   XCENC  =        88.45735145
  PAW double counting   =      8422.51219745    -8266.80139933
  entropy T*S    EENTRO =        -0.00000000
  eigenvalues    EBANDS =      -746.55534717
  atomic energy  EATOM  =      7390.73709587
  ---------------------------------------------------
  free energy    TOTEN  =       -16.70842329 eV

  energy without entropy =      -16.70842329  energy(sigma->0) =      -16.70842329
  exchange ACFDT corr.  =        -0.00000000  see jH, gK, PRB 81, 115126


--------------------------------------------------------------------------------------------------------




--------------------------------------- Iteration      1(  21)  ---------------------------------------


    POTLOK:  cpu time      0.1952: real time      0.1953
    SETDIJ:  cpu time      0.3636: real time      0.3636
    TRIAL :  cpu time      9.2378: real time      9.2408
    CORREC:  cpu time     10.1723: real time     10.1752
    CHARGE:  cpu time      0.4214: real time      0.4214
    --------------------------------------------
      LOOP:  cpu time     20.3957: real time     20.4104

 eigenvalue-minimisations  :     0
 total energy-change (2. order) :-0.2725224E-05  (-0.6441724E-06)
 number of electron      88.0000010 magnetization 
 augmentation part       32.7680208 magnetization 

 Free energy of the ion-electron system (eV)
  ---------------------------------------------------
  alpha Z        PSCENC =         9.31836840
  Ewald energy   TEWEN  =      7463.93985099
  -Hartree energ DENC   =    -14536.14071298
  -exchange      EXHF   =       157.82623149
  -V(xc)+E(xc)   XCENC  =        88.45769533
  PAW double counting   =      8422.52318631    -8266.81243750
  entropy T*S    EENTRO =        -0.00000000
  eigenvalues    EBANDS =      -746.55770393
  atomic energy  EATOM  =      7390.73709587
  ---------------------------------------------------
  free energy    TOTEN  =       -16.70842601 eV

  energy without entropy =      -16.70842601  energy(sigma->0) =      -16.70842601
  exchange ACFDT corr.  =        -0.00000000  see jH, gK, PRB 81, 115126


--------------------------------------------------------------------------------------------------------




--------------------------------------- Iteration      1(  22)  ---------------------------------------


    POTLOK:  cpu time      0.1959: real time      0.1959
    SETDIJ:  cpu time      0.3626: real time      0.3626
    TRIAL :  cpu time      9.6278: real time      9.6306
    CORREC:  cpu time     10.4297: real time     10.4330
    EDDIAG:  cpu time      9.5210: real time      9.5241
    CHARGE:  cpu time      0.4199: real time      0.4199
    --------------------------------------------
      LOOP:  cpu time     30.5627: real time     30.5804

 eigenvalue-minimisations  :     0
 total energy-change (2. order) :-0.9900923E-06  ( 0.2581603E-06)
 number of electron      88.0000010 magnetization 
 augmentation part       32.7680160 magnetization 

 Free energy of the ion-electron system (eV)
  ---------------------------------------------------
  alpha Z        PSCENC =         9.31836840
  Ewald energy   TEWEN  =      7463.93985099
  -Hartree energ DENC   =    -14536.13861892
  -exchange      EXHF   =       157.82621265
  -V(xc)+E(xc)   XCENC  =        88.45759246
  PAW double counting   =      8422.53010636    -8266.81939457
  entropy T*S    EENTRO =        -0.00000000
  eigenvalues    EBANDS =      -746.55964449
  atomic energy  EATOM  =      7390.73709587
  ---------------------------------------------------
  free energy    TOTEN  =       -16.70842700 eV

  energy without entropy =      -16.70842700  energy(sigma->0) =      -16.70842700
  exchange ACFDT corr.  =        -0.00000000  see jH, gK, PRB 81, 115126


--------------------------------------------------------------------------------------------------------


  average scaling for gradient   1.0667


 average (electrostatic) potential at core
  the test charge radii are     1.2098
  (the norm of the test charge is              1.0000)
       1 -72.5478       2 -72.6100       3 -72.5478       4 -72.2808       5 -72.2808
       6 -72.1914       7 -72.2808       8 -72.2808



 E-fermi :  -5.3610     XC(G=0):  -0.3608     alpha+bet : -0.2375

 Fermi energy:        -5.3610065173

 k-point     1 :       0.0000    0.0000    0.0000
  band No.  band energies     occupation 
      1     -11.5812      2.00000
      2     -10.9567      2.00000
      3     -10.8738      2.00000
      4     -10.3566      2.00000
      5     -10.2474      2.00000
      6     -10.1225      2.00000
      7      -9.9911      2.00000
      8      -9.9693      2.00000
      9      -9.8250      2.00000
     10      -9.7208      2.00000
     11      -9.7140      2.00000
     12      -9.3973      2.00000
     13      -9.3815      2.00000
     14      -9.3363      2.00000
     15      -9.3136      2.00000
     16      -9.2212      2.00000
     17      -9.1548      2.00000
     18      -9.0521      2.00000
     19      -8.5831      2.00000
     20      -8.5146      2.00000
     21      -8.4353      2.00000
     22      -8.2586      2.00000
     23      -8.2360      2.00000
     24      -8.1713      2.00000
     25      -8.0674      2.00000
     26      -7.9842      2.00000
     27      -7.9773      2.00000
     28      -7.7954      2.00000
     29      -7.7904      2.00000
     30      -7.6138      2.00000
     31      -7.6089      2.00000
     32      -7.5020      2.00000
     33      -7.4928      2.00000
     34      -7.4099      2.00000
     35      -7.2730      2.00000
     36      -7.2504      2.00000
     37      -7.0622      2.00000
     38      -7.0352      2.00000
     39      -7.0282      2.00000
     40      -6.9771      2.00000
     41      -6.8877      2.00000
     42      -6.5467      2.00000
     43      -5.9701      2.00000
     44      -5.5917      2.00000
     45      -3.2020      0.00000
     46      -2.9245      0.00000
     47      -2.8387      0.00000
     48      -2.6172      0.00000
     49      -1.4436      0.00000
     50      -1.3195      0.00000
     51      -0.6674      0.00000
     52      -0.2655      0.00000
     53       0.1196      0.00000
     54       0.2489      0.00000
     55       0.3391      0.00000
     56       0.4540      0.00000
     57       0.4761      0.00000
     58       0.5529      0.00000
     59       0.5885      0.00000
     60       0.6281      0.00000
     61       0.6937      0.00000
     62       0.7039      0.00000
     63       0.7306      0.00000
     64       0.7658      0.00000


--------------------------------------------------------------------------------------------------------


 soft charge-density along one line, spin component           1
         0         1         2         3         4         5         6         7         8         9
 total charge-density along one line

 pseudopotential strength for first ion, spin component:           1
 -8.484  -0.006   0.008  -0.007   0.010  -8.640  -0.006   0.008
 -0.006  -8.441  -0.003  -0.006   0.005  -0.006  -8.598  -0.003
  0.008  -0.003  -8.478  -0.013   0.027   0.008  -0.003  -8.634
 -0.007  -0.006  -0.013  -8.484  -0.002  -0.007  -0.006  -0.013
  0.010   0.005   0.027  -0.002  -8.509   0.010   0.005   0.026
 -8.640  -0.006   0.008  -0.007   0.010  -8.780  -0.006   0.008
 -0.006  -8.598  -0.003  -0.006   0.005  -0.006  -8.739  -0.003
  0.008  -0.003  -8.634  -0.013   0.026   0.008  -0.003  -8.774
 -0.007  -0.006  -0.013  -8.640  -0.002  -0.007  -0.006  -0.013
  0.010   0.005   0.026  -0.002  -8.665   0.010   0.005   0.026
  0.006   0.002  -0.008   0.006   0.014   0.006   0.002  -0.008
  0.008   0.003  -0.011   0.008   0.020   0.008   0.003  -0.011
 -0.022  -0.007   0.004   0.000   0.008  -0.021  -0.007   0.004
  0.000  -0.007  -0.009  -0.022   0.001   0.000  -0.007  -0.009
 -0.005   0.000   0.013  -0.005  -0.022  -0.005   0.000   0.013
 -0.024  -0.007   0.004   0.000   0.010  -0.023  -0.007   0.004
  0.000  -0.007  -0.011  -0.024   0.001   0.000  -0.007  -0.011
 -0.005   0.000   0.014  -0.005  -0.025  -0.005   0.000   0.014
 total augmentation occupancy for first ion, spin component:           1
  3.318   0.201  -0.334   0.011   0.031  -1.245  -0.205   0.355  -0.038   0.087  -0.471   0.203  -0.167   0.000  -0.090  -0.020
  0.201   2.815   0.029   0.201  -0.051  -0.205  -0.668  -0.035  -0.205   0.061  -0.134   0.075  -0.053  -0.053  -0.022  -0.007
 -0.334   0.029   2.828   0.140  -0.075   0.354  -0.035  -0.961  -0.253   0.147   0.404  -0.143   0.075  -0.083   0.079   0.002
  0.011   0.201   0.140   3.318   0.305  -0.038  -0.205  -0.253  -1.245  -0.264  -0.471   0.203   0.000  -0.167  -0.090   0.002
  0.031  -0.051  -0.075   0.305   2.914   0.087   0.061   0.147  -0.263  -1.130  -0.700   0.247   0.053  -0.038  -0.137   0.005
 -1.245  -0.205   0.354  -0.038   0.087   1.166   0.210  -0.373   0.060  -0.182   0.445  -0.201   0.195   0.004   0.088  -0.004
 -0.205  -0.668  -0.035  -0.205   0.061   0.210   0.523   0.040   0.210  -0.069   0.127  -0.067   0.058   0.058   0.020  -0.001
  0.355  -0.035  -0.961  -0.253   0.147  -0.373   0.040   1.041   0.344  -0.206  -0.361   0.131  -0.083   0.117  -0.110   0.002
 -0.038  -0.205  -0.253  -1.245  -0.263   0.060   0.210   0.344   1.166   0.232   0.445  -0.201   0.004   0.195   0.088  -0.001
  0.087   0.061   0.147  -0.264  -1.130  -0.182  -0.069  -0.206   0.232   1.279   0.625  -0.227  -0.087   0.029   0.190   0.003
 -0.471  -0.134   0.404  -0.471  -0.700   0.445   0.127  -0.361   0.445   0.625   3.826  -1.161   0.132   0.132   0.337  -0.005
  0.203   0.075  -0.143   0.203   0.247  -0.201  -0.067   0.131  -0.201  -0.227  -1.161   0.369  -0.051  -0.051  -0.119   0.002
 -0.167  -0.053   0.075   0.000   0.053   0.195   0.058  -0.083   0.004  -0.087   0.132  -0.051   0.046   0.000   0.013  -0.001
  0.000  -0.053  -0.083  -0.167  -0.038   0.004   0.058   0.117   0.195   0.029   0.132  -0.051   0.000   0.046   0.013  -0.000
 -0.090  -0.022   0.079  -0.090  -0.137   0.088   0.020  -0.110   0.088   0.190   0.337  -0.119   0.013   0.013   0.061  -0.000
 -0.020  -0.007   0.002   0.002   0.005  -0.004  -0.001   0.002  -0.001   0.003  -0.005   0.002  -0.001  -0.000  -0.000   0.000
  0.002  -0.007  -0.005  -0.020   0.001  -0.001  -0.001  -0.003  -0.004  -0.000  -0.005   0.002  -0.000  -0.001  -0.000   0.000
 -0.004   0.002   0.008  -0.004  -0.014  -0.003  -0.001   0.004  -0.003  -0.007  -0.013   0.005  -0.000  -0.000  -0.003   0.000


------------------------ aborting loop because EDIFF is reached ----------------------------------------


    FORLOC:  cpu time      0.0033: real time      0.0033
    FORHF :  cpu time      5.0655: real time      5.0681
    FORNL :  cpu time      0.0978: real time      0.0979
    FORCOR:  cpu time      0.5233: real time      0.5236
    OFIELD:  cpu time      0.0004: real time      0.0004
 WARNING: Using user supplied parameters
     VDW_A1 = 0.398
     VDW_A2 = 4.421
     VDW_S8 = 1.989
     because the xc functional is not supported. Required parameters not
     defined in the INCAR file will be replaced with PBE defaults ones.


 ---------------------------------------------------------------------------------------------

         DFTD3 V3.0 Rev 1        
 IVDW         = 12
 DF unknown   
 parameters
 VDW_S6       =    1.0000
 VDW_S8       =    1.9889
 VDW_A1       =    0.3981
 VDW_A2       =    4.4211
 k1-k3        =   16.0000    1.3333   -4.0000
 VDW_RADIUS   =   50.2022 A
 VDW_CNRADIUS =   21.1671 A
 Edisp (eV)   -2.12874

 E6    (eV) :    -0.5527
 E8    (eV) :    -1.5760
 % E8        : 74.03
    FORVDW:  cpu time      0.0051: real time      0.0065

 VOLUME and BASIS-vectors are now :
 -----------------------------------------------------------------------------
  energy-cutoff  :      520.00
  volume of cell :     8000.00
      direct lattice vectors                 reciprocal lattice vectors
    20.000000000  0.000000000  0.000000000     0.050000000  0.000000000  0.000000000
     0.000000000 20.000000000  0.000000000     0.000000000  0.050000000  0.000000000
     0.000000000  0.000000000 20.000000000     0.000000000  0.000000000  0.050000000

  length of vectors
    20.000000000 20.000000000 20.000000000     0.050000000  0.050000000  0.050000000


 FORCES acting on ions:
    Electron-Ion                     Ewald-Force                    Non-Local-Force
 -----------------------------------------------------------------------------------------------
   0.708E+03 0.305E+03 0.305E+03   -.703E+03 -.303E+03 -.303E+03   -.564E+01 -.194E+01 -.194E+01
   -.104E-12 0.521E+03 0.521E+03   -.583E-11 -.521E+03 -.521E+03   0.000E+00 -.239E+00 -.239E+00
   -.708E+03 0.305E+03 0.305E+03   0.703E+03 -.303E+03 -.303E+03   0.564E+01 -.194E+01 -.194E+01
   0.476E+03 -.595E+03 0.336E+03   -.473E+03 0.595E+03 -.336E+03   -.284E+01 0.952E+00 -.556E+00
   -.476E+03 -.595E+03 0.336E+03   0.473E+03 0.595E+03 -.336E+03   0.284E+01 0.952E+00 -.556E+00
   -.110E-12 -.611E+03 -.611E+03   -.142E-13 0.609E+03 0.609E+03   0.000E+00 0.287E+01 0.287E+01
   0.476E+03 0.336E+03 -.595E+03   -.473E+03 -.336E+03 0.595E+03   -.284E+01 -.556E+00 0.952E+00
   -.476E+03 0.336E+03 -.595E+03   0.473E+03 -.336E+03 0.595E+03   0.284E+01 -.556E+00 0.952E+00
 -----------------------------------------------------------------------------------------------
   0.911E-11 0.491E+00 0.491E+00   -.995E-13 0.227E-12 0.568E-13   0.444E-15 -.454E+00 -.454E+00


 POSITION                                       TOTAL-FORCE (eV/Angst)
 -----------------------------------------------------------------------------------
      0.15812     19.94380     19.94380        -0.492770     -0.229729     -0.229729
      2.80000     19.84830     19.84830         0.000000     -0.443208     -0.443208
      5.44188     19.94380     19.94380         0.492770     -0.229729     -0.229729
      1.45711      2.32622      0.16157        -0.314974      0.499340     -0.277138
      4.14289      2.32622      0.16157         0.314974      0.499340     -0.277138
      2.80000      2.54852      2.54852         0.000000      0.458262      0.458262
      1.45711      0.16157      2.32622        -0.314974     -0.277138      0.499340
      4.14289      0.16157      2.32622         0.314974     -0.277138      0.499340
 -----------------------------------------------------------------------------------
    total drift:                                0.000000      0.002604      0.002604


--------------------------------------------------------------------------------------------------------



  FREE ENERGIE OF THE ION-ELECTRON SYSTEM (eV)
  ---------------------------------------------------
  free  energy   TOTEN  =       -18.83716495 eV

  energy  without entropy=      -18.83716495  energy(sigma->0) =      -18.83716495



--------------------------------------------------------------------------------------------------------


    POTLOK:  cpu time      0.5580: real time      0.5581


--------------------------------------------------------------------------------------------------------


     LOOP+:  cpu time    307.7315: real time    307.9835
    4ORBIT:  cpu time      0.0000: real time      0.0000

 total amount of memory used by VASP MPI-rank0   962449. kBytes
=======================================================================

   base      :      30000. kBytes
   nonlr-proj:       5419. kBytes
   fftplans  :      51426. kBytes
   grid      :      42969. kBytes
   one-center:         31. kBytes
   HF        :         64. kBytes
   wavefun   :       2592. kBytes
   fock_wrk  :     829948. kBytes

  
  
 General timing and accounting informations for this job:
 ========================================================
  
                  Total CPU time used (sec):      322.726
                            User time (sec):      297.983
                          System time (sec):       24.743
                         Elapsed time (sec):      326.559
  
                   Maximum memory used (kb):     1344212.
                   Average memory used (kb):          N/A
  
                          Minor page faults:      6930137
                          Major page faults:            0
                 Voluntary context switches:         9616
