 **********************************************************************
                          MRCC program system
 **********************************************************************
 
                              Written by
     Mihaly Kallay, Peter R. Nagy, David Mester, Laszlo Gyevi-Nagy,
        Jozsef Csoka, P. Bernat Szabo, Zoltan Rolik, Gyula Samu,
     Jozsef Csontos, Bence Hegely, Adam Ganyecz, Istvan Ladjanszki,
       Lorant Szegedy, Bence Ladoczki, Klara Petrov, Mate Farkas,
                    Pal D. Mezei, and Reka A. Horvath
 
        Department of Physical Chemistry and Materials Science
            Budapest University of Technology and Economics
                  Budapest P.O.Box 91, H-1521 Hungary
 
                              www.mrcc.hu
 
                      Release date: March 18, 2022

 ************************ 2023-10-22 09:19:16 *************************
 Executing minp...

 Reading input from MINP...
 
 Input file:
 
calc=PBE0
verbosity=3
mem=220GB
symm=off
unit=angs
scfiguess=small
scfalg=locfit1
ECP=MCDHF-ECP-28
basis=bse_ACVQZ
basis_sm=def2-SVP
dfbasis_scf=def2-QZVPP-RI-JK
dfbasis_cor=bse_ACVQZ_mp2fit
scfalg=locfit1
core=0
unit=angs
geom=xyz
4
Ag4_3
Ag    -3.91519123     0.00000000     0.00000000
Ag    -1.33903965     0.00000000     0.00000000
Ag     1.33903965     0.00000000     0.00000000
Ag     3.91519123     0.00000000     0.00000000

ghost=serialno


 
 
 Checking keyword combinations...
 
 Keywords:
 
 active=none
 agrid=ld0006-ld0590
 agrid_pssp=ld0006-ld0194
 agrid_pssp_sm=ld0006-ld0074
 basis=bse_acvqz
 basis_sm=def2-svp
 basopt=off
 bfbasis=none
 bfgsmem=10
 bfgstol=1.0d-3
 bpcompo=0.985
 bpcompv=0.98
 bpdfo=0.985
 bpocc=0.985
 bppdo=0.985
 bppdv=0.98
 bpedo=0.985
 bpedv=0.98
 calc=scf
 ccmaxit=50
 ccprog=mrcc
 ccsdalg=disk
 ccsdmkl=seq
 ccsdrest=off
 ccsdthreads=2
 cctol=6
 charge=0
 cialg=disk
 ciguess=off
 cmpgrp=auto
 comprest=off
 core=corr
 corembed=off
 csapprox=off
 cvs=off
 dboc=off
 delocsomofact=
 dendec=cholesky
 dens=0
 dfalg=lineq
 dfbasis_cab=none
 dfbasis_cor=bse_acvqz_mp2fit
 dfbasis_scf=def2-qzvpp-ri-jk
 dfbasis_scf_sm=def2-qzvpp-ri-jk
 dfintran=drpa
 dft=pbe0
 dhexc=adc(2)
 diag=david
 docc=
 domrad=10.d0
 drpaalg=fit
 dual=off
 dual_df=off
 ecp=mcdhf-ecp-28
 edisp=off
 edisp_embed=off
 embed=off
 etemp=300
 epert=none
 eps=
 espcharge=off
 excrad=1.0
 excrad_fin=0.100000000D-02
 fitting=coulomb
 fmm=off
 fmmord=8
 freq=off
 gamma=1.d0
 gauss=spher
 geom=xyz
 gopt=off
 ghost=serialno
 gtol=7
 grdens=off
 gridbatch_cos=2000
 grtol=10
 guido_ct=off
 hamilton=dc
 iface=none
 intalg=auto
 itol=10
 laptol=1.d-2
 lccoporder=trffirst
 lcorthr=normal
 lccrest=off
 lmp2dens=on
 lnoepso=0.d0
 lnoepsv=1e-6
 boysalg=jacobi
 localcc=off
 localcorrsymm=off
 locintrf=disk
 mact=
 maxact=off
 maxdim=100
 maxex=0
 maxmicroit=100
 mcscfiguess=hf
 mem=220gb
 mmprog=
 molden=on
 mpitasks=1
 mulmet=0
 mult=
 nacto=0
 nactv=0
 naf_amp=1.d-2
 naf_cor=off
 naf_scf=off
 nafalg=albe
 naftyp=
 nchol=auto
 ndeps=1e-3
 nstate=1
 nsing=0
 nto=off
 ntrip=0
 occ=
 occri=off
 oniom=off
 oniom_eechg=off
 oniom_pcm=off
 oniom_qcorr=off
 optalg=
 optmaxit=50
 optetol=1e-6
 optex=0
 optgtol=1e-4
 optstol=1e-3
 orblocc=off
 orbloce=off
 orbloco=off
 orblocv=off
 orblocguess=cholesky
 osveps=1e-3
 ovirt=off
 ovltol=1e-7
 ovosnorb=80.0
 pcm=off
 popul=off
 pressure=100000
 pssp=off
 ptfreq=0.0
 ptthreads=2
 qro=off
 qscf=off
 qmmm=off
 redcost_exc=off
 redcost_tddft=off
 refdet=none
 rest=0
 rgrid=log3
 rism=off
 rohfcore=semicanonical
 rohftype=standard
 scfalg=locfit1
 scf_conv=difficult
 scfdamp=0.7d0
 scfdamp_mode=1
 scfdamp_end=3
 scfdamp_dampstep=0.d0
 scfdamp_dtol=0.0d0
 scfdamp_maxfact=0.7d0
 scfdamp_minfact=0.7d0
 scfdiis=on
 scfdiis_dtol=0.0d0
 scfdiis_end=50
 scfdiis_start=2
 scfdiis_step=1
 scfdiis_watch=off
 scfdiis_wrange=10
 scfdiis_wlimit=5
 scfdiis_delmax=2
 scfdtol=6
 scfext=10
 scfguessdens=
 scfiguess=small
 scfloc=pm
 scflshift=0.20
 scflshift_end=8
 scflshift_dtol=0.0
 scflshift_gaptol=0.20
 scfmaxit=50
 scftype=
 scftol=6
 scspe=1.d0
 scsph=1.d0
 scsps=1.2d0
 scsps_t=1.2d0
 scspt=0.33333333333333
 scspt_t=0.33333333333333
 scspv=1.d0
 spairtol=1e-4
 sqmprog=
 subminp=top
 symm=0
 talg=occ
 temp=298.15
 test=off
 theodore=off
 tlmo=0.999
 tpao=0.94
 tprint=off
 uncontract=off
 unit=angs
 usedisk=2
 verbosity=3
 wpairtol=0.100000000E-05
 
 Calculating integrals for small-basis SCF...

 ************************ 2023-10-22 09:19:17 *************************
 Executing integ...

 Allocation of 220.0 Gbytes of memory...
 
 
 Number of atoms:                  4
 Charge:                           0
 Number of electrons:             76
 Number of core electrons:        32
 Spin multiplicity:                1
 
                 Cartesian coordinates [bohr]      Atomic mass [AMU]  Z
   1  Ag   -7.39863915    0.00000000    0.00000000   106.905092      47
   2  Ag   -2.53041821    0.00000000    0.00000000   106.905092      47
   3  Ag    2.53041821    0.00000000    0.00000000   106.905092      47
   4  Ag    7.39863915    0.00000000    0.00000000   106.905092      47
 
 This molecule is linear.
 
 Point group: Dxh 
 Computational point group: C1  
 
 Cartesian coordinates in standard orientation [bohr]
   1  Ag    0.00000000    0.00000000   -7.39863915
   2  Ag    0.00000000    0.00000000   -2.53041821
   3  Ag    0.00000000    0.00000000    2.53041821
   4  Ag    0.00000000    0.00000000    7.39863915
 
 Nuclear repulsion energy [au]:        316.753124874413
 
 
 Basis set information:
 
 Maximum angular momentum: i
 Maximum number of contracted Gaussians:   11
 Maximum number of primitive Gaussians:    13
 Spherical harmonic GTOs are used.
 
 
 Conventional basis set:
 
   1  Ag def2-svp [ 7s 6p 5d 1f | 5s 3p 2d 1f ]
   2  Ag def2-svp [ 7s 6p 5d 1f | 5s 3p 2d 1f ]
   3  Ag def2-svp [ 7s 6p 5d 1f | 5s 3p 2d 1f ]
   4  Ag def2-svp [ 7s 6p 5d 1f | 5s 3p 2d 1f ]
 
 Basis functions:
            1             2             3             4             5             6             7             8             9            10
    0    1Ag1s         1Ag2s         1Ag3s         1Ag4s         1Ag5s         1Ag1pz        1Ag1py        1Ag1px        1Ag2pz        1Ag2py    
    1    1Ag2px        1Ag3pz        1Ag3py        1Ag3px        1Ag1d-2       1Ag1d-1       1Ag1d0        1Ag1d+1       1Ag1d+2       1Ag2d-2   
    2    1Ag2d-1       1Ag2d0        1Ag2d+1       1Ag2d+2       1Ag1f-3       1Ag1f-2       1Ag1f-1       1Ag1f0        1Ag1f+1       1Ag1f+2   
    3    1Ag1f+3       2Ag1s         2Ag2s         2Ag3s         2Ag4s         2Ag5s         2Ag1pz        2Ag1py        2Ag1px        2Ag2pz    
    4    2Ag2py        2Ag2px        2Ag3pz        2Ag3py        2Ag3px        2Ag1d-2       2Ag1d-1       2Ag1d0        2Ag1d+1       2Ag1d+2   
    5    2Ag2d-2       2Ag2d-1       2Ag2d0        2Ag2d+1       2Ag2d+2       2Ag1f-3       2Ag1f-2       2Ag1f-1       2Ag1f0        2Ag1f+1   
    6    2Ag1f+2       2Ag1f+3       3Ag1s         3Ag2s         3Ag3s         3Ag4s         3Ag5s         3Ag1pz        3Ag1py        3Ag1px    
    7    3Ag2pz        3Ag2py        3Ag2px        3Ag3pz        3Ag3py        3Ag3px        3Ag1d-2       3Ag1d-1       3Ag1d0        3Ag1d+1   
    8    3Ag1d+2       3Ag2d-2       3Ag2d-1       3Ag2d0        3Ag2d+1       3Ag2d+2       3Ag1f-3       3Ag1f-2       3Ag1f-1       3Ag1f0    
    9    3Ag1f+1       3Ag1f+2       3Ag1f+3       4Ag1s         4Ag2s         4Ag3s         4Ag4s         4Ag5s         4Ag1pz        4Ag1py    
   10    4Ag1px        4Ag2pz        4Ag2py        4Ag2px        4Ag3pz        4Ag3py        4Ag3px        4Ag1d-2       4Ag1d-1       4Ag1d0    
   11    4Ag1d+1       4Ag1d+2       4Ag2d-2       4Ag2d-1       4Ag2d0        4Ag2d+1       4Ag2d+2       4Ag1f-3       4Ag1f-2       4Ag1f-1   
   12    4Ag1f0        4Ag1f+1       4Ag1f+2       4Ag1f+3   
 
 Maximum number of basis functions per shell:   10
 Total number of basis functions:    124
 
 
 Fitting basis set for the SCF calculation:
 
   1  Ag def2-qzvpp-ri-jk [ 13s 12p 10d 9f 6g 3h 2i | 11s 10p 9d 8f 6g 3h 2i ]
   2  Ag def2-qzvpp-ri-jk [ 13s 12p 10d 9f 6g 3h 2i | 11s 10p 9d 8f 6g 3h 2i ]
   3  Ag def2-qzvpp-ri-jk [ 13s 12p 10d 9f 6g 3h 2i | 11s 10p 9d 8f 6g 3h 2i ]
   4  Ag def2-qzvpp-ri-jk [ 13s 12p 10d 9f 6g 3h 2i | 11s 10p 9d 8f 6g 3h 2i ]
 
 Basis functions:
            1             2             3             4             5             6             7             8             9            10
    0    1Ag1s         1Ag2s         1Ag3s         1Ag4s         1Ag5s         1Ag6s         1Ag7s         1Ag8s         1Ag9s         1Ag10s    
    1    1Ag11s        1Ag1pz        1Ag1py        1Ag1px        1Ag2pz        1Ag2py        1Ag2px        1Ag3pz        1Ag3py        1Ag3px    
    2    1Ag4pz        1Ag4py        1Ag4px        1Ag5pz        1Ag5py        1Ag5px        1Ag6pz        1Ag6py        1Ag6px        1Ag7pz    
    3    1Ag7py        1Ag7px        1Ag8pz        1Ag8py        1Ag8px        1Ag9pz        1Ag9py        1Ag9px        1Ag10pz       1Ag10py   
    4    1Ag10px       1Ag1d-2       1Ag1d-1       1Ag1d0        1Ag1d+1       1Ag1d+2       1Ag2d-2       1Ag2d-1       1Ag2d0        1Ag2d+1   
    5    1Ag2d+2       1Ag3d-2       1Ag3d-1       1Ag3d0        1Ag3d+1       1Ag3d+2       1Ag4d-2       1Ag4d-1       1Ag4d0        1Ag4d+1   
    6    1Ag4d+2       1Ag5d-2       1Ag5d-1       1Ag5d0        1Ag5d+1       1Ag5d+2       1Ag6d-2       1Ag6d-1       1Ag6d0        1Ag6d+1   
    7    1Ag6d+2       1Ag7d-2       1Ag7d-1       1Ag7d0        1Ag7d+1       1Ag7d+2       1Ag8d-2       1Ag8d-1       1Ag8d0        1Ag8d+1   
    8    1Ag8d+2       1Ag9d-2       1Ag9d-1       1Ag9d0        1Ag9d+1       1Ag9d+2       1Ag1f-3       1Ag1f-2       1Ag1f-1       1Ag1f0    
    9    1Ag1f+1       1Ag1f+2       1Ag1f+3       1Ag2f-3       1Ag2f-2       1Ag2f-1       1Ag2f0        1Ag2f+1       1Ag2f+2       1Ag2f+3   
   10    1Ag3f-3       1Ag3f-2       1Ag3f-1       1Ag3f0        1Ag3f+1       1Ag3f+2       1Ag3f+3       1Ag4f-3       1Ag4f-2       1Ag4f-1   
   11    1Ag4f0        1Ag4f+1       1Ag4f+2       1Ag4f+3       1Ag5f-3       1Ag5f-2       1Ag5f-1       1Ag5f0        1Ag5f+1       1Ag5f+2   
   12    1Ag5f+3       1Ag6f-3       1Ag6f-2       1Ag6f-1       1Ag6f0        1Ag6f+1       1Ag6f+2       1Ag6f+3       1Ag7f-3       1Ag7f-2   
   13    1Ag7f-1       1Ag7f0        1Ag7f+1       1Ag7f+2       1Ag7f+3       1Ag8f-3       1Ag8f-2       1Ag8f-1       1Ag8f0        1Ag8f+1   
   14    1Ag8f+2       1Ag8f+3       1Ag1g-4       1Ag1g-3       1Ag1g-2       1Ag1g-1       1Ag1g0        1Ag1g+1       1Ag1g+2       1Ag1g+3   
   15    1Ag1g+4       1Ag2g-4       1Ag2g-3       1Ag2g-2       1Ag2g-1       1Ag2g0        1Ag2g+1       1Ag2g+2       1Ag2g+3       1Ag2g+4   
   16    1Ag3g-4       1Ag3g-3       1Ag3g-2       1Ag3g-1       1Ag3g0        1Ag3g+1       1Ag3g+2       1Ag3g+3       1Ag3g+4       1Ag4g-4   
   17    1Ag4g-3       1Ag4g-2       1Ag4g-1       1Ag4g0        1Ag4g+1       1Ag4g+2       1Ag4g+3       1Ag4g+4       1Ag5g-4       1Ag5g-3   
   18    1Ag5g-2       1Ag5g-1       1Ag5g0        1Ag5g+1       1Ag5g+2       1Ag5g+3       1Ag5g+4       1Ag6g-4       1Ag6g-3       1Ag6g-2   
   19    1Ag6g-1       1Ag6g0        1Ag6g+1       1Ag6g+2       1Ag6g+3       1Ag6g+4       1Ag1h-5       1Ag1h-4       1Ag1h-3       1Ag1h-2   
   20    1Ag1h-1       1Ag1h0        1Ag1h+1       1Ag1h+2       1Ag1h+3       1Ag1h+4       1Ag1h+5       1Ag2h-5       1Ag2h-4       1Ag2h-3   
   21    1Ag2h-2       1Ag2h-1       1Ag2h0        1Ag2h+1       1Ag2h+2       1Ag2h+3       1Ag2h+4       1Ag2h+5       1Ag3h-5       1Ag3h-4   
   22    1Ag3h-3       1Ag3h-2       1Ag3h-1       1Ag3h0        1Ag3h+1       1Ag3h+2       1Ag3h+3       1Ag3h+4       1Ag3h+5       1Ag1i-6   
   23    1Ag1i-5       1Ag1i-4       1Ag1i-3       1Ag1i-2       1Ag1i-1       1Ag1i0        1Ag1i+1       1Ag1i+2       1Ag1i+3       1Ag1i+4   
   24    1Ag1i+5       1Ag1i+6       1Ag2i-6       1Ag2i-5       1Ag2i-4       1Ag2i-3       1Ag2i-2       1Ag2i-1       1Ag2i0        1Ag2i+1   
   25    1Ag2i+2       1Ag2i+3       1Ag2i+4       1Ag2i+5       1Ag2i+6       2Ag1s         2Ag2s         2Ag3s         2Ag4s         2Ag5s     
   26    2Ag6s         2Ag7s         2Ag8s         2Ag9s         2Ag10s        2Ag11s        2Ag1pz        2Ag1py        2Ag1px        2Ag2pz    
   27    2Ag2py        2Ag2px        2Ag3pz        2Ag3py        2Ag3px        2Ag4pz        2Ag4py        2Ag4px        2Ag5pz        2Ag5py    
   28    2Ag5px        2Ag6pz        2Ag6py        2Ag6px        2Ag7pz        2Ag7py        2Ag7px        2Ag8pz        2Ag8py        2Ag8px    
   29    2Ag9pz        2Ag9py        2Ag9px        2Ag10pz       2Ag10py       2Ag10px       2Ag1d-2       2Ag1d-1       2Ag1d0        2Ag1d+1   
   30    2Ag1d+2       2Ag2d-2       2Ag2d-1       2Ag2d0        2Ag2d+1       2Ag2d+2       2Ag3d-2       2Ag3d-1       2Ag3d0        2Ag3d+1   
   31    2Ag3d+2       2Ag4d-2       2Ag4d-1       2Ag4d0        2Ag4d+1       2Ag4d+2       2Ag5d-2       2Ag5d-1       2Ag5d0        2Ag5d+1   
   32    2Ag5d+2       2Ag6d-2       2Ag6d-1       2Ag6d0        2Ag6d+1       2Ag6d+2       2Ag7d-2       2Ag7d-1       2Ag7d0        2Ag7d+1   
   33    2Ag7d+2       2Ag8d-2       2Ag8d-1       2Ag8d0        2Ag8d+1       2Ag8d+2       2Ag9d-2       2Ag9d-1       2Ag9d0        2Ag9d+1   
   34    2Ag9d+2       2Ag1f-3       2Ag1f-2       2Ag1f-1       2Ag1f0        2Ag1f+1       2Ag1f+2       2Ag1f+3       2Ag2f-3       2Ag2f-2   
   35    2Ag2f-1       2Ag2f0        2Ag2f+1       2Ag2f+2       2Ag2f+3       2Ag3f-3       2Ag3f-2       2Ag3f-1       2Ag3f0        2Ag3f+1   
   36    2Ag3f+2       2Ag3f+3       2Ag4f-3       2Ag4f-2       2Ag4f-1       2Ag4f0        2Ag4f+1       2Ag4f+2       2Ag4f+3       2Ag5f-3   
   37    2Ag5f-2       2Ag5f-1       2Ag5f0        2Ag5f+1       2Ag5f+2       2Ag5f+3       2Ag6f-3       2Ag6f-2       2Ag6f-1       2Ag6f0    
   38    2Ag6f+1       2Ag6f+2       2Ag6f+3       2Ag7f-3       2Ag7f-2       2Ag7f-1       2Ag7f0        2Ag7f+1       2Ag7f+2       2Ag7f+3   
   39    2Ag8f-3       2Ag8f-2       2Ag8f-1       2Ag8f0        2Ag8f+1       2Ag8f+2       2Ag8f+3       2Ag1g-4       2Ag1g-3       2Ag1g-2   
   40    2Ag1g-1       2Ag1g0        2Ag1g+1       2Ag1g+2       2Ag1g+3       2Ag1g+4       2Ag2g-4       2Ag2g-3       2Ag2g-2       2Ag2g-1   
   41    2Ag2g0        2Ag2g+1       2Ag2g+2       2Ag2g+3       2Ag2g+4       2Ag3g-4       2Ag3g-3       2Ag3g-2       2Ag3g-1       2Ag3g0    
   42    2Ag3g+1       2Ag3g+2       2Ag3g+3       2Ag3g+4       2Ag4g-4       2Ag4g-3       2Ag4g-2       2Ag4g-1       2Ag4g0        2Ag4g+1   
   43    2Ag4g+2       2Ag4g+3       2Ag4g+4       2Ag5g-4       2Ag5g-3       2Ag5g-2       2Ag5g-1       2Ag5g0        2Ag5g+1       2Ag5g+2   
   44    2Ag5g+3       2Ag5g+4       2Ag6g-4       2Ag6g-3       2Ag6g-2       2Ag6g-1       2Ag6g0        2Ag6g+1       2Ag6g+2       2Ag6g+3   
   45    2Ag6g+4       2Ag1h-5       2Ag1h-4       2Ag1h-3       2Ag1h-2       2Ag1h-1       2Ag1h0        2Ag1h+1       2Ag1h+2       2Ag1h+3   
   46    2Ag1h+4       2Ag1h+5       2Ag2h-5       2Ag2h-4       2Ag2h-3       2Ag2h-2       2Ag2h-1       2Ag2h0        2Ag2h+1       2Ag2h+2   
   47    2Ag2h+3       2Ag2h+4       2Ag2h+5       2Ag3h-5       2Ag3h-4       2Ag3h-3       2Ag3h-2       2Ag3h-1       2Ag3h0        2Ag3h+1   
   48    2Ag3h+2       2Ag3h+3       2Ag3h+4       2Ag3h+5       2Ag1i-6       2Ag1i-5       2Ag1i-4       2Ag1i-3       2Ag1i-2       2Ag1i-1   
   49    2Ag1i0        2Ag1i+1       2Ag1i+2       2Ag1i+3       2Ag1i+4       2Ag1i+5       2Ag1i+6       2Ag2i-6       2Ag2i-5       2Ag2i-4   
   50    2Ag2i-3       2Ag2i-2       2Ag2i-1       2Ag2i0        2Ag2i+1       2Ag2i+2       2Ag2i+3       2Ag2i+4       2Ag2i+5       2Ag2i+6   
   51    3Ag1s         3Ag2s         3Ag3s         3Ag4s         3Ag5s         3Ag6s         3Ag7s         3Ag8s         3Ag9s         3Ag10s    
   52    3Ag11s        3Ag1pz        3Ag1py        3Ag1px        3Ag2pz        3Ag2py        3Ag2px        3Ag3pz        3Ag3py        3Ag3px    
   53    3Ag4pz        3Ag4py        3Ag4px        3Ag5pz        3Ag5py        3Ag5px        3Ag6pz        3Ag6py        3Ag6px        3Ag7pz    
   54    3Ag7py        3Ag7px        3Ag8pz        3Ag8py        3Ag8px        3Ag9pz        3Ag9py        3Ag9px        3Ag10pz       3Ag10py   
   55    3Ag10px       3Ag1d-2       3Ag1d-1       3Ag1d0        3Ag1d+1       3Ag1d+2       3Ag2d-2       3Ag2d-1       3Ag2d0        3Ag2d+1   
   56    3Ag2d+2       3Ag3d-2       3Ag3d-1       3Ag3d0        3Ag3d+1       3Ag3d+2       3Ag4d-2       3Ag4d-1       3Ag4d0        3Ag4d+1   
   57    3Ag4d+2       3Ag5d-2       3Ag5d-1       3Ag5d0        3Ag5d+1       3Ag5d+2       3Ag6d-2       3Ag6d-1       3Ag6d0        3Ag6d+1   
   58    3Ag6d+2       3Ag7d-2       3Ag7d-1       3Ag7d0        3Ag7d+1       3Ag7d+2       3Ag8d-2       3Ag8d-1       3Ag8d0        3Ag8d+1   
   59    3Ag8d+2       3Ag9d-2       3Ag9d-1       3Ag9d0        3Ag9d+1       3Ag9d+2       3Ag1f-3       3Ag1f-2       3Ag1f-1       3Ag1f0    
   60    3Ag1f+1       3Ag1f+2       3Ag1f+3       3Ag2f-3       3Ag2f-2       3Ag2f-1       3Ag2f0        3Ag2f+1       3Ag2f+2       3Ag2f+3   
   61    3Ag3f-3       3Ag3f-2       3Ag3f-1       3Ag3f0        3Ag3f+1       3Ag3f+2       3Ag3f+3       3Ag4f-3       3Ag4f-2       3Ag4f-1   
   62    3Ag4f0        3Ag4f+1       3Ag4f+2       3Ag4f+3       3Ag5f-3       3Ag5f-2       3Ag5f-1       3Ag5f0        3Ag5f+1       3Ag5f+2   
   63    3Ag5f+3       3Ag6f-3       3Ag6f-2       3Ag6f-1       3Ag6f0        3Ag6f+1       3Ag6f+2       3Ag6f+3       3Ag7f-3       3Ag7f-2   
   64    3Ag7f-1       3Ag7f0        3Ag7f+1       3Ag7f+2       3Ag7f+3       3Ag8f-3       3Ag8f-2       3Ag8f-1       3Ag8f0        3Ag8f+1   
   65    3Ag8f+2       3Ag8f+3       3Ag1g-4       3Ag1g-3       3Ag1g-2       3Ag1g-1       3Ag1g0        3Ag1g+1       3Ag1g+2       3Ag1g+3   
   66    3Ag1g+4       3Ag2g-4       3Ag2g-3       3Ag2g-2       3Ag2g-1       3Ag2g0        3Ag2g+1       3Ag2g+2       3Ag2g+3       3Ag2g+4   
   67    3Ag3g-4       3Ag3g-3       3Ag3g-2       3Ag3g-1       3Ag3g0        3Ag3g+1       3Ag3g+2       3Ag3g+3       3Ag3g+4       3Ag4g-4   
   68    3Ag4g-3       3Ag4g-2       3Ag4g-1       3Ag4g0        3Ag4g+1       3Ag4g+2       3Ag4g+3       3Ag4g+4       3Ag5g-4       3Ag5g-3   
   69    3Ag5g-2       3Ag5g-1       3Ag5g0        3Ag5g+1       3Ag5g+2       3Ag5g+3       3Ag5g+4       3Ag6g-4       3Ag6g-3       3Ag6g-2   
   70    3Ag6g-1       3Ag6g0        3Ag6g+1       3Ag6g+2       3Ag6g+3       3Ag6g+4       3Ag1h-5       3Ag1h-4       3Ag1h-3       3Ag1h-2   
   71    3Ag1h-1       3Ag1h0        3Ag1h+1       3Ag1h+2       3Ag1h+3       3Ag1h+4       3Ag1h+5       3Ag2h-5       3Ag2h-4       3Ag2h-3   
   72    3Ag2h-2       3Ag2h-1       3Ag2h0        3Ag2h+1       3Ag2h+2       3Ag2h+3       3Ag2h+4       3Ag2h+5       3Ag3h-5       3Ag3h-4   
   73    3Ag3h-3       3Ag3h-2       3Ag3h-1       3Ag3h0        3Ag3h+1       3Ag3h+2       3Ag3h+3       3Ag3h+4       3Ag3h+5       3Ag1i-6   
   74    3Ag1i-5       3Ag1i-4       3Ag1i-3       3Ag1i-2       3Ag1i-1       3Ag1i0        3Ag1i+1       3Ag1i+2       3Ag1i+3       3Ag1i+4   
   75    3Ag1i+5       3Ag1i+6       3Ag2i-6       3Ag2i-5       3Ag2i-4       3Ag2i-3       3Ag2i-2       3Ag2i-1       3Ag2i0        3Ag2i+1   
   76    3Ag2i+2       3Ag2i+3       3Ag2i+4       3Ag2i+5       3Ag2i+6       4Ag1s         4Ag2s         4Ag3s         4Ag4s         4Ag5s     
   77    4Ag6s         4Ag7s         4Ag8s         4Ag9s         4Ag10s        4Ag11s        4Ag1pz        4Ag1py        4Ag1px        4Ag2pz    
   78    4Ag2py        4Ag2px        4Ag3pz        4Ag3py        4Ag3px        4Ag4pz        4Ag4py        4Ag4px        4Ag5pz        4Ag5py    
   79    4Ag5px        4Ag6pz        4Ag6py        4Ag6px        4Ag7pz        4Ag7py        4Ag7px        4Ag8pz        4Ag8py        4Ag8px    
   80    4Ag9pz        4Ag9py        4Ag9px        4Ag10pz       4Ag10py       4Ag10px       4Ag1d-2       4Ag1d-1       4Ag1d0        4Ag1d+1   
   81    4Ag1d+2       4Ag2d-2       4Ag2d-1       4Ag2d0        4Ag2d+1       4Ag2d+2       4Ag3d-2       4Ag3d-1       4Ag3d0        4Ag3d+1   
   82    4Ag3d+2       4Ag4d-2       4Ag4d-1       4Ag4d0        4Ag4d+1       4Ag4d+2       4Ag5d-2       4Ag5d-1       4Ag5d0        4Ag5d+1   
   83    4Ag5d+2       4Ag6d-2       4Ag6d-1       4Ag6d0        4Ag6d+1       4Ag6d+2       4Ag7d-2       4Ag7d-1       4Ag7d0        4Ag7d+1   
   84    4Ag7d+2       4Ag8d-2       4Ag8d-1       4Ag8d0        4Ag8d+1       4Ag8d+2       4Ag9d-2       4Ag9d-1       4Ag9d0        4Ag9d+1   
   85    4Ag9d+2       4Ag1f-3       4Ag1f-2       4Ag1f-1       4Ag1f0        4Ag1f+1       4Ag1f+2       4Ag1f+3       4Ag2f-3       4Ag2f-2   
   86    4Ag2f-1       4Ag2f0        4Ag2f+1       4Ag2f+2       4Ag2f+3       4Ag3f-3       4Ag3f-2       4Ag3f-1       4Ag3f0        4Ag3f+1   
   87    4Ag3f+2       4Ag3f+3       4Ag4f-3       4Ag4f-2       4Ag4f-1       4Ag4f0        4Ag4f+1       4Ag4f+2       4Ag4f+3       4Ag5f-3   
   88    4Ag5f-2       4Ag5f-1       4Ag5f0        4Ag5f+1       4Ag5f+2       4Ag5f+3       4Ag6f-3       4Ag6f-2       4Ag6f-1       4Ag6f0    
   89    4Ag6f+1       4Ag6f+2       4Ag6f+3       4Ag7f-3       4Ag7f-2       4Ag7f-1       4Ag7f0        4Ag7f+1       4Ag7f+2       4Ag7f+3   
   90    4Ag8f-3       4Ag8f-2       4Ag8f-1       4Ag8f0        4Ag8f+1       4Ag8f+2       4Ag8f+3       4Ag1g-4       4Ag1g-3       4Ag1g-2   
   91    4Ag1g-1       4Ag1g0        4Ag1g+1       4Ag1g+2       4Ag1g+3       4Ag1g+4       4Ag2g-4       4Ag2g-3       4Ag2g-2       4Ag2g-1   
   92    4Ag2g0        4Ag2g+1       4Ag2g+2       4Ag2g+3       4Ag2g+4       4Ag3g-4       4Ag3g-3       4Ag3g-2       4Ag3g-1       4Ag3g0    
   93    4Ag3g+1       4Ag3g+2       4Ag3g+3       4Ag3g+4       4Ag4g-4       4Ag4g-3       4Ag4g-2       4Ag4g-1       4Ag4g0        4Ag4g+1   
   94    4Ag4g+2       4Ag4g+3       4Ag4g+4       4Ag5g-4       4Ag5g-3       4Ag5g-2       4Ag5g-1       4Ag5g0        4Ag5g+1       4Ag5g+2   
   95    4Ag5g+3       4Ag5g+4       4Ag6g-4       4Ag6g-3       4Ag6g-2       4Ag6g-1       4Ag6g0        4Ag6g+1       4Ag6g+2       4Ag6g+3   
   96    4Ag6g+4       4Ag1h-5       4Ag1h-4       4Ag1h-3       4Ag1h-2       4Ag1h-1       4Ag1h0        4Ag1h+1       4Ag1h+2       4Ag1h+3   
   97    4Ag1h+4       4Ag1h+5       4Ag2h-5       4Ag2h-4       4Ag2h-3       4Ag2h-2       4Ag2h-1       4Ag2h0        4Ag2h+1       4Ag2h+2   
   98    4Ag2h+3       4Ag2h+4       4Ag2h+5       4Ag3h-5       4Ag3h-4       4Ag3h-3       4Ag3h-2       4Ag3h-1       4Ag3h0        4Ag3h+1   
   99    4Ag3h+2       4Ag3h+3       4Ag3h+4       4Ag3h+5       4Ag1i-6       4Ag1i-5       4Ag1i-4       4Ag1i-3       4Ag1i-2       4Ag1i-1   
  100    4Ag1i0        4Ag1i+1       4Ag1i+2       4Ag1i+3       4Ag1i+4       4Ag1i+5       4Ag1i+6       4Ag2i-6       4Ag2i-5       4Ag2i-4   
  101    4Ag2i-3       4Ag2i-2       4Ag2i-1       4Ag2i0        4Ag2i+1       4Ag2i+2       4Ag2i+3       4Ag2i+4       4Ag2i+5       4Ag2i+6   
 
 Maximum number of basis functions per shell:   56
 Total number of basis functions:   1020
 
 
 Effective core potentials:
 
   1  Ag mcdhf-ecp-28        
   2  Ag mcdhf-ecp-28        
   3  Ag mcdhf-ecp-28        
   4  Ag mcdhf-ecp-28        
 
 Initializing the SAD routines for the initial guess...
 Checking the files required for the initial guess...
 Density files have not been found for the initial guess.
 Generating SCFDENSITIES.Ag.def2-svp.0
 CPU time [min]:     0.118                   Wall time [min]:     0.167
 
 Character table for point group C1:
 
          E  
    A     1
 
 Number of basis functions per irrep:
    A     124
 
 
 Density functional: PBE hybrid functional (PBE0)
 Constructing integration grid for DFT...
 Angular integration grid: adaptive 590-point Lebedev quadrature
 Radial integration grid: Log3 quadrature
 Total number of grid points: 93808       
 CPU time [min]:     1.050                   Wall time [min]:     0.195
 
 Calculation of overlap integrals...
 CPU time [min]:     1.053                   Wall time [min]:     0.195
 
 Calculation of the square root of the overlap matrix...
 Minimum eigenvalue of the overlap matrix: 0.555185E-03
 CPU time [min]:     1.077                   Wall time [min]:     0.196
 
 Calculation of kinetic energy integrals...
 CPU time [min]:     1.078                   Wall time [min]:     0.196
 Calculation of dipole moment integrals...
 CPU time [min]:     1.079                   Wall time [min]:     0.196
 Calculation of nuclear attraction integrals...
 CPU time [min]:     1.081                   Wall time [min]:     0.196
 Calculation of core potential integrals...
 CPU time [min]:     1.222                   Wall time [min]:     0.224
 
 Calculation of prescreening integrals...
 CPU time [min]:     1.368                   Wall time [min]:     0.228
 
 Calculation of two-center Coulomb integrals...
   1% done.
  15% done.
  26% done.
  41% done.
  53% done.
  70% done.
  89% done.
 100% done.
 CPU time [min]:     1.389                   Wall time [min]:     0.229
 
 Cholesky decomposition of the two-center matrix...
 Reciprocal of the condition number:  0.754992E-05
 CPU time [min]:     1.428                   Wall time [min]:     0.230
 
 
 Running small-basis SCF...

 ************************ 2023-10-22 09:19:31 *************************
 Executing scf...

 @scfsetup: integrals calculated directly
            mrcc/integ direct run
 @scfsetup: calculating on full matrices
            not using symmetry adapted basis
 @scfsetup: diis switched on
 @scfsetup: number of steps to extrapolate from  10
 @scfsetup: tolerance in energy deviation    0.100000E-05
            tolerance in density deviation    0.100000E-05
 @scfsetup: maximum number of iterations:  50
 @scfsetup: restricted closed shell hf calc
 @scfsetup: starting scf from superposition of atomic densities
 @scfsetup: occupation set:
            from initial orbitals
 @scfsetup: Parameter-set for SCF acceleration: difficult
 @scfsetup: diis runs from iteration:   2
 @scfsetup: diis runs to iteration:  50
 @scfsetup: diis runs in every iteration
 @scfsetup: diiswatch is disabled                   
 @scfsetup: diis dtol criteria to switch on:      0.0000E+00
           (or the iteration number below is reached)
 @scfsetup: static damping scheme
            iteration step criteria to turn damping off: 3
 @scfsetup: dynamic level shifting
            tolarance in HOMO-LUMO gap:  0.200
            tolarance in density deviation:     0.0000E+00
            iteration step criteria to turn level shifting off: 8
 Allocation of 220.0 Gbytes of memory...
 ======================================================================
 ITERATION STEP   1
 CPU time [min]:     0.023                   Wall time [min]:     0.005
 

 SCF control                  : initial
 Damping factor/level shift   : 0.700/0.200
 DIIS [start/end/frequency]   :   2 / 50 /  1

 Constructing Fock-matrix...
 
 Pipek-Mezey localization...
 Step  Convergence
   1   8.139888553007
   2   1.236265686245
   3   0.034349261514
   4   0.000045583640
   5   0.000000082657
 CPU time [min]:     0.045                   Wall time [min]:     0.005
 
 Constructing local fitting domains...
 Maximum number of atoms in fitting domains:    4
 Average number of atoms in fitting domains:    3.5
 
 First step of Coulomb + first step of exchange...
 Exchange contribution is evaluated for MOs 1 to 38.
   1% done.
  13% done.
  25% done.
  38% done.
  56% done.
  75% done.
  89% done.
 100% done.
 Fitting and assembly step of exchange...
 CPU time [min]:     0.571                   Wall time [min]:     0.020
 
 Second step of Coulomb...
   1% done.
  13% done.
  25% done.
  38% done.
  56% done.
  75% done.
  89% done.
 100% done.
 CPU time [min]:     0.612                   Wall time [min]:     0.021
 
 Calculating the exchange-correlation matrix...
                  0.7500*PBEX [au]:    -41.881258947347
                  1.0000*PBEC [au]:     -3.366496361778
 Exchange-correlation energy  [au]:    -45.247755309124
 CPU time [min]:     0.932                   Wall time [min]:     0.039
 
 Coulomb energy + HF exchange [au]:    837.744143618861
 Gradient norm:      8.1789E-01
 RMS of [F,P]:                                         0.02562912585566
 RMS of difference density:                            0.01641424841172
 Gap [au]:  0.00000000
 ALPHA OCC:  38
 BETA  OCC:  38
 
 ***KOHN-SHAM ENERGY IN STEP   1 IS          -586.1683896223330521 [AU]
 ======================================================================
 ITERATION STEP   2
 CPU time [min]:     0.946                   Wall time [min]:     0.040
 

 SCF control                  : diis+damping
 Damping factor/level shift   : 0.700/0.200
 DIIS [start/end/frequency]   :   2 / 50 /  1

 Constructing Fock-matrix...
 
 Pipek-Mezey localization...
 Step  Convergence
   1  18.433948015883
   2   2.869104296224
   3   0.204314470872
   4   0.000945321834
   5   0.000000824697
 CPU time [min]:     0.968                   Wall time [min]:     0.040
 
 Constructing local fitting domains...
 Maximum number of atoms in fitting domains:    4
 Average number of atoms in fitting domains:    3.5
 
 First step of Coulomb + first step of exchange...
 Exchange contribution is evaluated for MOs 1 to 38.
   1% done.
  13% done.
  25% done.
  38% done.
  56% done.
  75% done.
  89% done.
 100% done.
 Fitting and assembly step of exchange...
 CPU time [min]:     1.435                   Wall time [min]:     0.053
 
 Second step of Coulomb...
   1% done.
  13% done.
  25% done.
  38% done.
  56% done.
  75% done.
  89% done.
 100% done.
 CPU time [min]:     1.471                   Wall time [min]:     0.054
 
 Calculating the exchange-correlation matrix...
                  0.7500*PBEX [au]:    -40.742545320356
                  1.0000*PBEC [au]:     -3.318712215503
 Exchange-correlation energy  [au]:    -44.061257535859
 CPU time [min]:     1.786                   Wall time [min]:     0.072
 
 Coulomb energy + HF exchange [au]:    823.841588751418
 Gradient norm:      2.4536E-01
 DIIS is running in this iteration step.
 RMS of [F,P]:                                         0.01631270627276
 RMS of difference density:                            0.00497417414145
 Gap [au]:  0.07205941
 ALPHA OCC:  38
 BETA  OCC:  38
 
 ***KOHN-SHAM ENERGY IN STEP   2 IS          -587.1180828732976806 [AU]
 
 Step comparison  Energy Drift [au]  DIIS error drift  Gradient drift
        1            9.4969E-01         9.3164E-03       5.7253E-01
        2            5.8712E+02         1.0000E-06       5.7253E-01
 ======================================================================
 ITERATION STEP   3
 CPU time [min]:     1.798                   Wall time [min]:     0.073
 

 SCF control                  : diis+damping
 Damping factor/level shift   : 0.700/0.200
 DIIS [start/end/frequency]   :   2 / 50 /  1

 Constructing Fock-matrix...
 
 Pipek-Mezey localization...
 Step  Convergence
   1  18.312375747644
   2   2.337632795323
   3   0.109058664302
   4   0.000197429103
   5   0.000000043273
 CPU time [min]:     1.820                   Wall time [min]:     0.073
 
 Constructing local fitting domains...
 Local fitting domains are unchanged.
 
 First step of Coulomb + first step of exchange...
 Exchange contribution is evaluated for MOs 1 to 38.
   1% done.
  13% done.
  25% done.
  38% done.
  56% done.
  75% done.
  89% done.
 100% done.
 Fitting and assembly step of exchange...
 CPU time [min]:     2.288                   Wall time [min]:     0.086
 
 Second step of Coulomb...
   1% done.
  13% done.
  25% done.
  38% done.
  56% done.
  75% done.
  89% done.
 100% done.
 CPU time [min]:     2.324                   Wall time [min]:     0.087
 
 Calculating the exchange-correlation matrix...
                  0.7500*PBEX [au]:    -40.364909156709
                  1.0000*PBEC [au]:     -3.304439895873
 Exchange-correlation energy  [au]:    -43.669349052582
 CPU time [min]:     2.639                   Wall time [min]:     0.105
 
 Coulomb energy + HF exchange [au]:    819.418031416761
 Gradient norm:      7.1947E-02
 DIIS is running in this iteration step.
 RMS of [F,P]:                                         0.01150602758077
 RMS of difference density:                            0.00411521223761
 Gap [au]:  0.07689470
 ALPHA OCC:  38
 BETA  OCC:  38
 
 ***KOHN-SHAM ENERGY IN STEP   3 IS          -587.3221020064493132 [AU]
 
 Step comparison  Energy Drift [au]  DIIS error drift  Gradient drift
        2            2.0402E-01         4.8067E-03       1.7341E-01
 ======================================================================
 ITERATION STEP   4
 CPU time [min]:     2.650                   Wall time [min]:     0.106
 

 SCF control                  : diis
 Damping factor/level shift   : 0.000/0.200
 DIIS [start/end/frequency]   :   2 / 50 /  1

 Constructing Fock-matrix...
 
 Pipek-Mezey localization...
 Step  Convergence
   1  16.189420256897
   2   2.328354274794
   3   0.092677531221
   4   0.000183579013
   5   0.000000152078
 CPU time [min]:     2.671                   Wall time [min]:     0.106
 
 Constructing local fitting domains...
 Local fitting domains are unchanged.
 
 First step of Coulomb + first step of exchange...
 Exchange contribution is evaluated for MOs 1 to 38.
   1% done.
  13% done.
  25% done.
  38% done.
  56% done.
  75% done.
  89% done.
 100% done.
 Fitting and assembly step of exchange...
 CPU time [min]:     3.139                   Wall time [min]:     0.119
 
 Second step of Coulomb...
   1% done.
  13% done.
  25% done.
  38% done.
  56% done.
  75% done.
  89% done.
 100% done.
 CPU time [min]:     3.174                   Wall time [min]:     0.120
 
 Calculating the exchange-correlation matrix...
                  0.7500*PBEX [au]:    -40.298038207957
                  1.0000*PBEC [au]:     -3.303871955928
 Exchange-correlation energy  [au]:    -43.601910163886
 CPU time [min]:     3.489                   Wall time [min]:     0.138
 
 Coulomb energy + HF exchange [au]:    819.648479315645
 Gradient norm:      1.5894E-01
 DIIS is running in this iteration step.
 RMS of [F,P]:                                         0.00881001468021
 RMS of difference density:                            0.01260536407871
 Gap [au]:  0.07977505
 ALPHA OCC:  38
 BETA  OCC:  38
 
 ***KOHN-SHAM ENERGY IN STEP   4 IS          -587.3150837069199497 [AU]
 
 Step comparison  Energy Drift [au]  DIIS error drift  Gradient drift
        3           -7.0183E-03         2.6960E-03      -8.6993E-02
 Warning! The energy goes uphill (with respect to previous step).
 Warning! The gradient goes uphill (with respect to previous step).
 Warning! The gradient goes uphill (with respect to step   3 ).
 ======================================================================
 ITERATION STEP   5
 CPU time [min]:     3.499                   Wall time [min]:     0.138
 

 SCF control                  : diis
 Damping factor/level shift   : 0.000/0.200
 DIIS [start/end/frequency]   :   2 / 50 /  1

 Constructing Fock-matrix...
 
 Pipek-Mezey localization...
 Step  Convergence
   1  18.465169160151
   2   2.060099581460
   3   0.085415137580
   4   0.000174742643
   5   0.000000093440
 CPU time [min]:     3.519                   Wall time [min]:     0.139
 
 Constructing local fitting domains...
 Local fitting domains are unchanged.
 
 First step of Coulomb + first step of exchange...
 Exchange contribution is evaluated for MOs 1 to 38.
   1% done.
  13% done.
  25% done.
  38% done.
  56% done.
  75% done.
  89% done.
 100% done.
 Fitting and assembly step of exchange...
 CPU time [min]:     3.988                   Wall time [min]:     0.152
 
 Second step of Coulomb...
   1% done.
  13% done.
  25% done.
  38% done.
  56% done.
  75% done.
  89% done.
 100% done.
 CPU time [min]:     4.023                   Wall time [min]:     0.153
 
 Calculating the exchange-correlation matrix...
                  0.7500*PBEX [au]:    -39.957641692351
                  1.0000*PBEC [au]:     -3.295277437635
 Exchange-correlation energy  [au]:    -43.252919129987
 CPU time [min]:     4.338                   Wall time [min]:     0.171
 
 Coulomb energy + HF exchange [au]:    815.931520812046
 Gradient norm:      3.2703E-02
 DIIS is running in this iteration step.
 RMS of [F,P]:                                         0.00061291435305
 RMS of difference density:                            0.00359264100574
 Gap [au]:  0.07889642
 ALPHA OCC:  38
 BETA  OCC:  38
 
 ***KOHN-SHAM ENERGY IN STEP   5 IS          -587.5064751625659483 [AU]
 
 Step comparison  Energy Drift [au]  DIIS error drift  Gradient drift
        4            1.9139E-01         8.1971E-03       1.2624E-01
 ======================================================================
 ITERATION STEP   6
 CPU time [min]:     4.346                   Wall time [min]:     0.171
 

 SCF control                  : diis
 Damping factor/level shift   : 0.000/0.200
 DIIS [start/end/frequency]   :   2 / 50 /  1

 Constructing Fock-matrix...
 
 Pipek-Mezey localization...
 Step  Convergence
   1  19.881413395184
   2   5.151079500031
   3   0.397322840421
   4   0.003579390977
   5   0.000000258061
 CPU time [min]:     4.367                   Wall time [min]:     0.172
 
 Constructing local fitting domains...
 Local fitting domains are unchanged.
 
 First step of Coulomb + first step of exchange...
 Exchange contribution is evaluated for MOs 1 to 38.
   1% done.
  13% done.
  25% done.
  38% done.
  56% done.
  75% done.
  89% done.
 100% done.
 Fitting and assembly step of exchange...
 CPU time [min]:     4.835                   Wall time [min]:     0.185
 
 Second step of Coulomb...
   1% done.
  13% done.
  25% done.
  38% done.
  56% done.
  75% done.
  89% done.
 100% done.
 CPU time [min]:     4.871                   Wall time [min]:     0.186
 
 Calculating the exchange-correlation matrix...
                  0.7500*PBEX [au]:    -39.949463100968
                  1.0000*PBEC [au]:     -3.295874921612
 Exchange-correlation energy  [au]:    -43.245338022580
 CPU time [min]:     5.186                   Wall time [min]:     0.204
 
 Coulomb energy + HF exchange [au]:    815.943502784344
 Gradient norm:      9.8247E-03
 DIIS is running in this iteration step.
 RMS of [F,P]:                                         0.00022551730552
 RMS of difference density:                            0.00151820728952
 Gap [au]:  0.08000822
 ALPHA OCC:  38
 BETA  OCC:  38
 
 ***KOHN-SHAM ENERGY IN STEP   6 IS          -587.5078879520631290 [AU]
 
 Step comparison  Energy Drift [au]  DIIS error drift  Gradient drift
        5            1.4128E-03         3.8740E-04       2.2878E-02
 ======================================================================
 ITERATION STEP   7
 CPU time [min]:     5.195                   Wall time [min]:     0.204
 

 SCF control                  : diis
 Damping factor/level shift   : 0.000/0.200
 DIIS [start/end/frequency]   :   2 / 50 /  1

 Constructing Fock-matrix...
 
 Pipek-Mezey localization...
 Step  Convergence
   1  21.521847422775
   2   4.927757442726
   3   1.008860630100
   4   0.161891605452
   5   0.274906788747
   6   0.009889631818
   7   0.001271000807
   8   0.000224417603
   9   0.000050583566
  10   0.000018722218
  11   0.000007987582
  12   0.000004619184
  13   0.000002578647
  14   0.000001581156
  15   0.000000935765
  16   0.000000570861
  17   0.000000342805
  18   0.000000208056
  19   0.000000125504
  20   0.000000075998
 CPU time [min]:     5.222                   Wall time [min]:     0.205
 
 Constructing local fitting domains...
 Local fitting domains are unchanged.
 
 First step of Coulomb + first step of exchange...
 Exchange contribution is evaluated for MOs 1 to 38.
   1% done.
  13% done.
  25% done.
  38% done.
  56% done.
  75% done.
  89% done.
 100% done.
 Fitting and assembly step of exchange...
 CPU time [min]:     5.690                   Wall time [min]:     0.218
 
 Second step of Coulomb...
   1% done.
  13% done.
  25% done.
  38% done.
  56% done.
  75% done.
  89% done.
 100% done.
 CPU time [min]:     5.726                   Wall time [min]:     0.219
 
 Calculating the exchange-correlation matrix...
                  0.7500*PBEX [au]:    -39.945283234965
                  1.0000*PBEC [au]:     -3.296133412732
 Exchange-correlation energy  [au]:    -43.241416647697
 CPU time [min]:     6.041                   Wall time [min]:     0.237
 
 Coulomb energy + HF exchange [au]:    815.915649849023
 Gradient norm:      7.5462E-03
 DIIS is running in this iteration step.
 RMS of [F,P]:                                         0.00015751689721
 RMS of difference density:                            0.00074821941441
 Gap [au]:  0.07981743
 ALPHA OCC:  38
 BETA  OCC:  38
 
 ***KOHN-SHAM ENERGY IN STEP   7 IS          -587.5081550907852943 [AU]
 
 Step comparison  Energy Drift [au]  DIIS error drift  Gradient drift
        6            2.6714E-04         6.8000E-05       2.2784E-03
 ======================================================================
 ITERATION STEP   8
 CPU time [min]:     6.049                   Wall time [min]:     0.237
 

 SCF control                  : diis
 Damping factor/level shift   : 0.000/0.200
 DIIS [start/end/frequency]   :   2 / 50 /  1

 Constructing Fock-matrix...
 
 Pipek-Mezey localization...
 Step  Convergence
   1  20.928362277583
   2   7.573915859015
   3   3.934112119381
   4   0.902307418169
   5   0.101418093850
   6   0.013956159308
   7   0.004197144184
   8   0.002054210864
   9   0.001308930929
  10   0.000845267880
  11   0.000551709554
  12   0.000426137682
  13   0.000223414213
  14   0.000145466260
  15   0.000093438930
  16   0.000060975828
  17   0.000039643822
  18   0.000025315249
  19   0.000016411907
  20   0.000010641796
  21   0.000007055746
  22   0.000004447905
  23   0.000002894893
  24   0.000001878514
  25   0.000001220544
  26   0.000000793052
  27   0.000000515458
  28   0.000000335111
  29   0.000000217897
  30   0.000000141715
  31   0.000000092184
  32   0.000000059975
  33   0.000000039025
  34   0.000000025396
  35   0.000000016529
  36   0.000000010759
  37   0.000000007004
 CPU time [min]:     6.084                   Wall time [min]:     0.238
 
 Constructing local fitting domains...
 Local fitting domains are unchanged.
 
 First step of Coulomb + first step of exchange...
 Exchange contribution is evaluated for MOs 1 to 38.
   1% done.
  13% done.
  25% done.
  38% done.
  56% done.
  75% done.
  89% done.
 100% done.
 Fitting and assembly step of exchange...
 CPU time [min]:     6.554                   Wall time [min]:     0.251
 
 Second step of Coulomb...
   1% done.
  13% done.
  25% done.
  38% done.
  56% done.
  75% done.
  89% done.
 100% done.
 CPU time [min]:     6.589                   Wall time [min]:     0.252
 
 Calculating the exchange-correlation matrix...
                  0.7500*PBEX [au]:    -39.943933643936
                  1.0000*PBEC [au]:     -3.296291659216
 Exchange-correlation energy  [au]:    -43.240225303151
 CPU time [min]:     6.904                   Wall time [min]:     0.270
 
 Coulomb energy + HF exchange [au]:    815.938415619005
 Gradient norm:      4.2229E-03
 DIIS is running in this iteration step.
 RMS of [F,P]:                                         0.00006403483501
 RMS of difference density:                            0.00036312964590
 Gap [au]:  0.07992597
 ALPHA OCC:  38
 BETA  OCC:  38
 
 ***KOHN-SHAM ENERGY IN STEP   8 IS          -587.5082543284461281 [AU]
 
 Step comparison  Energy Drift [au]  DIIS error drift  Gradient drift
        7            9.9238E-05         9.3482E-05       3.3233E-03
 ======================================================================
 ITERATION STEP   9
 CPU time [min]:     6.912                   Wall time [min]:     0.270
 

 SCF control                  : diis
 Damping factor/level shift   : 0.000/0.000
 DIIS [start/end/frequency]   :   2 / 50 /  1

 Constructing Fock-matrix...
 
 Pipek-Mezey localization...
 Step  Convergence
   1  21.448639246586
   2   6.285205375950
   3   5.142637526324
   4   2.277763634673
   5   0.513160510541
   6   0.004856402038
   7   0.000082870244
   8   0.000004048679
   9   0.000000108218
  10   0.000000007102
  11   0.000000000190
  12   0.000000000012
  13   0.000000000000
 CPU time [min]:     6.937                   Wall time [min]:     0.271
 
 Constructing local fitting domains...
 Local fitting domains are unchanged.
 
 First step of Coulomb + first step of exchange...
 Exchange contribution is evaluated for MOs 1 to 38.
   1% done.
  13% done.
  25% done.
  38% done.
  56% done.
  75% done.
  89% done.
 100% done.
 Fitting and assembly step of exchange...
 CPU time [min]:     7.405                   Wall time [min]:     0.284
 
 Second step of Coulomb...
   1% done.
  13% done.
  25% done.
  38% done.
  56% done.
  75% done.
  89% done.
 100% done.
 CPU time [min]:     7.440                   Wall time [min]:     0.285
 
 Calculating the exchange-correlation matrix...
                  0.7500*PBEX [au]:    -39.942445730182
                  1.0000*PBEC [au]:     -3.296398592967
 Exchange-correlation energy  [au]:    -43.238844323149
 CPU time [min]:     7.755                   Wall time [min]:     0.303
 
 Coulomb energy + HF exchange [au]:    815.943598894081
 Gradient norm:      2.5847E-03
 DIIS is running in this iteration step.
 RMS of [F,P]:                                         0.00003293285290
 RMS of difference density:                            0.00037640013829
 Gap [au]:  0.08004373
 ALPHA OCC:  38
 BETA  OCC:  38
 
 ***KOHN-SHAM ENERGY IN STEP   9 IS          -587.5082861553410112 [AU]
 
 Step comparison  Energy Drift [au]  DIIS error drift  Gradient drift
        8            3.1827E-05         3.1102E-05       1.6382E-03
 ======================================================================
 ITERATION STEP  10
 CPU time [min]:     7.801                   Wall time [min]:     0.304
 

 SCF control                  : diis
 Damping factor/level shift   : 0.000/0.000
 DIIS [start/end/frequency]   :   2 / 50 /  1

 Constructing Fock-matrix...
 
 Pipek-Mezey localization...
 Step  Convergence
   1  22.470077609155
   2   7.553631364617
   3   6.991849277060
   4   4.711960887930
   5   1.039648307125
   6   0.019240996703
   7   0.000116723563
   8   0.000000155728
   9   0.000000001377
  10   0.000000000010
  11   0.000000000001
 CPU time [min]:     7.827                   Wall time [min]:     0.305
 
 Constructing local fitting domains...
 Local fitting domains are unchanged.
 
 First step of Coulomb + first step of exchange...
 Exchange contribution is evaluated for MOs 1 to 38.
   1% done.
  13% done.
  25% done.
  38% done.
  56% done.
  75% done.
  89% done.
 100% done.
 Fitting and assembly step of exchange...
 CPU time [min]:     8.296                   Wall time [min]:     0.318
 
 Second step of Coulomb...
   1% done.
  13% done.
  25% done.
  38% done.
  56% done.
  75% done.
  89% done.
 100% done.
 CPU time [min]:     8.331                   Wall time [min]:     0.319
 
 Calculating the exchange-correlation matrix...
                  0.7500*PBEX [au]:    -39.942127457540
                  1.0000*PBEC [au]:     -3.296593633872
 Exchange-correlation energy  [au]:    -43.238721091412
 CPU time [min]:     8.646                   Wall time [min]:     0.337
 
 Coulomb energy + HF exchange [au]:    815.976846346707
 Gradient norm:      8.2803E-04
 DIIS is running in this iteration step.
 RMS of [F,P]:                                         0.00002125416549
 RMS of difference density:                            0.00004225926715
 Gap [au]:  0.08007954
 ALPHA OCC:  38
 BETA  OCC:  38
 
 ***KOHN-SHAM ENERGY IN STEP  10 IS          -587.5082977762072005 [AU]
 
 Step comparison  Energy Drift [au]  DIIS error drift  Gradient drift
        9            1.1621E-05         1.1679E-05       1.7567E-03
 ======================================================================
 ITERATION STEP  11
 CPU time [min]:     8.655                   Wall time [min]:     0.337
 

 SCF control                  : diis
 Damping factor/level shift   : 0.000/0.000
 DIIS [start/end/frequency]   :   2 / 50 /  1

 Constructing Fock-matrix...
 
 Pipek-Mezey localization...
 Step  Convergence
   1  19.011876278728
   2  11.621108053424
   3   7.051460530577
   4   5.768322111570
   5   1.187528076418
   6   0.154400565137
   7   0.000356214852
   8   0.000001880403
   9   0.000000070978
  10   0.000000002109
  11   0.000000000081
  12   0.000000000003
  13   0.000000000000
 CPU time [min]:     8.679                   Wall time [min]:     0.338
 
 Constructing local fitting domains...
 Local fitting domains are unchanged.
 
 First step of Coulomb + first step of exchange...
 Exchange contribution is evaluated for MOs 1 to 38.
   1% done.
  13% done.
  25% done.
  38% done.
  56% done.
  75% done.
  89% done.
 100% done.
 Fitting and assembly step of exchange...
 CPU time [min]:     9.162                   Wall time [min]:     0.352
 
 Second step of Coulomb...
   1% done.
  13% done.
  25% done.
  38% done.
  56% done.
  75% done.
  89% done.
 100% done.
 CPU time [min]:     9.197                   Wall time [min]:     0.353
 
 Calculating the exchange-correlation matrix...
                  0.7500*PBEX [au]:    -39.941586439234
                  1.0000*PBEC [au]:     -3.296562104125
 Exchange-correlation energy  [au]:    -43.238148543359
 CPU time [min]:     9.513                   Wall time [min]:     0.371
 
 Coulomb energy + HF exchange [au]:    815.960736808456
 Gradient norm:      3.4480E-04
 DIIS is running in this iteration step.
 RMS of [F,P]:                                         0.00000864871138
 RMS of difference density:                            0.00001494346393
 Gap [au]:  0.08007662
 ALPHA OCC:  38
 BETA  OCC:  38
 
 ***KOHN-SHAM ENERGY IN STEP  11 IS          -587.5082989244797318 [AU]
 
 Step comparison  Energy Drift [au]  DIIS error drift  Gradient drift
       10            1.1483E-06         1.2605E-05       4.8324E-04
 ======================================================================
 ITERATION STEP  12
 CPU time [min]:     9.521                   Wall time [min]:     0.371
 

 SCF control                  : diis
 Damping factor/level shift   : 0.000/0.000
 DIIS [start/end/frequency]   :   2 / 50 /  1

 Constructing Fock-matrix...
 
 Pipek-Mezey localization...
 Step  Convergence
   1  18.231946212690
   2   6.674143175307
   3   7.922145546124
   4   3.482894830880
   5   0.260086293001
   6   0.012081062775
   7   0.000190509595
   8   0.000012390813
   9   0.000000242290
  10   0.000000017586
  11   0.000000000357
  12   0.000000000026
  13   0.000000000001
 CPU time [min]:     9.546                   Wall time [min]:     0.371
 
 Constructing local fitting domains...
 Local fitting domains are unchanged.
 
 First step of Coulomb + first step of exchange...
 Exchange contribution is evaluated for MOs 1 to 38.
   1% done.
  13% done.
  25% done.
  38% done.
  56% done.
  75% done.
  89% done.
 100% done.
 Fitting and assembly step of exchange...
 CPU time [min]:    10.013                   Wall time [min]:     0.385
 
 Second step of Coulomb...
   1% done.
  13% done.
  25% done.
  38% done.
  56% done.
  75% done.
  89% done.
 100% done.
 CPU time [min]:    10.048                   Wall time [min]:     0.385
 
 Calculating the exchange-correlation matrix...
                  0.7500*PBEX [au]:    -39.941414915903
                  1.0000*PBEC [au]:     -3.296568518235
 Exchange-correlation energy  [au]:    -43.237983434137
 CPU time [min]:    10.363                   Wall time [min]:     0.403
 
 Coulomb energy + HF exchange [au]:    815.961483987457
 Gradient norm:      7.3955E-05
 DIIS is running in this iteration step.
 RMS of [F,P]:                                         0.00000193985336
 RMS of difference density:                            0.00000350245800
 Gap [au]:  0.08007969
 ALPHA OCC:  38
 BETA  OCC:  38
 
 ***KOHN-SHAM ENERGY IN STEP  12 IS          -587.5082991079957537 [AU]
 
 Step comparison  Energy Drift [au]  DIIS error drift  Gradient drift
       11            1.8352E-07         6.7089E-06       2.7084E-04
 ======================================================================
 ITERATION STEP  13
 CPU time [min]:    10.371                   Wall time [min]:     0.404
 

 SCF control                  : diis
 Damping factor/level shift   : 0.000/0.000
 DIIS [start/end/frequency]   :   2 / 50 /  1

 Constructing Fock-matrix...
 
 Pipek-Mezey localization...
 Step  Convergence
   1  20.774686642940
   2   6.926799559687
   3   7.614897702618
   4   3.317763232634
   5   0.133530649300
   6   0.004033371858
   7   0.000080866419
   8   0.000003274255
   9   0.000000113745
  10   0.000000004133
  11   0.000000000158
  12   0.000000000005
  13   0.000000000000
 CPU time [min]:    10.396                   Wall time [min]:     0.404
 
 Constructing local fitting domains...
 Local fitting domains are unchanged.
 
 First step of Coulomb + first step of exchange...
 Exchange contribution is evaluated for MOs 1 to 38.
   1% done.
  13% done.
  25% done.
  38% done.
  56% done.
  75% done.
  89% done.
 100% done.
 Fitting and assembly step of exchange...
 CPU time [min]:    10.864                   Wall time [min]:     0.417
 
 Second step of Coulomb...
   1% done.
  13% done.
  25% done.
  38% done.
  56% done.
  75% done.
  89% done.
 100% done.
 CPU time [min]:    10.899                   Wall time [min]:     0.418
 
 Calculating the exchange-correlation matrix...
                  0.7500*PBEX [au]:    -39.941389398598
                  1.0000*PBEC [au]:     -3.296570431072
 Exchange-correlation energy  [au]:    -43.237959829670
 CPU time [min]:    11.214                   Wall time [min]:     0.436
 
 Coulomb energy + HF exchange [au]:    815.961883934327
 Gradient norm:      1.0592E-05
 DIIS is running in this iteration step.
 RMS of [F,P]:                                         0.00000026429028
 RMS of difference density:                            0.00000120611344
 Gap [au]:  0.08008216
 ALPHA OCC:  38
 BETA  OCC:  38
 
 ***KOHN-SHAM ENERGY IN STEP  13 IS          -587.5082991147764915 [AU]
 
 Step comparison  Energy Drift [au]  DIIS error drift  Gradient drift
       12            6.7807E-09         1.6756E-06       6.3363E-05
 ======================================================================
 ITERATION STEP  14
 CPU time [min]:    11.223                   Wall time [min]:     0.437
 

 SCF control                  : diis
 Damping factor/level shift   : 0.000/0.000
 DIIS [start/end/frequency]   :   2 / 50 /  1

 Constructing Fock-matrix...
 
 Pipek-Mezey localization...
 Step  Convergence
   1  22.997881870313
   2   7.402167774902
   3   7.788447825353
   4   3.696246111338
   5   0.295754695851
   6   0.008571629878
   7   0.000166581058
   8   0.000003140552
   9   0.000000197881
  10   0.000000004055
  11   0.000000000239
  12   0.000000000006
  13   0.000000000000
 CPU time [min]:    11.247                   Wall time [min]:     0.437
 
 Constructing local fitting domains...
 Local fitting domains are unchanged.
 
 First step of Coulomb + first step of exchange...
 Exchange contribution is evaluated for MOs 1 to 38.
   1% done.
  13% done.
  25% done.
  38% done.
  56% done.
  75% done.
  89% done.
 100% done.
 Fitting and assembly step of exchange...
 CPU time [min]:    11.714                   Wall time [min]:     0.450
 
 Second step of Coulomb...
   1% done.
  13% done.
  25% done.
  38% done.
  56% done.
  75% done.
  89% done.
 100% done.
 CPU time [min]:    11.749                   Wall time [min]:     0.451
 
 Calculating the exchange-correlation matrix...
                  0.7500*PBEX [au]:    -39.941381742884
                  1.0000*PBEC [au]:     -3.296571218047
 Exchange-correlation energy  [au]:    -43.237952960931
 CPU time [min]:    12.064                   Wall time [min]:     0.469
 
 Coulomb energy + HF exchange [au]:    815.961900830855
 Gradient norm:      4.2993E-06
 DIIS is running in this iteration step.
 RMS of [F,P]:                                         0.00000009108723
 RMS of difference density:                            0.00000018532419
 Gap [au]:  0.08008189
 ALPHA OCC:  38
 BETA  OCC:  38
 
 ***KOHN-SHAM ENERGY IN STEP  14 IS          -587.5082991154483807 [AU]
 
 Step comparison  Energy Drift [au]  DIIS error drift  Gradient drift
       13            6.7189E-10         1.7320E-07       6.2923E-06
 
 The SCF iteration has converged.
 An extra iteration will be performed to calculate accurate SCF energy.
 
 ======================================================================
 ITERATION STEP  15
 CPU time [min]:    12.073                   Wall time [min]:     0.469
 

 SCF control                  : diis
 Damping factor/level shift   : 0.000/0.000
 DIIS [start/end/frequency]   :   2 / 50 /  1

 Constructing Fock-matrix...
 
 Pipek-Mezey localization...
 Step  Convergence
   1  20.787421938445
   2   7.624858841698
   3   6.568981244558
   4   3.733633156716
   5   0.894852727019
   6   0.026763737065
   7   0.000512464298
   8   0.000002611355
   9   0.000000049188
  10   0.000000001980
  11   0.000000000025
  12   0.000000000001
  13   0.000000000000
 CPU time [min]:    12.113                   Wall time [min]:     0.471
 
 Constructing local fitting domains...
 Maximum number of atoms in fitting domains:    4
 Average number of atoms in fitting domains:    4.0
 
 First step of Coulomb + first step of exchange...
 Exchange contribution is evaluated for MOs 1 to 38.
   1% done.
  13% done.
  25% done.
  38% done.
  56% done.
  75% done.
  89% done.
 100% done.
 CPU time [min]:    12.221                   Wall time [min]:     0.474
 
 Fitting and assembly step of exchange...
 CPU time [min]:    12.230                   Wall time [min]:     0.474
 
 Second step of Coulomb...
   1% done.
  13% done.
  25% done.
  38% done.
  56% done.
  75% done.
  89% done.
 100% done.
 CPU time [min]:    12.266                   Wall time [min]:     0.475
 
 Calculating the exchange-correlation matrix...
                  0.7500*PBEX [au]:    -39.941382384248
                  1.0000*PBEC [au]:     -3.296571294248
 Exchange-correlation energy  [au]:    -43.237953678496
 CPU time [min]:    12.581                   Wall time [min]:     0.493
 
 Coulomb energy + HF exchange [au]:    815.961915188024
 Gradient norm:      4.2938E-06
 RMS of [F,P]:                                         0.00000012046458
 RMS of difference density:                            0.00000045859118
 Gap [au]:  0.08008169
 ALPHA OCC:  38
 BETA  OCC:  38
 
 ***KOHN-SHAM ENERGY IN STEP  15 IS          -587.5083235161050652 [AU]
 
 Step comparison  Energy Drift [au]  DIIS error drift  Gradient drift
       14            2.4401E-05        -2.9377E-08       5.5081E-09
 Warning! The DIIS error goes uphill (with respect to previous step).
 Warning! The DIIS error goes uphill (with respect to step  14 ).
 ======================================================================
 
 SUCCESS...
 THE SCF ITERATION HAS CONVERGED!
 
                   A   
 FINAL ALPHA OCC:  38
 FINAL BETA  OCC:  38
 
 ***FINAL KOHN-SHAM ENERGY:          -587.5083235161050652 [AU]
 
 Orbital energies [au]:
      Irrep         Alpha          Beta
    1   A         -3.790403      -3.790403
    2   A         -3.790402      -3.790402
    3   A         -3.785538      -3.785538
    4   A         -3.785211      -3.785211
    5   A         -2.368978      -2.368978
    6   A         -2.368122      -2.368122
    7   A         -2.363323      -2.363323
    8   A         -2.363323      -2.363323
    9   A         -2.363322      -2.363322
   10   A         -2.363322      -2.363322
   11   A         -2.362716      -2.362716
   12   A         -2.359522      -2.359522
   13   A         -2.357107      -2.357107
   14   A         -2.357107      -2.357107
   15   A         -2.356804      -2.356804
   16   A         -2.356804      -2.356804
   17   A         -0.393802      -0.393802
   18   A         -0.365060      -0.365060
   19   A         -0.363819      -0.363819
   20   A         -0.363819      -0.363819
   21   A         -0.351743      -0.351743
   22   A         -0.351743      -0.351743
   23   A         -0.337645      -0.337645
   24   A         -0.337645      -0.337645
   25   A         -0.336923      -0.336923
   26   A         -0.336923      -0.336923
   27   A         -0.328938      -0.328938
   28   A         -0.328938      -0.328938
   29   A         -0.327200      -0.327200
   30   A         -0.327200      -0.327200
   31   A         -0.324374      -0.324374
   32   A         -0.323971      -0.323971
   33   A         -0.323971      -0.323971
   34   A         -0.307171      -0.307171
   35   A         -0.307171      -0.307171
   36   A         -0.297402      -0.297402
   37   A         -0.229904      -0.229904
   38   A         -0.202924      -0.202924
 
   39   A         -0.122842      -0.122842
   40   A         -0.049754      -0.049754
   41   A         -0.030346      -0.030346
   42   A         -0.030346      -0.030346
   43   A         -0.006558      -0.006558
   44   A         -0.006558      -0.006558
   45   A          0.001495       0.001495
   46   A          0.036429       0.036429
   47   A          0.036429       0.036429
   48   A          0.083185       0.083185
   49   A          0.090630       0.090630
   50   A          0.091046       0.091046
   51   A          0.091046       0.091046
   52   A          0.092921       0.092921
   53   A          0.131573       0.131573
   54   A          0.153453       0.153453
   55   A          0.214429       0.214429
   56   A          0.241001       0.241001
   57   A          0.293842       0.293842
   58   A          0.293842       0.293842
   59   A          0.312293       0.312293
   60   A          0.312293       0.312293
   61   A          0.343674       0.343674
   62   A          0.343674       0.343674
   63   A          0.345436       0.345436
   64   A          0.401157       0.401157
   65   A          0.402040       0.402040
   66   A          0.402040       0.402040
   67   A          0.407543       0.407543
   68   A          0.407543       0.407543
   69   A          0.436619       0.436619
   70   A          0.436619       0.436619
   71   A          0.436770       0.436770
   72   A          0.440535       0.440535
   73   A          0.440535       0.440535
   74   A          0.493720       0.493720
   75   A          0.493720       0.493720
   76   A          0.525577       0.525577
   77   A          0.525577       0.525577
   78   A          0.552377       0.552377
   79   A          0.554893       0.554893
   80   A          0.554893       0.554893
   81   A          0.639066       0.639066
   82   A          0.639066       0.639066
   83   A          0.678540       0.678540
   84   A          0.829931       0.829931
   85   A          0.829931       0.829931
   86   A          0.846868       0.846868
   87   A          0.971474       0.971474
   88   A          1.062095       1.062095
   89   A          2.039410       2.039410
   90   A          2.116457       2.116457
   91   A          2.168733       2.168733
   92   A          2.461120       2.461120
   93   A          2.602680       2.602680
   94   A          2.602680       2.602680
   95   A          2.602781       2.602781
   96   A          2.602781       2.602781
   97   A          2.602790       2.602790
   98   A          2.602790       2.602790
   99   A          2.604685       2.604685
  100   A          2.604685       2.604685
  101   A          2.604685       2.604685
  102   A          2.604685       2.604685
  103   A          2.608728       2.608728
  104   A          2.609091       2.609091
  105   A          2.609091       2.609091
  106   A          2.610147       2.610147
  107   A          2.610147       2.610147
  108   A          2.610224       2.610224
  109   A          2.610224       2.610224
  110   A          2.613089       2.613089
  111   A          2.613089       2.613089
  112   A          2.613100       2.613100
  113   A          2.613100       2.613100
  114   A          2.615785       2.615785
  115   A          2.615785       2.615785
  116   A          2.619510       2.619510
  117   A          2.619510       2.619510
  118   A          2.646695       2.646695
  119   A          2.685198       2.685198
  120   A          2.772943       2.772943
  121   A         55.920234      55.920234
  122   A         55.977665      55.977665
  123   A         56.008347      56.008347
  124   A         56.259073      56.259073
 
 RETURNING FROM SCF ALGORITHM
 ======================================================================

 ************************ 2023-10-22 09:20:01 *************************
 Executing integ...

 Allocation of 220.0 Gbytes of memory...
 
 
 Number of atoms:                  4
 Charge:                           0
 Number of electrons:             76
 Number of core electrons:        32
 Spin multiplicity:                1
 
                 Cartesian coordinates [bohr]      Atomic mass [AMU]  Z
   1  Ag   -7.39863915    0.00000000    0.00000000   106.905092      47
   2  Ag   -2.53041821    0.00000000    0.00000000   106.905092      47
   3  Ag    2.53041821    0.00000000    0.00000000   106.905092      47
   4  Ag    7.39863915    0.00000000    0.00000000   106.905092      47
 
 This molecule is linear.
 
 Point group: Dxh 
 Computational point group: C1  
 
 Cartesian coordinates in standard orientation [bohr]
   1  Ag    0.00000000    0.00000000   -7.39863915
   2  Ag    0.00000000    0.00000000   -2.53041821
   3  Ag    0.00000000    0.00000000    2.53041821
   4  Ag    0.00000000    0.00000000    7.39863915
 
 Nuclear repulsion energy [au]:        316.753124874413
 
 
 Basis set information:
 
 Maximum angular momentum: k
 Maximum number of contracted Gaussians:   13
 Maximum number of primitive Gaussians:    17
 Spherical harmonic GTOs are used.
 
 
 Conventional basis set:
 
   1  Ag bse_acvqz [ 17s 14p 13d 5f 4g 3h | 9s 9p 8d 5f 4g 3h ]
   2  Ag bse_acvqz [ 17s 14p 13d 5f 4g 3h | 9s 9p 8d 5f 4g 3h ]
   3  Ag bse_acvqz [ 17s 14p 13d 5f 4g 3h | 9s 9p 8d 5f 4g 3h ]
   4  Ag bse_acvqz [ 17s 14p 13d 5f 4g 3h | 9s 9p 8d 5f 4g 3h ]
 
 Basis functions:
            1             2             3             4             5             6             7             8             9            10
    0    1Ag1s         1Ag2s         1Ag3s         1Ag4s         1Ag5s         1Ag6s         1Ag7s         1Ag8s         1Ag9s         1Ag1pz    
    1    1Ag1py        1Ag1px        1Ag2pz        1Ag2py        1Ag2px        1Ag3pz        1Ag3py        1Ag3px        1Ag4pz        1Ag4py    
    2    1Ag4px        1Ag5pz        1Ag5py        1Ag5px        1Ag6pz        1Ag6py        1Ag6px        1Ag7pz        1Ag7py        1Ag7px    
    3    1Ag8pz        1Ag8py        1Ag8px        1Ag9pz        1Ag9py        1Ag9px        1Ag1d-2       1Ag1d-1       1Ag1d0        1Ag1d+1   
    4    1Ag1d+2       1Ag2d-2       1Ag2d-1       1Ag2d0        1Ag2d+1       1Ag2d+2       1Ag3d-2       1Ag3d-1       1Ag3d0        1Ag3d+1   
    5    1Ag3d+2       1Ag4d-2       1Ag4d-1       1Ag4d0        1Ag4d+1       1Ag4d+2       1Ag5d-2       1Ag5d-1       1Ag5d0        1Ag5d+1   
    6    1Ag5d+2       1Ag6d-2       1Ag6d-1       1Ag6d0        1Ag6d+1       1Ag6d+2       1Ag7d-2       1Ag7d-1       1Ag7d0        1Ag7d+1   
    7    1Ag7d+2       1Ag8d-2       1Ag8d-1       1Ag8d0        1Ag8d+1       1Ag8d+2       1Ag1f-3       1Ag1f-2       1Ag1f-1       1Ag1f0    
    8    1Ag1f+1       1Ag1f+2       1Ag1f+3       1Ag2f-3       1Ag2f-2       1Ag2f-1       1Ag2f0        1Ag2f+1       1Ag2f+2       1Ag2f+3   
    9    1Ag3f-3       1Ag3f-2       1Ag3f-1       1Ag3f0        1Ag3f+1       1Ag3f+2       1Ag3f+3       1Ag4f-3       1Ag4f-2       1Ag4f-1   
   10    1Ag4f0        1Ag4f+1       1Ag4f+2       1Ag4f+3       1Ag5f-3       1Ag5f-2       1Ag5f-1       1Ag5f0        1Ag5f+1       1Ag5f+2   
   11    1Ag5f+3       1Ag1g-4       1Ag1g-3       1Ag1g-2       1Ag1g-1       1Ag1g0        1Ag1g+1       1Ag1g+2       1Ag1g+3       1Ag1g+4   
   12    1Ag2g-4       1Ag2g-3       1Ag2g-2       1Ag2g-1       1Ag2g0        1Ag2g+1       1Ag2g+2       1Ag2g+3       1Ag2g+4       1Ag3g-4   
   13    1Ag3g-3       1Ag3g-2       1Ag3g-1       1Ag3g0        1Ag3g+1       1Ag3g+2       1Ag3g+3       1Ag3g+4       1Ag4g-4       1Ag4g-3   
   14    1Ag4g-2       1Ag4g-1       1Ag4g0        1Ag4g+1       1Ag4g+2       1Ag4g+3       1Ag4g+4       1Ag1h-5       1Ag1h-4       1Ag1h-3   
   15    1Ag1h-2       1Ag1h-1       1Ag1h0        1Ag1h+1       1Ag1h+2       1Ag1h+3       1Ag1h+4       1Ag1h+5       1Ag2h-5       1Ag2h-4   
   16    1Ag2h-3       1Ag2h-2       1Ag2h-1       1Ag2h0        1Ag2h+1       1Ag2h+2       1Ag2h+3       1Ag2h+4       1Ag2h+5       1Ag3h-5   
   17    1Ag3h-4       1Ag3h-3       1Ag3h-2       1Ag3h-1       1Ag3h0        1Ag3h+1       1Ag3h+2       1Ag3h+3       1Ag3h+4       1Ag3h+5   
   18    2Ag1s         2Ag2s         2Ag3s         2Ag4s         2Ag5s         2Ag6s         2Ag7s         2Ag8s         2Ag9s         2Ag1pz    
   19    2Ag1py        2Ag1px        2Ag2pz        2Ag2py        2Ag2px        2Ag3pz        2Ag3py        2Ag3px        2Ag4pz        2Ag4py    
   20    2Ag4px        2Ag5pz        2Ag5py        2Ag5px        2Ag6pz        2Ag6py        2Ag6px        2Ag7pz        2Ag7py        2Ag7px    
   21    2Ag8pz        2Ag8py        2Ag8px        2Ag9pz        2Ag9py        2Ag9px        2Ag1d-2       2Ag1d-1       2Ag1d0        2Ag1d+1   
   22    2Ag1d+2       2Ag2d-2       2Ag2d-1       2Ag2d0        2Ag2d+1       2Ag2d+2       2Ag3d-2       2Ag3d-1       2Ag3d0        2Ag3d+1   
   23    2Ag3d+2       2Ag4d-2       2Ag4d-1       2Ag4d0        2Ag4d+1       2Ag4d+2       2Ag5d-2       2Ag5d-1       2Ag5d0        2Ag5d+1   
   24    2Ag5d+2       2Ag6d-2       2Ag6d-1       2Ag6d0        2Ag6d+1       2Ag6d+2       2Ag7d-2       2Ag7d-1       2Ag7d0        2Ag7d+1   
   25    2Ag7d+2       2Ag8d-2       2Ag8d-1       2Ag8d0        2Ag8d+1       2Ag8d+2       2Ag1f-3       2Ag1f-2       2Ag1f-1       2Ag1f0    
   26    2Ag1f+1       2Ag1f+2       2Ag1f+3       2Ag2f-3       2Ag2f-2       2Ag2f-1       2Ag2f0        2Ag2f+1       2Ag2f+2       2Ag2f+3   
   27    2Ag3f-3       2Ag3f-2       2Ag3f-1       2Ag3f0        2Ag3f+1       2Ag3f+2       2Ag3f+3       2Ag4f-3       2Ag4f-2       2Ag4f-1   
   28    2Ag4f0        2Ag4f+1       2Ag4f+2       2Ag4f+3       2Ag5f-3       2Ag5f-2       2Ag5f-1       2Ag5f0        2Ag5f+1       2Ag5f+2   
   29    2Ag5f+3       2Ag1g-4       2Ag1g-3       2Ag1g-2       2Ag1g-1       2Ag1g0        2Ag1g+1       2Ag1g+2       2Ag1g+3       2Ag1g+4   
   30    2Ag2g-4       2Ag2g-3       2Ag2g-2       2Ag2g-1       2Ag2g0        2Ag2g+1       2Ag2g+2       2Ag2g+3       2Ag2g+4       2Ag3g-4   
   31    2Ag3g-3       2Ag3g-2       2Ag3g-1       2Ag3g0        2Ag3g+1       2Ag3g+2       2Ag3g+3       2Ag3g+4       2Ag4g-4       2Ag4g-3   
   32    2Ag4g-2       2Ag4g-1       2Ag4g0        2Ag4g+1       2Ag4g+2       2Ag4g+3       2Ag4g+4       2Ag1h-5       2Ag1h-4       2Ag1h-3   
   33    2Ag1h-2       2Ag1h-1       2Ag1h0        2Ag1h+1       2Ag1h+2       2Ag1h+3       2Ag1h+4       2Ag1h+5       2Ag2h-5       2Ag2h-4   
   34    2Ag2h-3       2Ag2h-2       2Ag2h-1       2Ag2h0        2Ag2h+1       2Ag2h+2       2Ag2h+3       2Ag2h+4       2Ag2h+5       2Ag3h-5   
   35    2Ag3h-4       2Ag3h-3       2Ag3h-2       2Ag3h-1       2Ag3h0        2Ag3h+1       2Ag3h+2       2Ag3h+3       2Ag3h+4       2Ag3h+5   
   36    3Ag1s         3Ag2s         3Ag3s         3Ag4s         3Ag5s         3Ag6s         3Ag7s         3Ag8s         3Ag9s         3Ag1pz    
   37    3Ag1py        3Ag1px        3Ag2pz        3Ag2py        3Ag2px        3Ag3pz        3Ag3py        3Ag3px        3Ag4pz        3Ag4py    
   38    3Ag4px        3Ag5pz        3Ag5py        3Ag5px        3Ag6pz        3Ag6py        3Ag6px        3Ag7pz        3Ag7py        3Ag7px    
   39    3Ag8pz        3Ag8py        3Ag8px        3Ag9pz        3Ag9py        3Ag9px        3Ag1d-2       3Ag1d-1       3Ag1d0        3Ag1d+1   
   40    3Ag1d+2       3Ag2d-2       3Ag2d-1       3Ag2d0        3Ag2d+1       3Ag2d+2       3Ag3d-2       3Ag3d-1       3Ag3d0        3Ag3d+1   
   41    3Ag3d+2       3Ag4d-2       3Ag4d-1       3Ag4d0        3Ag4d+1       3Ag4d+2       3Ag5d-2       3Ag5d-1       3Ag5d0        3Ag5d+1   
   42    3Ag5d+2       3Ag6d-2       3Ag6d-1       3Ag6d0        3Ag6d+1       3Ag6d+2       3Ag7d-2       3Ag7d-1       3Ag7d0        3Ag7d+1   
   43    3Ag7d+2       3Ag8d-2       3Ag8d-1       3Ag8d0        3Ag8d+1       3Ag8d+2       3Ag1f-3       3Ag1f-2       3Ag1f-1       3Ag1f0    
   44    3Ag1f+1       3Ag1f+2       3Ag1f+3       3Ag2f-3       3Ag2f-2       3Ag2f-1       3Ag2f0        3Ag2f+1       3Ag2f+2       3Ag2f+3   
   45    3Ag3f-3       3Ag3f-2       3Ag3f-1       3Ag3f0        3Ag3f+1       3Ag3f+2       3Ag3f+3       3Ag4f-3       3Ag4f-2       3Ag4f-1   
   46    3Ag4f0        3Ag4f+1       3Ag4f+2       3Ag4f+3       3Ag5f-3       3Ag5f-2       3Ag5f-1       3Ag5f0        3Ag5f+1       3Ag5f+2   
   47    3Ag5f+3       3Ag1g-4       3Ag1g-3       3Ag1g-2       3Ag1g-1       3Ag1g0        3Ag1g+1       3Ag1g+2       3Ag1g+3       3Ag1g+4   
   48    3Ag2g-4       3Ag2g-3       3Ag2g-2       3Ag2g-1       3Ag2g0        3Ag2g+1       3Ag2g+2       3Ag2g+3       3Ag2g+4       3Ag3g-4   
   49    3Ag3g-3       3Ag3g-2       3Ag3g-1       3Ag3g0        3Ag3g+1       3Ag3g+2       3Ag3g+3       3Ag3g+4       3Ag4g-4       3Ag4g-3   
   50    3Ag4g-2       3Ag4g-1       3Ag4g0        3Ag4g+1       3Ag4g+2       3Ag4g+3       3Ag4g+4       3Ag1h-5       3Ag1h-4       3Ag1h-3   
   51    3Ag1h-2       3Ag1h-1       3Ag1h0        3Ag1h+1       3Ag1h+2       3Ag1h+3       3Ag1h+4       3Ag1h+5       3Ag2h-5       3Ag2h-4   
   52    3Ag2h-3       3Ag2h-2       3Ag2h-1       3Ag2h0        3Ag2h+1       3Ag2h+2       3Ag2h+3       3Ag2h+4       3Ag2h+5       3Ag3h-5   
   53    3Ag3h-4       3Ag3h-3       3Ag3h-2       3Ag3h-1       3Ag3h0        3Ag3h+1       3Ag3h+2       3Ag3h+3       3Ag3h+4       3Ag3h+5   
   54    4Ag1s         4Ag2s         4Ag3s         4Ag4s         4Ag5s         4Ag6s         4Ag7s         4Ag8s         4Ag9s         4Ag1pz    
   55    4Ag1py        4Ag1px        4Ag2pz        4Ag2py        4Ag2px        4Ag3pz        4Ag3py        4Ag3px        4Ag4pz        4Ag4py    
   56    4Ag4px        4Ag5pz        4Ag5py        4Ag5px        4Ag6pz        4Ag6py        4Ag6px        4Ag7pz        4Ag7py        4Ag7px    
   57    4Ag8pz        4Ag8py        4Ag8px        4Ag9pz        4Ag9py        4Ag9px        4Ag1d-2       4Ag1d-1       4Ag1d0        4Ag1d+1   
   58    4Ag1d+2       4Ag2d-2       4Ag2d-1       4Ag2d0        4Ag2d+1       4Ag2d+2       4Ag3d-2       4Ag3d-1       4Ag3d0        4Ag3d+1   
   59    4Ag3d+2       4Ag4d-2       4Ag4d-1       4Ag4d0        4Ag4d+1       4Ag4d+2       4Ag5d-2       4Ag5d-1       4Ag5d0        4Ag5d+1   
   60    4Ag5d+2       4Ag6d-2       4Ag6d-1       4Ag6d0        4Ag6d+1       4Ag6d+2       4Ag7d-2       4Ag7d-1       4Ag7d0        4Ag7d+1   
   61    4Ag7d+2       4Ag8d-2       4Ag8d-1       4Ag8d0        4Ag8d+1       4Ag8d+2       4Ag1f-3       4Ag1f-2       4Ag1f-1       4Ag1f0    
   62    4Ag1f+1       4Ag1f+2       4Ag1f+3       4Ag2f-3       4Ag2f-2       4Ag2f-1       4Ag2f0        4Ag2f+1       4Ag2f+2       4Ag2f+3   
   63    4Ag3f-3       4Ag3f-2       4Ag3f-1       4Ag3f0        4Ag3f+1       4Ag3f+2       4Ag3f+3       4Ag4f-3       4Ag4f-2       4Ag4f-1   
   64    4Ag4f0        4Ag4f+1       4Ag4f+2       4Ag4f+3       4Ag5f-3       4Ag5f-2       4Ag5f-1       4Ag5f0        4Ag5f+1       4Ag5f+2   
   65    4Ag5f+3       4Ag1g-4       4Ag1g-3       4Ag1g-2       4Ag1g-1       4Ag1g0        4Ag1g+1       4Ag1g+2       4Ag1g+3       4Ag1g+4   
   66    4Ag2g-4       4Ag2g-3       4Ag2g-2       4Ag2g-1       4Ag2g0        4Ag2g+1       4Ag2g+2       4Ag2g+3       4Ag2g+4       4Ag3g-4   
   67    4Ag3g-3       4Ag3g-2       4Ag3g-1       4Ag3g0        4Ag3g+1       4Ag3g+2       4Ag3g+3       4Ag3g+4       4Ag4g-4       4Ag4g-3   
   68    4Ag4g-2       4Ag4g-1       4Ag4g0        4Ag4g+1       4Ag4g+2       4Ag4g+3       4Ag4g+4       4Ag1h-5       4Ag1h-4       4Ag1h-3   
   69    4Ag1h-2       4Ag1h-1       4Ag1h0        4Ag1h+1       4Ag1h+2       4Ag1h+3       4Ag1h+4       4Ag1h+5       4Ag2h-5       4Ag2h-4   
   70    4Ag2h-3       4Ag2h-2       4Ag2h-1       4Ag2h0        4Ag2h+1       4Ag2h+2       4Ag2h+3       4Ag2h+4       4Ag2h+5       4Ag3h-5   
   71    4Ag3h-4       4Ag3h-3       4Ag3h-2       4Ag3h-1       4Ag3h0        4Ag3h+1       4Ag3h+2       4Ag3h+3       4Ag3h+4       4Ag3h+5   
 
 Maximum number of basis functions per shell:   40
 Total number of basis functions:    720
 
 
 Fitting basis set for the SCF calculation:
 
   1  Ag def2-qzvpp-ri-jk [ 13s 12p 10d 9f 6g 3h 2i | 11s 10p 9d 8f 6g 3h 2i ]
   2  Ag def2-qzvpp-ri-jk [ 13s 12p 10d 9f 6g 3h 2i | 11s 10p 9d 8f 6g 3h 2i ]
   3  Ag def2-qzvpp-ri-jk [ 13s 12p 10d 9f 6g 3h 2i | 11s 10p 9d 8f 6g 3h 2i ]
   4  Ag def2-qzvpp-ri-jk [ 13s 12p 10d 9f 6g 3h 2i | 11s 10p 9d 8f 6g 3h 2i ]
 
 Basis functions:
            1             2             3             4             5             6             7             8             9            10
    0    1Ag1s         1Ag2s         1Ag3s         1Ag4s         1Ag5s         1Ag6s         1Ag7s         1Ag8s         1Ag9s         1Ag10s    
    1    1Ag11s        1Ag1pz        1Ag1py        1Ag1px        1Ag2pz        1Ag2py        1Ag2px        1Ag3pz        1Ag3py        1Ag3px    
    2    1Ag4pz        1Ag4py        1Ag4px        1Ag5pz        1Ag5py        1Ag5px        1Ag6pz        1Ag6py        1Ag6px        1Ag7pz    
    3    1Ag7py        1Ag7px        1Ag8pz        1Ag8py        1Ag8px        1Ag9pz        1Ag9py        1Ag9px        1Ag10pz       1Ag10py   
    4    1Ag10px       1Ag1d-2       1Ag1d-1       1Ag1d0        1Ag1d+1       1Ag1d+2       1Ag2d-2       1Ag2d-1       1Ag2d0        1Ag2d+1   
    5    1Ag2d+2       1Ag3d-2       1Ag3d-1       1Ag3d0        1Ag3d+1       1Ag3d+2       1Ag4d-2       1Ag4d-1       1Ag4d0        1Ag4d+1   
    6    1Ag4d+2       1Ag5d-2       1Ag5d-1       1Ag5d0        1Ag5d+1       1Ag5d+2       1Ag6d-2       1Ag6d-1       1Ag6d0        1Ag6d+1   
    7    1Ag6d+2       1Ag7d-2       1Ag7d-1       1Ag7d0        1Ag7d+1       1Ag7d+2       1Ag8d-2       1Ag8d-1       1Ag8d0        1Ag8d+1   
    8    1Ag8d+2       1Ag9d-2       1Ag9d-1       1Ag9d0        1Ag9d+1       1Ag9d+2       1Ag1f-3       1Ag1f-2       1Ag1f-1       1Ag1f0    
    9    1Ag1f+1       1Ag1f+2       1Ag1f+3       1Ag2f-3       1Ag2f-2       1Ag2f-1       1Ag2f0        1Ag2f+1       1Ag2f+2       1Ag2f+3   
   10    1Ag3f-3       1Ag3f-2       1Ag3f-1       1Ag3f0        1Ag3f+1       1Ag3f+2       1Ag3f+3       1Ag4f-3       1Ag4f-2       1Ag4f-1   
   11    1Ag4f0        1Ag4f+1       1Ag4f+2       1Ag4f+3       1Ag5f-3       1Ag5f-2       1Ag5f-1       1Ag5f0        1Ag5f+1       1Ag5f+2   
[...]
  263   A          2.240818       2.240818
  264   A          2.275828       2.275828
  265   A          2.275829       2.275829
  266   A          2.308029       2.308029
  267   A          2.311448       2.311448
  268   A          2.368429       2.368429
  269   A          2.368430       2.368430
  270   A          2.385436       2.385436
  271   A          2.385436       2.385436
  272   A          2.391575       2.391575
  273   A          2.391576       2.391576
  274   A          2.394210       2.394210
  275   A          2.402638       2.402638
  276   A          2.588495       2.588495
  277   A          2.626806       2.626806
  278   A          2.626806       2.626806
  279   A          2.659165       2.659165
  280   A          2.659165       2.659165
  281   A          2.783266       2.783266
  282   A          2.783266       2.783266
  283   A          2.785431       2.785431
  284   A          2.943409       2.943409
  285   A          3.114655       3.114655
  286   A          3.152439       3.152439
  287   A          3.152439       3.152439
  288   A          3.173189       3.173189
  289   A          3.173189       3.173189
  290   A          3.182822       3.182822
  291   A          3.182822       3.182822
  292   A          3.187086       3.187086
  293   A          3.187086       3.187086
  294   A          3.202843       3.202843
  295   A          3.202843       3.202843
  296   A          3.207140       3.207140
  297   A          3.207140       3.207140
  298   A          3.220836       3.220836
  299   A          3.220836       3.220836
  300   A          3.254365       3.254365
  301   A          3.254365       3.254365
  302   A          3.260503       3.260503
  303   A          3.287307       3.287307
  304   A          3.309953       3.309953
  305   A          3.309953       3.309953
  306   A          3.411914       3.411914
  307   A          3.411914       3.411914
  308   A          3.433464       3.433464
  309   A          3.433464       3.433464
  310   A          3.437908       3.437908
  311   A          3.437908       3.437908
  312   A          3.498965       3.498965
  313   A          3.529563       3.529563
  314   A          3.968151       3.968151
  315   A          4.017413       4.017413
  316   A          4.017413       4.017413
  317   A          4.084310       4.084310
  318   A          4.084310       4.084310
  319   A          4.086453       4.086453
  320   A          4.086454       4.086454
  321   A          4.088653       4.088653
  322   A          4.116734       4.116734
  323   A          4.116734       4.116734
  324   A          4.120170       4.120170
  325   A          4.120170       4.120170
  326   A          4.139376       4.139376
  327   A          4.150773       4.150773
  328   A          4.150773       4.150773
  329   A          4.177044       4.177044
  330   A          4.177044       4.177044
  331   A          4.186058       4.186058
  332   A          4.186059       4.186059
  333   A          4.194981       4.194981
  334   A          4.194983       4.194983
  335   A          4.195439       4.195439
  336   A          4.195441       4.195441
  337   A          4.214136       4.214136
  338   A          4.214136       4.214136
  339   A          4.219413       4.219413
  340   A          4.219413       4.219413
  341   A          4.219477       4.219477
  342   A          4.219477       4.219477
  343   A          4.219984       4.219984
  344   A          4.219984       4.219984
  345   A          4.219986       4.219986
  346   A          4.219986       4.219986
  347   A          4.220106       4.220106
  348   A          4.220106       4.220106
  349   A          4.220642       4.220642
  350   A          4.220644       4.220644
  351   A          4.220998       4.220998
  352   A          4.231064       4.231064
  353   A          4.231064       4.231064
  354   A          4.231629       4.231629
  355   A          4.231629       4.231629
  356   A          4.237642       4.237642
  357   A          4.237645       4.237645
  358   A          4.239387       4.239387
  359   A          4.239389       4.239389
  360   A          4.242553       4.242553
  361   A          4.242555       4.242555
  362   A          4.244279       4.244279
  363   A          4.244280       4.244280
  364   A          4.248073       4.248073
  365   A          4.248074       4.248074
  366   A          4.313102       4.313102
  367   A          4.313102       4.313102
  368   A          4.324115       4.324115
  369   A          4.324115       4.324115
  370   A          4.354198       4.354198
  371   A          4.354198       4.354198
  372   A          4.354681       4.354681
  373   A          4.354681       4.354681
  374   A          4.398732       4.398732
  375   A          4.431473       4.431473
  376   A          4.467953       4.467953
  377   A          4.467953       4.467953
  378   A          4.561059       4.561059
  379   A          4.561059       4.561059
  380   A          4.591429       4.591429
  381   A          4.591430       4.591430
  382   A          4.671039       4.671039
  383   A          4.671040       4.671040
  384   A          4.680847       4.680847
  385   A          4.680848       4.680848
  386   A          4.728108       4.728108
  387   A          4.911440       4.911440
  388   A          4.940713       4.940713
  389   A          4.940713       4.940713
  390   A          4.985136       4.985136
  391   A          4.985136       4.985136
  392   A          5.104582       5.104582
  393   A          5.104582       5.104582
  394   A          5.112574       5.112574
  395   A          5.112574       5.112574
  396   A          5.167913       5.167913
  397   A          5.171344       5.171344
  398   A          5.171344       5.171344
  399   A          5.244240       5.244240
  400   A          5.267196       5.267196
  401   A          5.267196       5.267196
  402   A          5.411350       5.411350
  403   A          5.411350       5.411350
  404   A          5.553464       5.553464
  405   A          5.585438       5.585438
  406   A          5.774472       5.774472
  407   A          5.935826       5.935826
  408   A          5.935828       5.935828
  409   A          5.959045       5.959045
  410   A          5.959047       5.959047
  411   A          5.996301       5.996301
  412   A          5.996302       5.996302
  413   A          6.054494       6.054494
  414   A          6.054494       6.054494
  415   A          6.063426       6.063426
  416   A          6.063427       6.063427
  417   A          6.186205       6.186205
  418   A          6.229989       6.229989
  419   A          6.229990       6.229990
  420   A          6.316115       6.316115
  421   A          6.316115       6.316115
  422   A          6.371114       6.371114
  423   A          6.371114       6.371114
  424   A          6.380220       6.380220
  425   A          6.427467       6.427467
  426   A          6.634812       6.634812
  427   A          6.678911       6.678911
  428   A          6.895192       6.895192
  429   A          7.434397       7.434397
  430   A          7.810562       7.810562
  431   A          7.832639       7.832639
  432   A          7.832645       7.832645
  433   A          7.833794       7.833794
  434   A          7.833794       7.833794
  435   A          7.837521       7.837521
  436   A          7.837521       7.837521
  437   A          7.851379       7.851379
  438   A          7.851379       7.851379
  439   A          7.854994       7.854994
  440   A          7.855000       7.855000
  441   A          7.865773       7.865773
  442   A          7.865773       7.865773
  443   A          7.866616       7.866616
  444   A          7.866616       7.866616
  445   A          7.898468       7.898468
  446   A          7.898475       7.898475
  447   A          7.904723       7.904723
  448   A          7.944875       7.944875
  449   A          7.948172       7.948172
  450   A          7.948179       7.948179
  451   A          8.003603       8.003603
  452   A          8.003603       8.003603
  453   A          8.060629       8.060629
  454   A          8.107030       8.107030
  455   A          8.107030       8.107030
  456   A          8.134499       8.134499
  457   A          8.134499       8.134499
  458   A          8.806180       8.806180
  459   A          9.036597       9.036597
  460   A          9.143003       9.143003
  461   A          9.143003       9.143003
  462   A          9.167775       9.167775
  463   A          9.167775       9.167775
  464   A          9.175986       9.175986
  465   A          9.175991       9.175991
  466   A          9.178462       9.178462
  467   A          9.178464       9.178464
  468   A          9.189471       9.189471
  469   A          9.189478       9.189478
  470   A          9.195086       9.195086
  471   A          9.195089       9.195089
  472   A          9.197346       9.197346
  473   A          9.197355       9.197355
  474   A          9.215162       9.215162
  475   A          9.215162       9.215162
  476   A          9.230218       9.230218
  477   A          9.230219       9.230219
  478   A          9.257124       9.257124
  479   A          9.257124       9.257124
  480   A          9.289948       9.289948
  481   A          9.289966       9.289966
  482   A          9.289968       9.289968
  483   A          9.378694       9.378694
  484   A          9.378694       9.378694
  485   A          9.397254       9.397254
  486   A          9.397254       9.397254
  487   A          9.400138       9.400138
  488   A          9.400143       9.400143
  489   A          9.450566       9.450566
  490   A          9.503022       9.503022
  491   A          9.503022       9.503022
  492   A          9.566074       9.566074
  493   A          9.633699       9.633699
  494   A          9.633699       9.633699
  495   A          9.941798       9.941798
  496   A          9.987017       9.987017
  497   A          9.987020       9.987020
  498   A         10.029323      10.029323
  499   A         10.029323      10.029323
  500   A         10.053826      10.053826
  501   A         10.053826      10.053826
  502   A         10.077609      10.077609
  503   A         10.077609      10.077609
  504   A         10.089480      10.089480
  505   A         10.089530      10.089530
  506   A         10.090877      10.090877
  507   A         10.090926      10.090926
  508   A         10.094365      10.094365
  509   A         10.094365      10.094365
  510   A         10.094366      10.094366
  511   A         10.094366      10.094366
  512   A         10.096486      10.096486
  513   A         10.096491      10.096491
  514   A         10.101937      10.101937
  515   A         10.101993      10.101993
  516   A         10.103209      10.103209
  517   A         10.103209      10.103209
  518   A         10.103543      10.103543
  519   A         10.103543      10.103543
  520   A         10.106614      10.106614
  521   A         10.106672      10.106672
  522   A         10.131870      10.131870
  523   A         10.131870      10.131870
  524   A         10.150893      10.150893
  525   A         10.150893      10.150893
  526   A         10.227825      10.227825
  527   A         10.227825      10.227825
  528   A         10.270249      10.270249
  529   A         10.275198      10.275198
  530   A         10.275200      10.275200
  531   A         10.298535      10.298535
  532   A         10.319122      10.319122
  533   A         10.319125      10.319125
  534   A         10.547024      10.547024
  535   A         10.547024      10.547024
  536   A         10.635960      10.635960
  537   A         10.635960      10.635960
  538   A         10.652224      10.652224
  539   A         10.773734      10.773734
  540   A         10.929480      10.929480
  541   A         14.630171      14.630171
  542   A         14.630171      14.630171
  543   A         14.804913      14.804913
  544   A         14.804913      14.804913
  545   A         14.818668      14.818668
  546   A         14.818668      14.818668
  547   A         14.886808      14.886808
  548   A         14.886832      14.886832
  549   A         14.905349      14.905349
  550   A         14.905372      14.905372
  551   A         14.936287      14.936287
  552   A         14.936312      14.936312
  553   A         14.983884      14.983884
  554   A         14.983910      14.983910
  555   A         14.985904      14.985904
  556   A         14.996570      14.996570
  557   A         14.996571      14.996571
  558   A         15.028136      15.028136
  559   A         15.028137      15.028137
  560   A         15.184632      15.184632
  561   A         15.184632      15.184632
  562   A         15.215949      15.215949
  563   A         15.215950      15.215950
  564   A         15.227117      15.227117
  565   A         15.327726      15.327726
  566   A         15.327726      15.327726
  567   A         15.386043      15.386043
  568   A         15.387942      15.387942
  569   A         15.466896      15.466896
  570   A         16.003909      16.003909
  571   A         16.179263      16.179263
  572   A         16.858912      16.858912
  573   A         18.796625      18.796625
  574   A         18.796625      18.796625
  575   A         18.816355      18.816355
  576   A         18.816355      18.816355
  577   A         18.821665      18.821665
  578   A         18.821690      18.821690
  579   A         18.823399      18.823399
  580   A         18.823424      18.823424
  581   A         18.831913      18.831913
  582   A         18.831938      18.831938
  583   A         18.832680      18.832680
  584   A         18.832727      18.832727
  585   A         18.837870      18.837870
  586   A         18.837895      18.837895
  587   A         18.853492      18.853492
  588   A         18.853492      18.853492
  589   A         18.864521      18.864521
  590   A         18.864562      18.864562
  591   A         18.884635      18.884635
  592   A         18.884635      18.884635
  593   A         18.924941      18.924941
  594   A         18.924988      18.924988
  595   A         18.987760      18.987760
  596   A         18.987760      18.987760
  597   A         18.988520      18.988520
  598   A         19.005707      19.005707
  599   A         19.005762      19.005762
  600   A         19.012681      19.012681
  601   A         19.012681      19.012681
  602   A         19.013544      19.013544
  603   A         19.053148      19.053148
  604   A         19.053148      19.053148
  605   A         19.117427      19.117427
  606   A         19.117427      19.117427
  607   A         19.203973      19.203973
  608   A         19.205710      19.205710
  609   A         19.205710      19.205710
  610   A         19.207812      19.207812
  611   A         19.207828      19.207828
  612   A         19.208621      19.208621
  613   A         19.208621      19.208621
  614   A         19.219668      19.219668
  615   A         19.219668      19.219668
  616   A         19.224913      19.224913
  617   A         19.224927      19.224927
  618   A         19.231138      19.231138
  619   A         19.231138      19.231138
  620   A         19.235709      19.235709
  621   A         19.238110      19.238110
  622   A         19.238110      19.238110
  623   A         19.255022      19.255022
  624   A         19.255037      19.255037
  625   A         19.293737      19.293737
  626   A         19.293754      19.293754
  627   A         19.369753      19.369753
  628   A         19.408338      19.408338
  629   A         19.408338      19.408338
  630   A         19.434312      19.434312
  631   A         19.434312      19.434312
  632   A         19.446294      19.446294
  633   A         19.446294      19.446294
  634   A         19.476152      19.476152
  635   A         19.836415      19.836415
  636   A         19.902901      19.902901
  637   A         21.619334      21.619334
  638   A         21.619414      21.619414
  639   A         21.634788      21.634788
  640   A         21.634788      21.634788
  641   A         21.661347      21.661347
  642   A         21.661347      21.661347
  643   A         21.673518      21.673518
  644   A         21.673518      21.673518
  645   A         21.674946      21.674946
  646   A         21.675015      21.675015
  647   A         21.681539      21.681539
  648   A         21.681547      21.681547
  649   A         21.682101      21.682101
  650   A         21.682107      21.682107
  651   A         21.683614      21.683614
  652   A         21.683614      21.683614
  653   A         21.683614      21.683614
  654   A         21.683614      21.683614
  655   A         21.689270      21.689270
  656   A         21.689292      21.689292
  657   A         21.690032      21.690032
  658   A         21.690032      21.690032
  659   A         21.690211      21.690211
  660   A         21.690211      21.690211
  661   A         21.692045      21.692045
  662   A         21.692068      21.692068
  663   A         21.705125      21.705125
  664   A         21.705125      21.705125
  665   A         21.717282      21.717282
  666   A         21.717282      21.717282
  667   A         21.738351      21.738351
  668   A         21.738351      21.738351
  669   A         21.772980      21.772980
  670   A         21.782137      21.782137
  671   A         21.782212      21.782212
  672   A         21.815802      21.815802
  673   A         21.815890      21.815890
  674   A         21.818657      21.818657
  675   A         21.941432      21.941432
  676   A         21.941432      21.941432
  677   A         21.968155      21.968155
  678   A         22.012212      22.012212
  679   A         22.012212      22.012212
  680   A         22.111585      22.111585
  681   A         35.076799      35.076799
  682   A         35.076816      35.076816
  683   A         35.082999      35.082999
  684   A         35.083013      35.083013
  685   A         35.097339      35.097339
  686   A         35.097356      35.097356
  687   A         35.119957      35.119957
  688   A         35.119957      35.119957
  689   A         35.120736      35.120736
  690   A         35.120756      35.120756
  691   A         35.183857      35.183857
  692   A         35.183857      35.183857
  693   A         35.248849      35.248849
  694   A         35.248849      35.248849
  695   A         35.255875      35.255875
  696   A         35.255875      35.255875
  697   A         35.314152      35.314152
  698   A         35.314313      35.314313
  699   A         35.410049      35.410049
  700   A         35.535594      35.535594
  701   A         43.004228      43.004228
  702   A         44.746245      44.746245
  703   A         47.969405      47.969405
  704   A         51.500249      51.500249
  705   A         53.259234      53.259234
  706   A         53.259234      53.259234
  707   A         53.311774      53.311774
  708   A         53.311774      53.311774
  709   A         53.347766      53.347766
  710   A         53.347766      53.347766
  711   A         53.371257      53.371257
  712   A         53.371257      53.371257
  713   A         53.410429      53.410429
  714   A         53.517706      53.517706
  715   A         53.670421      53.670421
  716   A         53.915520      53.915520
  717   A         63.724501      63.724501
  718   A         64.371621      64.371621
  719   A         67.237548      67.237548
  720   A         76.789423      76.789423
 
 RETURNING FROM SCF ALGORITHM
 ======================================================================
 
 ************************ 2023-10-22 09:24:04 *************************
                      Normal termination of mrcc.
 **********************************************************************
