 vasp.6.3.0 20Jan22 (build Apr  1 2022 16:44:48) complex                         
 executed on        HPECrayEX_GCC date 2023.01.06  22:06:01
 running  384 mpi-ranks, with    1 threads/rank
 distrk:  each k-point on  192 cores,    2 groups
 distr:  one band on NCORE=   4 cores,   48 groups


--------------------------------------------------------------------------------------------------------


 INCAR:
   SYSTEM = MgO-rocksalt
   ISMEAR = 0
   SIGMA = 0.05
   EDIFF = 1E-6
   ALGO = ALL
   ISTART = 0
   IBRION = -1
   NSW = 0
   ISYM = 2
   LHFCALC = .TRUE.
   GGA = PE
   IVDW = 212
   LVDWEXPANSION = .TRUE.
   VDW_SR = 0.85
   ENCUT = 520
   PREC = Accurate
   LASPH = .TRUE.
   LREAL = Auto
   ISPIN = 1
   NELM = 200
   NELMIN = 8
   NCORE = 4
   KPAR = 2
   LWAVE = .FALSE.
   LCHARG = .FALSE.

 POTCAR:    PAW_PBE Ag 02Apr2005                  
 -----------------------------------------------------------------------------
|                                                                             |
|           W    W    AA    RRRRR   N    N  II  N    N   GGGG   !!!           |
|           W    W   A  A   R    R  NN   N  II  NN   N  G    G  !!!           |
|           W    W  A    A  R    R  N N  N  II  N N  N  G       !!!           |
|           W WW W  AAAAAA  RRRRR   N  N N  II  N  N N  G  GGG   !            |
|           WW  WW  A    A  R   R   N   NN  II  N   NN  G    G                |
|           W    W  A    A  R    R  N    N  II  N    N   GGGG   !!!           |
|                                                                             |
|     You have selected ISYM=2 for a HF type calculation. This will           |
|     symmetrize the charge density but not the exchange potential. I         |
|     suggest to use ISYM=3 instead. This uses symmetry to obtain the         |
|     orbitals at all k-points in the Brillouin zone, but does not apply      |
|     symmetry to the Hartree potential directly. The resultant charge        |
|     might have lower symmetry than the crystal but, at least, Hartree       |
|     and exchange are fully compatible.                                      |
|                                                                             |
 -----------------------------------------------------------------------------

 POTCAR:    PAW_PBE Ag 02Apr2005                  
   SHA256 =  6550cfa3543261e132c169e1b98a529204624d72be14e2da2e0242bcb74a174d Ag/POTCAR             
   COPYR  = (c) Copyright 02Apr2005 Georg Kresse                                                    
   COPYR  = This file is part of the software VASP. Any use, copying, and all other rights are regul
   COPYR  = If you do not have a valid VASP license, you may not use, copy or distribute this file. 
   VRHFIN =Ag : s1 d10                                                                              
   LEXCH  = PE                                                                                      
   EATOM  =  1037.2675 eV,   76.2370 Ry                                                             
                                                                                                    
   TITEL  = PAW_PBE Ag 02Apr2005                                                                    
   LULTRA =        F    use ultrasoft PP ?                                                          
   IUNSCR =        1    unscreen: 0-lin 1-nonlin 2-no                                               
   RPACOR =    2.000    partial core radius                                                         
   POMASS =  107.868; ZVAL   =   11.000    mass and valenz                                          
   RCORE  =    2.500    outmost cutoff radius                                                       
   RWIGS  =    2.840; RWIGS  =    1.503    wigner-seitz radius (au A)                               
   ENMAX  =  249.844; ENMIN  =  187.383 eV                                                          
   ICORE  =        3    local potential                                                             
   LCOR   =        T    correct aug charges                                                         
   LPAW   =        T    paw PP                                                                      
   EAUG   =  412.496                                                                                
   DEXC   =    0.000                                                                                
   RMAX   =    2.560    core radius for proj-oper                                                   
   RAUG   =    1.300    factor for augmentation sphere                                              
   RDEP   =    2.576    radius for radial grids                                                     
   RDEPT  =    2.072    core radius for aug-charge                                                  
                                                                                                    
   Atomic configuration                                                                             
   12 entries                                                                                       
     n  l   j            E        occ.                                                              
     1  0  0.50    -25324.9161   2.0000                                                             
     2  0  0.50     -3728.5341   2.0000                                                             
     2  1  1.50     -3344.0404   6.0000                                                             
     3  0  0.50      -683.5581   2.0000                                                             
     3  1  1.50      -557.3225   6.0000                                                             
     3  2  2.50      -358.3853  10.0000                                                             
     4  0  0.50       -95.0341   2.0000                                                             
     4  1  1.50       -58.5511   6.0000                                                             
     4  2  2.50        -7.4440  10.0000                                                             
     5  0  0.50        -4.4045   1.0000                                                             
     5  1  0.50        -1.3606   0.0000                                                             
     4  3  2.50        -1.3606   0.0000                                                             
   Description                                                                                      
     l       E           TYP  RCUT    TYP  RCUT                                                     
     2     -7.4439781     23  2.400                                                                 
     2     -8.8045607     23  2.400                                                                 
     0     -4.4044681     23  2.400                                                                 
     0      1.9520038     23  2.400                                                                 
     1     -1.3605826     23  2.500                                                                 
     1     27.2116520     23  2.500                                                                 
     3     -4.0817478     23  2.400                                                                 
  local pseudopotential read in
  partial core-charges read in
  partial kinetic energy density read in
  atomic valenz-charges read in
  non local Contribution for L=           2  read in
    real space projection operators read in
  non local Contribution for L=           2  read in
    real space projection operators read in
  non local Contribution for L=           0  read in
    real space projection operators read in
  non local Contribution for L=           0  read in
    real space projection operators read in
  non local Contribution for L=           1  read in
    real space projection operators read in
  non local Contribution for L=           1  read in
    real space projection operators read in
    PAW grid and wavefunctions read in

   number of l-projection  operators is LMAX  =           6
   number of lm-projection operators is LMMAX =          18

 -----------------------------------------------------------------------------
|                                                                             |
|               ----> ADVICE to this user running VASP <----                  |
|                                                                             |
|     You have a (more or less) 'small supercell' and for smaller cells       |
|     it is recommended to use the reciprocal-space projection scheme!        |
|     The real-space optimization is not efficient for small cells and it     |
|     is also less accurate ...                                               |
|     Therefore, set LREAL=.FALSE. in the INCAR file.                         |
|                                                                             |
 -----------------------------------------------------------------------------

 Optimization of the real space projectors (new method)

 maximal supplied QI-value         = 15.12
 optimisation between [QCUT,QGAM] = [ 11.64, 23.28] = [ 37.95,151.78] Ry 
 Optimized for a Real-space Cutoff    1.45 Angstroem

   l    n(q)    QCUT    max X(q) W(low)/X(q) W(high)/X(q)  e(spline) 
   2      9    11.641    53.897    0.22E-03    0.42E-04    0.28E-06
   2      9    11.641    52.416    0.23E-03    0.44E-04    0.29E-06
   0     10    11.641   122.045    0.51E-04    0.25E-04    0.16E-06
   0     10    11.641    73.629    0.49E-04    0.24E-04    0.16E-06
   1     10    11.641    15.255    0.99E-04    0.55E-04    0.11E-06
   1     10    11.641     9.562    0.81E-04    0.47E-04    0.95E-07
  PAW_PBE Ag 02Apr2005                  :
 energy of atom  1       EATOM=-1037.2675
 kinetic energy error for atom=    0.0047 (will be added to EATOM!!)


 POSCAR: Ag
  positions in direct lattice
  velocities in cartesian coordinates
 exchange correlation table for  LEXCH =        8
   RHO(1)=    0.500       N(1)  =     2000
   RHO(2)=  100.500       N(2)  =     4000



--------------------------------------------------------------------------------------------------------


 ion  position               nearest neighbor table
   1  0.496  0.476  0.525-   5 2.67   3 2.67   2 2.67   4 2.67   6 2.67
   2  0.425  0.486  0.412-   1 2.67   6 2.79   3 2.79
   3  0.407  0.576  0.517-   1 2.67   4 2.79   2 2.79
   4  0.530  0.592  0.581-   1 2.67   3 2.79   5 2.79
   5  0.624  0.513  0.514-   1 2.67   6 2.79   4 2.79
   6  0.558  0.446  0.411-   1 2.67   2 2.79   5 2.79

  LATTYP: Found a simple cubic cell.
 ALAT       =    20.0000000000
  
  Lattice vectors:
  
 A1 = (  20.0000000000,   0.0000000000,   0.0000000000)
 A2 = (   0.0000000000,  20.0000000000,   0.0000000000)
 A3 = (   0.0000000000,   0.0000000000,  20.0000000000)


Analysis of symmetry for initial positions (statically):
=====================================================================
 Subroutine PRICEL returns:
 Original cell was already a primitive cell.
 

 Routine SETGRP: Setting up the symmetry group for a 
 simple cubic supercell.


 Subroutine GETGRP returns: Found  1 space group operations
 (whereof  1 operations were pure point group operations)
 out of a pool of 48 trial point group operations.


The static configuration has the point symmetry C_1 .


Analysis of symmetry for dynamics (positions and initial velocities):
=====================================================================
 Subroutine PRICEL returns:
 Original cell was already a primitive cell.
 

 Routine SETGRP: Setting up the symmetry group for a 
 simple cubic supercell.


 Subroutine GETGRP returns: Found  1 space group operations
 (whereof  1 operations were pure point group operations)
 out of a pool of 48 trial point group operations.


The dynamic configuration has the point symmetry C_1 .


 Subroutine INISYM returns: Found  1 space group operations
 (whereof  1 operations are pure point group operations),
 and found     1 'primitive' translations


----------------------------------------------------------------------------------------

                                     Primitive cell                                     

  volume of cell :    8000.0000

  direct lattice vectors                    reciprocal lattice vectors
    20.000000000  0.000000000  0.000000000     0.050000000  0.000000000  0.000000000
     0.000000000 20.000000000  0.000000000     0.000000000  0.050000000  0.000000000
     0.000000000  0.000000000 20.000000000     0.000000000  0.000000000  0.050000000

  length of vectors
    20.000000000 20.000000000 20.000000000     0.050000000  0.050000000  0.050000000

  position of ions in fractional coordinates (direct lattice)
     0.495572249  0.476231947  0.524886264
     0.424807662  0.485889513  0.412113389
     0.407470872  0.576199573  0.516938698
     0.530352702  0.592451293  0.580655328
     0.623502187  0.512664826  0.514210695
     0.558194702  0.445631609  0.410951430

  ion indices of the primitive-cell ions
   primitive index   ion index
                 1           1
                 2           2
                 3           3
                 4           4
                 5           5
                 6           6

----------------------------------------------------------------------------------------



 KPOINTS: KPOINTS created by Atomic Simulation Env

Automatic generation of k-mesh.
 Grid dimensions read from file:
 generate k-points for:    1    1    1

 Generating k-lattice:

  Cartesian coordinates                     Fractional coordinates (reciprocal lattice)
     0.050000000  0.000000000  0.000000000     1.000000000  0.000000000  0.000000000
     0.000000000  0.050000000  0.000000000     0.000000000  1.000000000  0.000000000
     0.000000000  0.000000000  0.050000000     0.000000000  0.000000000  1.000000000

  Length of vectors
     0.050000000  0.050000000  0.050000000

  Shift w.r.t. Gamma in fractional coordinates (k-lattice)
     0.000000000  0.000000000  0.000000000

 
 Subroutine IBZKPT returns following result:
 ===========================================
 
 Found      1 irreducible k-points:
 
 Following reciprocal coordinates:
            Coordinates               Weight
  0.000000  0.000000  0.000000      1.000000
 
 Following cartesian coordinates:
            Coordinates               Weight
  0.000000  0.000000  0.000000      1.000000
 
 
 Subroutine IBZKPT_HF returns following result:
 ==============================================
 
 Found      1 k-points in 1st BZ
 the following      1 k-points will be used (e.g. in the exchange kernel)
 Following reciprocal coordinates:   # in IRBZ
  0.000000  0.000000  0.000000    1.00000000   1 t-inv F


--------------------------------------------------------------------------------------------------------




 Dimension of arrays:
   k-points           NKPTS =      1   k-points in BZ     NKDIM =      1   number of bands    NBANDS=     48
   number of dos      NEDOS =    301   number of ions     NIONS =      6
   non local maximal  LDIM  =      6   non local SUM 2l+1 LMDIM =     18
   total plane-waves  NPLWV = ******
   max r-space proj   IRMAX =   5390   max aug-charges    IRDMAX=  20940
   dimension x,y,z NGX =   150 NGY =  150 NGZ =  150
   dimension x,y,z NGXF=   300 NGYF=  300 NGZF=  300
   support grid    NGXF=   300 NGYF=  300 NGZF=  300
   ions per type =               6
   NGX,Y,Z   is equivalent  to a cutoff of  12.47, 12.47, 12.47 a.u.
   NGXF,Y,Z  is equivalent  to a cutoff of  24.94, 24.94, 24.94 a.u.

 SYSTEM =  MgO-rocksalt                            
 POSCAR =  Ag                                      

 Startparameter for this run:
   NWRITE =      2    write-flag & timer
   PREC   = accura    normal or accurate (medium, high low for compatibility)
   ISTART =      0    job   : 0-new  1-cont  2-samecut
   ICHARG =      2    charge: 1-file 2-atom 10-const
   ISPIN  =      1    spin polarized calculation?
   LNONCOLLINEAR =      F non collinear calculations
   LSORBIT =      F    spin-orbit coupling
   INIWAV =      1    electr: 0-lowe 1-rand  2-diag
   LASPH  =      T    aspherical Exc in radial PAW
 Electronic Relaxation 1
   ENCUT  =  520.0 eV  38.22 Ry    6.18 a.u.  37.19 37.19 37.19*2*pi/ulx,y,z
   ENINI  =  520.0     initial cutoff
   ENAUG  =  412.5 eV  augmentation charge cutoff
   NELM   =    200;   NELMIN=  8; NELMDL= -5     # of ELM steps 
   EDIFF  = 0.1E-05   stopping-criterion for ELM
   LREAL  =      T    real-space projection
   NLSPLINE    = F    spline interpolate recip. space projectors
   LCOMPAT=      F    compatible to vasp.4.4
   GGA_COMPAT  = T    GGA compatible to vasp.4.4-vasp.4.6
   LMAXPAW     = -100 max onsite density
   LMAXMIX     =    2 max onsite mixed and CHGCAR
   VOSKOWN=      0    Vosko Wilk Nusair interpolation
   ROPT   =   -0.00025
 Ionic relaxation
   EDIFFG = 0.1E-04   stopping-criterion for IOM
   NSW    =      0    number of steps for IOM
   NBLOCK =      1;   KBLOCK =      1    inner block; outer block 
   IBRION =     -1    ionic relax: 0-MD 1-quasi-New 2-CG
   NFREE  =      0    steps in history (QN), initial steepest desc. (CG)
   ISIF   =      0    stress and relaxation
   IWAVPR =     10    prediction:  0-non 1-charg 2-wave 3-comb
   ISYM   =      2    0-nonsym 1-usesym 2-fastsym
   LCORR  =      T    Harris-Foulkes like correction to forces

   POTIM  = 0.5000    time-step for ionic-motion
   TEIN   =    0.0    initial temperature
   TEBEG  =    0.0;   TEEND  =   0.0 temperature during run
   SMASS  =  -3.00    Nose mass-parameter (am)
   estimated Nose-frequenzy (Omega)   =  0.10E-29 period in steps = 0.13E+47 mass=  -0.914E-26a.u.
   SCALEE = 1.0000    scale energy and forces
   NPACO  =    256;   APACO  = 10.0  distance and # of slots for P.C.
   PSTRESS=    0.0 pullay stress

  Mass of Ions in am
   POMASS = 107.87
  Ionic Valenz
   ZVAL   =  11.00
  Atomic Wigner-Seitz radii
   RWIGS  =  -1.00
  virtual crystal weights 
   VCA    =   1.00
   NELECT =      66.0000    total number of electrons
   NUPDOWN=      -1.0000    fix difference up-down

 DOS related values:
   EMIN   =  10.00;   EMAX   =-10.00  energy-range for DOS
   EFERMI =   0.00
   ISMEAR =     0;   SIGMA  =   0.05  broadening in eV -4-tet -1-fermi 0-gaus

 Electronic relaxation 2 (details)
   IALGO  =     58    algorithm
   LDIAG  =      T    sub-space diagonalisation (order eigenvalues)
   LSUBROT=      F    optimize rotation matrix (better conditioning)
   TURBO    =      0    0=normal 1=particle mesh
   IRESTART =      0    0=no restart 2=restart with 2 vectors
   NREBOOT  =      0    no. of reboots
   NMIN     =      0    reboot dimension
   EREF     =   0.00    reference energy to select bands
   IMIX   =      4    mixing-type and parameters
     AMIX     =   0.40;   BMIX     =  1.00
     AMIX_MAG =   1.60;   BMIX_MAG =  1.00
     AMIN     =   0.10
     WC   =   100.;   INIMIX=   1;  MIXPRE=   1;  MAXMIX= -45

 Intra band minimization:
   WEIMIN = 0.0000     energy-eigenvalue tresh-hold
   EBREAK =  0.52E-08  absolut break condition
   DEPER  =   0.30     relativ break condition  

   TIME   =   0.40     timestep for ELM

  volume/ion in A,a.u.               =    1333.33      8997.78
  Fermi-wavevector in a.u.,A,eV,Ry     =   0.330795  0.625113  1.488826  0.109426
  Thomas-Fermi vector in A             =   1.226404

 Write flags
   LWAVE        =      F    write WAVECAR
   LDOWNSAMPLE  =      F    k-point downsampling of WAVECAR
   LCHARG       =      F    write CHGCAR
   LVTOT        =      F    write LOCPOT, total local potential
   LVHAR        =      F    write LOCPOT, Hartree potential only
   LELF         =      F    write electronic localiz. function (ELF)
   LORBIT       =      0    0 simple, 1 ext, 2 COOP (PROOUT), +10 PAW based schemes


 Dipole corrections
   LMONO  =      F    monopole corrections only (constant potential shift)
   LDIPOL =      F    correct potential (dipole corrections)
   IDIPOL =      0    1-x, 2-y, 3-z, 4-all directions 
   EPSILON=  1.0000000 bulk dielectric constant

 Exchange correlation treatment:
   GGA     =    PE    GGA type
   LEXCH   =     8    internal setting for exchange type
   LIBXC   =     F    Libxc                    
   VOSKOWN =     0    Vosko Wilk Nusair interpolation
   EXXOEP  =     0    0=HF, 1=EXX-LHF (local Hartree Fock) 2=EXX OEP
   LHFCALC =     T    Hartree Fock is set to
   LSYMGRAD=     F    symmetrize gradient (conserves proper symmetry)
   PRECFOCK=normal    Normal, Fast or Accurate (Low or Medium for compatibility)
   LRHFCALC=     F    long range Hartree Fock
   LRSCOR  =     F    long range correlation only (use DFT for short range part)
   LTHOMAS =     F    Thomas Fermi screening in HF
   LMODELHF=     F    short range full HF, long range fraction AEXX
   LFOCKACE=     T    use Adeptively-Compressed-Exchange operator
   ENCUT4O =  -1.0   cutoff for four orbital integrals eV
   LMAXFOCK=     4    L truncation for augmentation on plane wave grid
   LMAXFOCKAE=  -1    L truncation for all-electron charge restoration on plane wave grid
   NMAXFOCKAE=   1    number of basis functions for all-electron charge restoration
   LFOCKAEDFT=     F  apply the AE augmentation even for DFT
   NKREDX  =     1    reduce k-point grid by
   NKREDY  =     1    reduce k-point grid by
   NKREDZ  =     1    reduce k-point grid by
   SHIFTRED=     F    shift reduced grid of Gamma
   HFKIDENT=     F    idential grid for each k-point
   ODDONLY =     F    use only odd q-grid points
   EVENONLY=     F    use only even q-grid points
   HFALPHA =   -1.0000 decay constant for conv. correction
   MCALPHA =    0.0000 extent of test-charge in conv. correction in multipole expansion
   AEXX    =    0.2500 exact exchange contribution
   HFSCREEN=    0.0000 screening length (either q_TF or 0.3 A-1)
   HFSCREENC=   0.0000 screening length for correlation (either q_TF or 0.3 A-1)
   HFRCUT  =    0.0000 spherical cutoff for potential kernel
   ALDAX   =    0.7500 LDA exchange part
   AGGAX   =    0.7500 GGA exchange part
   ALDAC   =    1.0000 LDA correlation
   AGGAC   =    1.0000 GGA correlation
   ENCUTFOCK=  -1.0 apply spherical cutoff to Coloumb kernel
   NBANDSGWLOW=     1    first orbital included in HF term
   NBLOCK_FOCK=    64    blocking factor in FOCK_ACC

 Linear response parameters
   LEPSILON=     F    determine dielectric tensor
   LRPA    =     F    only Hartree local field effects (RPA)
   LNABLA  =     F    use nabla operator in PAW spheres
   LVEL    =     F    velocity operator in full k-point grid
   CSHIFT  =0.1000    complex shift for real part using Kramers Kronig
   OMEGAMAX=  -1.0    maximum frequency
   DEG_THRESHOLD= 0.2000000E-02 threshold for treating states as degnerate
   RTIME   =   -0.100 relaxation time in fs
  (WPLASMAI=    0.000 imaginary part of plasma frequency in eV, 0.658/RTIME)
   DFIELD  = 0.0000000 0.0000000 0.0000000 field for delta impulse in time

  Optional k-point grid parameters
   LKPOINTS_OPT  =     F    use optional k-point grid
   KPOINTS_OPT_MODE=     1    mode for optional k-point grid

 Orbital magnetization related:
   ORBITALMAG=     F  switch on orbital magnetization
   LCHIMAG   =     F  perturbation theory with respect to B field
   DQ        =  0.001000  dq finite difference perturbation B field
   LLRAUG    =     F  two centre corrections for induced B field



--------------------------------------------------------------------------------------------------------


 Static calculation
 charge density and potential will be updated during run
 non-spin polarized calculation
 Conjugate gradient for all bands (Freysoldt, et al. PRB 79, 241103 (2009))
 preconditioned conjugated gradient                                        
 perform sub-space diagonalisation
    before iterative eigenvector-optimisation
 modified Broyden-mixing scheme, WC =      100.0
 initial mixing is a Kerker type mixing with AMIX =  0.4000 and BMIX =      1.0000
 Hartree-type preconditioning will be used
 using additional bands           15
 real space projection scheme for non local part
 use partial core corrections
 no Harris-corrections to forces 
 use gradient corrections 
 use of overlap-Matrix (Vanderbilt PP)
 Gauss-broadening in eV      SIGMA  =   0.05


--------------------------------------------------------------------------------------------------------


  energy-cutoff  :      520.00
  volume of cell :     8000.00
      direct lattice vectors                 reciprocal lattice vectors
    20.000000000  0.000000000  0.000000000     0.050000000  0.000000000  0.000000000
     0.000000000 20.000000000  0.000000000     0.000000000  0.050000000  0.000000000
     0.000000000  0.000000000 20.000000000     0.000000000  0.000000000  0.050000000

  length of vectors
    20.000000000 20.000000000 20.000000000     0.050000000  0.050000000  0.050000000



 k-points in units of 2pi/SCALE and weight: KPOINTS created by Atomic Simulation Env
   0.00000000  0.00000000  0.00000000       1.000

 k-points in reciprocal lattice and weights: KPOINTS created by Atomic Simulation Env
   0.00000000  0.00000000  0.00000000       1.000

 position of ions in fractional coordinates (direct lattice) 
   0.49557225  0.47623195  0.52488626
   0.42480766  0.48588951  0.41211339
   0.40747087  0.57619957  0.51693870
   0.53035270  0.59245129  0.58065533
   0.62350219  0.51266483  0.51421069
   0.55819470  0.44563161  0.41095143

 position of ions in cartesian coordinates  (Angst):
   9.91144497  9.52463895 10.49772527
   8.49615324  9.71779026  8.24226778
   8.14941744 11.52399145 10.33877395
  10.60705404 11.84902586 11.61310655
  12.47004374 10.25329652 10.28421389
  11.16389403  8.91263219  8.21902860



--------------------------------------------------------------------------------------------------------


 k-point   1 :   0.0000 0.0000 0.0000  plane waves:  215503

 maximum and minimum number of plane-waves per node :     53900    53857

 maximum number of plane-waves:    215503
 maximum index in each direction: 
   IXMAX=   37   IYMAX=   37   IZMAX=   37
   IXMIN=  -37   IYMIN=  -37   IZMIN=  -37


 real space projection operators:
  total allocation   :       4372.03 KBytes
  max/ min on nodes  :       1094.48       1090.27


 parallel 3D FFT for wavefunctions:
    minimum data exchange during FFTs selected (reduces bandwidth)
 parallel 3D FFT for charge:
    minimum data exchange during FFTs selected (reduces bandwidth)


 FFT grid for exact exchange (Hartree Fock) 
  NGX =112; NGY =112; NGZ =112


 Radii for the augmentation spheres in the non-local exchange
 for species   1 augmentation radius   1.406 (default was   1.125)
       energy cutoff for augmentation   2080.0

 real space projection operators:
  total allocation   :       2405.47 KBytes
  max/ min on nodes  :        609.77        594.73

 Maximum index for augmentation-charges in exchange          528
  SETUP_FOCK is finished

 total amount of memory used by VASP MPI-rank0   130214. kBytes
=======================================================================

   base      :      30000. kBytes
   nonlr-proj:       2845. kBytes
   fftplans  :      51716. kBytes
   grid      :      42969. kBytes
   one-center:         31. kBytes
   HF        :         64. kBytes
   wavefun   :       2589. kBytes

     INWAV:  cpu time      0.0001: real time      0.0004
 Broyden mixing: mesh for mixing (old mesh)
   NGX = 75   NGY = 75   NGZ = 75
  (NGX  =300   NGY  =300   NGZ  =300)
  gives a total of 421875 points

 initial charge density was supplied:
 charge density of overlapping atoms calculated
 number of electron      66.0000000 magnetization 
 keeping initial charge density in first step


--------------------------------------------------------------------------------------------------------


 Maximum index for non-local projection operator         1305
 Maximum index for augmentation-charges          817 (set IRDMAX)


--------------------------------------------------------------------------------------------------------


    FEWALD:  cpu time      0.0012: real time      0.0012


--------------------------------------- Iteration      1(   1)  ---------------------------------------


    POTLOK:  cpu time      0.1547: real time      0.1548
    SETDIJ:  cpu time      0.1879: real time      0.1879
    TRIAL :  cpu time      0.3311: real time      0.3312
    CORREC:  cpu time      0.0011: real time      0.0011
    --------------------------------------------
      LOOP:  cpu time      0.6765: real time      0.6768

 eigenvalue-minimisations  :    96
 total energy-change (2. order) :-0.5104493E+04  (-0.1140832E+04)
 number of electron      66.0000000 magnetization 
 augmentation part       66.0000000 magnetization 

 Free energy of the ion-electron system (eV)
  ---------------------------------------------------
  alpha Z        PSCENC =         3.82760131
  Ewald energy   TEWEN  =      3949.60846310
  -Hartree energ DENC   =     -9891.37809378
  -exchange      EXHF   =         0.00000000
  -V(xc)+E(xc)   XCENC  =       -68.89654986
  PAW double counting   =      6020.77289596   -11364.79075562
  entropy T*S    EENTRO =        -0.01618081
  eigenvalues    EBANDS =        30.70518460
  atomic energy  EATOM  =      6215.67461069
  ---------------------------------------------------
  free energy    TOTEN  =     -5104.49282440 eV

  energy without entropy =    -5104.47664359  energy(sigma->0) =    -5104.48473399
  exchange ACFDT corr.  =         0.00000000  see jH, gK, PRB 81, 115126


--------------------------------------------------------------------------------------------------------




--------------------------------------- Iteration      1(   2)  ---------------------------------------


    TRIAL :  cpu time      0.7028: real time      0.7034
    CORREC:  cpu time      0.0013: real time      0.0013
    --------------------------------------------
      LOOP:  cpu time      0.7080: real time      0.7089

 eigenvalue-minimisations  :   192
 total energy-change (2. order) :-0.6081066E+03  (-0.6080978E+03)
 number of electron      66.0000000 magnetization 
 augmentation part       66.0000000 magnetization 

 Free energy of the ion-electron system (eV)
  ---------------------------------------------------
  alpha Z        PSCENC =         3.82760131
  Ewald energy   TEWEN  =      3949.60846310
  -Hartree energ DENC   =     -9891.37809378
  -exchange      EXHF   =         0.00000000
  -V(xc)+E(xc)   XCENC  =       -68.89654986
  PAW double counting   =      6020.77289596   -11364.79075562
  entropy T*S    EENTRO =        -0.00048151
  eigenvalues    EBANDS =      -577.41707949
  atomic energy  EATOM  =      6215.67461069
  ---------------------------------------------------
  free energy    TOTEN  =     -5712.59938920 eV

  energy without entropy =    -5712.59890769  energy(sigma->0) =    -5712.59914844
  exchange ACFDT corr.  =         0.00000000  see jH, gK, PRB 81, 115126


--------------------------------------------------------------------------------------------------------




--------------------------------------- Iteration      1(   3)  ---------------------------------------


    TRIAL :  cpu time      0.3257: real time      0.3257
    CORREC:  cpu time      0.0003: real time      0.0003
    --------------------------------------------
      LOOP:  cpu time      0.3292: real time      0.3296

 eigenvalue-minimisations  :    96
 total energy-change (2. order) :-0.1252926E+03  (-0.1252881E+03)
 number of electron      66.0000000 magnetization 
 augmentation part       66.0000000 magnetization 

 Free energy of the ion-electron system (eV)
  ---------------------------------------------------
  alpha Z        PSCENC =         3.82760131
  Ewald energy   TEWEN  =      3949.60846310
  -Hartree energ DENC   =     -9891.37809378
  -exchange      EXHF   =         0.00000000
  -V(xc)+E(xc)   XCENC  =       -68.89654986
  PAW double counting   =      6020.77289596   -11364.79075562
  entropy T*S    EENTRO =        -0.00000000
  eigenvalues    EBANDS =      -702.71019999
  atomic energy  EATOM  =      6215.67461069
  ---------------------------------------------------
  free energy    TOTEN  =     -5837.89202819 eV

  energy without entropy =    -5837.89202819  energy(sigma->0) =    -5837.89202819
  exchange ACFDT corr.  =         0.00000000  see jH, gK, PRB 81, 115126


--------------------------------------------------------------------------------------------------------




--------------------------------------- Iteration      1(   4)  ---------------------------------------


    TRIAL :  cpu time      0.3250: real time      0.3251
    CORREC:  cpu time      0.0007: real time      0.0007
    --------------------------------------------
      LOOP:  cpu time      0.3295: real time      0.3297

 eigenvalue-minimisations  :    96
 total energy-change (2. order) :-0.2026526E+01  (-0.2026526E+01)
 number of electron      66.0000000 magnetization 
 augmentation part       66.0000000 magnetization 

 Free energy of the ion-electron system (eV)
  ---------------------------------------------------
  alpha Z        PSCENC =         3.82760131
  Ewald energy   TEWEN  =      3949.60846310
  -Hartree energ DENC   =     -9891.37809378
  -exchange      EXHF   =         0.00000000
  -V(xc)+E(xc)   XCENC  =       -68.89654986
  PAW double counting   =      6020.77289596   -11364.79075562
  entropy T*S    EENTRO =        -0.00000000
  eigenvalues    EBANDS =      -704.73672642
  atomic energy  EATOM  =      6215.67461069
  ---------------------------------------------------
  free energy    TOTEN  =     -5839.91855462 eV

  energy without entropy =    -5839.91855462  energy(sigma->0) =    -5839.91855462
  exchange ACFDT corr.  =         0.00000000  see jH, gK, PRB 81, 115126


--------------------------------------------------------------------------------------------------------




--------------------------------------- Iteration      1(   5)  ---------------------------------------


    POTLOK:  cpu time      0.1439: real time      0.1439
    SETDIJ:  cpu time      0.1801: real time      0.1801
    TRIAL :  cpu time      4.0188: real time      4.0218
    CORREC:  cpu time      0.0006: real time      0.0006
    CHARGE:  cpu time      0.0934: real time      0.0936
    --------------------------------------------
      LOOP:  cpu time      4.4403: real time      4.4437

 eigenvalue-minimisations  :   144
 total energy-change (2. order) : 0.5828192E+04  (-0.5010921E+01)
 number of electron      66.0000001 magnetization 
 augmentation part       32.4516213 magnetization 

 Free energy of the ion-electron system (eV)
  ---------------------------------------------------
  alpha Z        PSCENC =         3.82760131
  Ewald energy   TEWEN  =      3949.60846310
  -Hartree energ DENC   =     -9891.37809378
  -exchange      EXHF   =       170.31125827
  -V(xc)+E(xc)   XCENC  =       -53.16150102
  PAW double counting   =      6004.16385076    -5769.55885366
  entropy T*S    EENTRO =        -0.00000000
  eigenvalues    EBANDS =      -641.21420522
  atomic energy  EATOM  =      6215.67461069
  ---------------------------------------------------
  free energy    TOTEN  =       -11.72686955 eV

  energy without entropy =      -11.72686955  energy(sigma->0) =      -11.72686955
  exchange ACFDT corr.  =        -0.00000000  see jH, gK, PRB 81, 115126


--------------------------------------------------------------------------------------------------------




--------------------------------------- Iteration      1(   6)  ---------------------------------------


    POTLOK:  cpu time      0.1475: real time      0.1475
    SETDIJ:  cpu time      0.1815: real time      0.1815
    TRIAL :  cpu time      3.6950: real time      3.6978
    CORREC:  cpu time      3.9977: real time      4.0009
    CHARGE:  cpu time      0.0925: real time      0.0926
    --------------------------------------------
      LOOP:  cpu time      8.1179: real time      8.1243

 eigenvalue-minimisations  :     0
 total energy-change (2. order) : 0.2139037E+01  (-0.1783109E+01)
 number of electron      66.0000001 magnetization 
 augmentation part       32.0007741 magnetization 

 Free energy of the ion-electron system (eV)
  ---------------------------------------------------
  alpha Z        PSCENC =         3.82760131
  Ewald energy   TEWEN  =      3949.60846310
  -Hartree energ DENC   =    -10085.19260082
  -exchange      EXHF   =       164.32459030
  -V(xc)+E(xc)   XCENC  =       -51.39518755
  PAW double counting   =      7141.29928126    -6914.24885861
  entropy T*S    EENTRO =        -0.00000000
  eigenvalues    EBANDS =      -433.48573218
  atomic energy  EATOM  =      6215.67461069
  ---------------------------------------------------
  free energy    TOTEN  =        -9.58783250 eV

  energy without entropy =       -9.58783250  energy(sigma->0) =       -9.58783250
  exchange ACFDT corr.  =        -0.00000000  see jH, gK, PRB 81, 115126


--------------------------------------------------------------------------------------------------------




--------------------------------------- Iteration      1(   7)  ---------------------------------------


    POTLOK:  cpu time      0.1508: real time      0.1508
    SETDIJ:  cpu time      0.1860: real time      0.1860
    TRIAL :  cpu time      3.6797: real time      3.6822
    CORREC:  cpu time      3.9929: real time      3.9955
    CHARGE:  cpu time      0.0897: real time      0.0897
    --------------------------------------------
      LOOP:  cpu time      8.1030: real time      8.1083

 eigenvalue-minimisations  :     0
 total energy-change (2. order) :-0.1798642E+01  (-0.1644966E+00)
 number of electron      66.0000001 magnetization 
 augmentation part       32.1496164 magnetization 

 Free energy of the ion-electron system (eV)
  ---------------------------------------------------
  alpha Z        PSCENC =         3.82760131
  Ewald energy   TEWEN  =      3949.60846310
  -Hartree energ DENC   =     -9944.27260651
  -exchange      EXHF   =       162.29315370
  -V(xc)+E(xc)   XCENC  =       -53.22774826
  PAW double counting   =      7039.52805636    -6811.25905470
  entropy T*S    EENTRO =        -0.00000000
  eigenvalues    EBANDS =      -573.55895020
  atomic energy  EATOM  =      6215.67461069
  ---------------------------------------------------
  free energy    TOTEN  =       -11.38647451 eV

  energy without entropy =      -11.38647451  energy(sigma->0) =      -11.38647451
  exchange ACFDT corr.  =        -0.00000000  see jH, gK, PRB 81, 115126


--------------------------------------------------------------------------------------------------------




--------------------------------------- Iteration      1(   8)  ---------------------------------------


    POTLOK:  cpu time      0.1518: real time      0.1518
    SETDIJ:  cpu time      0.1869: real time      0.1869
    TRIAL :  cpu time      3.6780: real time      3.6806
    CORREC:  cpu time      3.9894: real time      3.9919
    CHARGE:  cpu time      0.0908: real time      0.0908
    --------------------------------------------
      LOOP:  cpu time      8.1016: real time      8.1069

 eigenvalue-minimisations  :     0
 total energy-change (2. order) :-0.1650401E+00  (-0.7796107E-01)
 number of electron      66.0000001 magnetization 
 augmentation part       32.0816858 magnetization 

 Free energy of the ion-electron system (eV)
  ---------------------------------------------------
  alpha Z        PSCENC =         3.82760131
  Ewald energy   TEWEN  =      3949.60846310
  -Hartree energ DENC   =     -9951.07301297
  -exchange      EXHF   =       162.72874464
  -V(xc)+E(xc)   XCENC  =       -52.86506478
  PAW double counting   =      7041.07785414    -6812.74923613
  entropy T*S    EENTRO =        -0.00000000
  eigenvalues    EBANDS =      -567.78147463
  atomic energy  EATOM  =      6215.67461069
  ---------------------------------------------------
  free energy    TOTEN  =       -11.55151463 eV

  energy without entropy =      -11.55151463  energy(sigma->0) =      -11.55151463
  exchange ACFDT corr.  =        -0.00000000  see jH, gK, PRB 81, 115126


--------------------------------------------------------------------------------------------------------




--------------------------------------- Iteration      1(   9)  ---------------------------------------


    POTLOK:  cpu time      0.1498: real time      0.1499
    SETDIJ:  cpu time      0.1838: real time      0.1844
    TRIAL :  cpu time      3.6896: real time      3.6921
    CORREC:  cpu time      3.9583: real time      3.9607
    CHARGE:  cpu time      0.0910: real time      0.0910
    --------------------------------------------
      LOOP:  cpu time      8.0763: real time      8.0825

 eigenvalue-minimisations  :     0
 total energy-change (2. order) :-0.7799528E-01  (-0.2686969E-01)
 number of electron      66.0000001 magnetization 
 augmentation part       32.1129482 magnetization 

 Free energy of the ion-electron system (eV)
  ---------------------------------------------------
  alpha Z        PSCENC =         3.82760131
  Ewald energy   TEWEN  =      3949.60846310
  -Hartree energ DENC   =     -9939.46639374
  -exchange      EXHF   =       162.47578461
  -V(xc)+E(xc)   XCENC  =       -53.08015276
  PAW double counting   =      7037.49581323    -6809.00773726
  entropy T*S    EENTRO =        -0.00000000
  eigenvalues    EBANDS =      -579.15749910
  atomic energy  EATOM  =      6215.67461069
  ---------------------------------------------------
  free energy    TOTEN  =       -11.62950991 eV

  energy without entropy =      -11.62950991  energy(sigma->0) =      -11.62950991
  exchange ACFDT corr.  =        -0.00000000  see jH, gK, PRB 81, 115126


--------------------------------------------------------------------------------------------------------




--------------------------------------- Iteration      1(  10)  ---------------------------------------


    POTLOK:  cpu time      0.1501: real time      0.1502
    SETDIJ:  cpu time      0.1854: real time      0.1854
    TRIAL :  cpu time      3.7027: real time      3.7062
    CORREC:  cpu time      3.9864: real time      3.9889
    CHARGE:  cpu time      0.0881: real time      0.0881
    --------------------------------------------
      LOOP:  cpu time      8.1166: real time      8.1229

 eigenvalue-minimisations  :     0
 total energy-change (2. order) :-0.2676185E-01  (-0.5914214E-02)
 number of electron      66.0000001 magnetization 
 augmentation part       32.1143355 magnetization 

 Free energy of the ion-electron system (eV)
  ---------------------------------------------------
  alpha Z        PSCENC =         3.82760131
  Ewald energy   TEWEN  =      3949.60846310
  -Hartree energ DENC   =     -9935.84288149
  -exchange      EXHF   =       162.50287768
  -V(xc)+E(xc)   XCENC  =       -53.08052190
  PAW double counting   =      7041.62974044    -6813.04839568
  entropy T*S    EENTRO =        -0.00000000
  eigenvalues    EBANDS =      -582.92776592
  atomic energy  EATOM  =      6215.67461069
  ---------------------------------------------------
  free energy    TOTEN  =       -11.65627176 eV

  energy without entropy =      -11.65627176  energy(sigma->0) =      -11.65627176
  exchange ACFDT corr.  =        -0.00000000  see jH, gK, PRB 81, 115126


--------------------------------------------------------------------------------------------------------




--------------------------------------- Iteration      1(  11)  ---------------------------------------


    POTLOK:  cpu time      0.1450: real time      0.1450
    SETDIJ:  cpu time      0.1826: real time      0.1826
    TRIAL :  cpu time      3.6626: real time      3.6663
    CORREC:  cpu time      3.9430: real time      3.9458
    CHARGE:  cpu time      0.0908: real time      0.0908
    --------------------------------------------
      LOOP:  cpu time      8.0283: real time      8.0352

 eigenvalue-minimisations  :     0
 total energy-change (2. order) :-0.5911462E-02  (-0.1175368E-02)
 number of electron      66.0000001 magnetization 
 augmentation part       32.1082747 magnetization 

 Free energy of the ion-electron system (eV)
  ---------------------------------------------------
  alpha Z        PSCENC =         3.82760131
  Ewald energy   TEWEN  =      3949.60846310
  -Hartree energ DENC   =     -9935.20614574
  -exchange      EXHF   =       162.49443544
  -V(xc)+E(xc)   XCENC  =       -53.09198510
  PAW double counting   =      7041.15466650    -6812.55661588
  entropy T*S    EENTRO =        -0.00000000
  eigenvalues    EBANDS =      -583.56721355
  atomic energy  EATOM  =      6215.67461069
  ---------------------------------------------------
  free energy    TOTEN  =       -11.66218322 eV

  energy without entropy =      -11.66218322  energy(sigma->0) =      -11.66218322
  exchange ACFDT corr.  =        -0.00000000  see jH, gK, PRB 81, 115126


--------------------------------------------------------------------------------------------------------




--------------------------------------- Iteration      1(  12)  ---------------------------------------


    POTLOK:  cpu time      0.1434: real time      0.1434
    SETDIJ:  cpu time      0.1829: real time      0.1829
    TRIAL :  cpu time      3.7042: real time      3.7063
    CORREC:  cpu time      3.9502: real time      3.9534
    CHARGE:  cpu time      0.0902: real time      0.0902
    --------------------------------------------
      LOOP:  cpu time      8.0746: real time      8.0803

 eigenvalue-minimisations  :     0
 total energy-change (2. order) :-0.1176371E-02  (-0.3454274E-03)
 number of electron      66.0000001 magnetization 
 augmentation part       32.1109552 magnetization 

 Free energy of the ion-electron system (eV)
  ---------------------------------------------------
  alpha Z        PSCENC =         3.82760131
  Ewald energy   TEWEN  =      3949.60846310
  -Hartree energ DENC   =     -9934.45118538
  -exchange      EXHF   =       162.47302175
  -V(xc)+E(xc)   XCENC  =       -53.11044216
  PAW double counting   =      7040.12563093    -6811.52243518
  entropy T*S    EENTRO =        -0.00000000
  eigenvalues    EBANDS =      -584.28862464
  atomic energy  EATOM  =      6215.67461069
  ---------------------------------------------------
  free energy    TOTEN  =       -11.66335960 eV

  energy without entropy =      -11.66335960  energy(sigma->0) =      -11.66335960
  exchange ACFDT corr.  =        -0.00000000  see jH, gK, PRB 81, 115126


--------------------------------------------------------------------------------------------------------




--------------------------------------- Iteration      1(  13)  ---------------------------------------


    POTLOK:  cpu time      0.1428: real time      0.1428
    SETDIJ:  cpu time      0.1826: real time      0.1826
    TRIAL :  cpu time      3.7176: real time      3.7197
    CORREC:  cpu time      3.9633: real time      3.9665
    CHARGE:  cpu time      0.0895: real time      0.0895
    --------------------------------------------
      LOOP:  cpu time      8.0999: real time      8.1058

 eigenvalue-minimisations  :     0
 total energy-change (2. order) :-0.3448369E-03  (-0.1204584E-03)
 number of electron      66.0000001 magnetization 
 augmentation part       32.1103569 magnetization 

 Free energy of the ion-electron system (eV)
  ---------------------------------------------------
  alpha Z        PSCENC =         3.82760131
  Ewald energy   TEWEN  =      3949.60846310
  -Hartree energ DENC   =     -9934.75376701
  -exchange      EXHF   =       162.48247425
  -V(xc)+E(xc)   XCENC  =       -53.10183743
  PAW double counting   =      7040.49689819    -6811.89853849
  entropy T*S    EENTRO =        -0.00000000
  eigenvalues    EBANDS =      -583.99960905
  atomic energy  EATOM  =      6215.67461069
  ---------------------------------------------------
  free energy    TOTEN  =       -11.66370443 eV

  energy without entropy =      -11.66370443  energy(sigma->0) =      -11.66370443
  exchange ACFDT corr.  =        -0.00000000  see jH, gK, PRB 81, 115126


--------------------------------------------------------------------------------------------------------




--------------------------------------- Iteration      1(  14)  ---------------------------------------


    POTLOK:  cpu time      0.1444: real time      0.1444
    SETDIJ:  cpu time      0.1808: real time      0.1808
    TRIAL :  cpu time      3.6830: real time      3.6850
    CORREC:  cpu time      4.3227: real time      4.3252
    CHARGE:  cpu time      0.0898: real time      0.0898
    --------------------------------------------
      LOOP:  cpu time      8.4252: real time      8.4301

 eigenvalue-minimisations  :     0
 total energy-change (2. order) :-0.1207577E-03  (-0.4068193E-04)
 number of electron      66.0000001 magnetization 
 augmentation part       32.1102058 magnetization 

 Free energy of the ion-electron system (eV)
  ---------------------------------------------------
  alpha Z        PSCENC =         3.82760131
  Ewald energy   TEWEN  =      3949.60846310
  -Hartree energ DENC   =     -9934.68433438
  -exchange      EXHF   =       162.47882976
  -V(xc)+E(xc)   XCENC  =       -53.10452015
  PAW double counting   =      7041.19903180    -6812.60083679
  entropy T*S    EENTRO =        -0.00000000
  eigenvalues    EBANDS =      -584.06267054
  atomic energy  EATOM  =      6215.67461069
  ---------------------------------------------------
  free energy    TOTEN  =       -11.66382519 eV

  energy without entropy =      -11.66382519  energy(sigma->0) =      -11.66382519
  exchange ACFDT corr.  =        -0.00000000  see jH, gK, PRB 81, 115126


--------------------------------------------------------------------------------------------------------




--------------------------------------- Iteration      1(  15)  ---------------------------------------


    POTLOK:  cpu time      0.1441: real time      0.1441
    SETDIJ:  cpu time      0.1837: real time      0.1837
    TRIAL :  cpu time      4.8744: real time      4.8777
    CORREC:  cpu time      4.8860: real time      4.8885
    CHARGE:  cpu time      0.0906: real time      0.0906
    --------------------------------------------
      LOOP:  cpu time     10.1823: real time     10.1886

 eigenvalue-minimisations  :     0
 total energy-change (2. order) :-0.4082710E-04  (-0.1269708E-04)
 number of electron      66.0000001 magnetization 
 augmentation part       32.1106427 magnetization 

 Free energy of the ion-electron system (eV)
  ---------------------------------------------------
  alpha Z        PSCENC =         3.82760131
  Ewald energy   TEWEN  =      3949.60846310
  -Hartree energ DENC   =     -9934.66996036
  -exchange      EXHF   =       162.47772877
  -V(xc)+E(xc)   XCENC  =       -53.10520844
  PAW double counting   =      7041.84566446    -6813.24762285
  entropy T*S    EENTRO =        -0.00000000
  eigenvalues    EBANDS =      -584.07514270
  atomic energy  EATOM  =      6215.67461069
  ---------------------------------------------------
  free energy    TOTEN  =       -11.66386602 eV

  energy without entropy =      -11.66386602  energy(sigma->0) =      -11.66386602
  exchange ACFDT corr.  =        -0.00000000  see jH, gK, PRB 81, 115126


--------------------------------------------------------------------------------------------------------




--------------------------------------- Iteration      1(  16)  ---------------------------------------


    POTLOK:  cpu time      0.1414: real time      0.1414
    SETDIJ:  cpu time      0.1872: real time      0.1872
    TRIAL :  cpu time      4.7960: real time      4.7990
    CORREC:  cpu time      5.1635: real time      5.1661
    CHARGE:  cpu time      0.0905: real time      0.0905
    --------------------------------------------
      LOOP:  cpu time     10.3898: real time     10.3957

 eigenvalue-minimisations  :     0
 total energy-change (2. order) :-0.1224410E-04  (-0.3279120E-05)
 number of electron      66.0000001 magnetization 
 augmentation part       32.1102508 magnetization 

 Free energy of the ion-electron system (eV)
  ---------------------------------------------------
  alpha Z        PSCENC =         3.82760131
  Ewald energy   TEWEN  =      3949.60846310
  -Hartree energ DENC   =     -9934.79830472
  -exchange      EXHF   =       162.47974207
  -V(xc)+E(xc)   XCENC  =       -53.10327386
  PAW double counting   =      7042.19562568    -6813.59959088
  entropy T*S    EENTRO =        -0.00000000
  eigenvalues    EBANDS =      -583.94875165
  atomic energy  EATOM  =      6215.67461069
  ---------------------------------------------------
  free energy    TOTEN  =       -11.66387826 eV

  energy without entropy =      -11.66387826  energy(sigma->0) =      -11.66387826
  exchange ACFDT corr.  =        -0.00000000  see jH, gK, PRB 81, 115126


--------------------------------------------------------------------------------------------------------




--------------------------------------- Iteration      1(  17)  ---------------------------------------


    POTLOK:  cpu time      0.1430: real time      0.1430
    SETDIJ:  cpu time      0.1831: real time      0.1831
    TRIAL :  cpu time      4.9434: real time      4.9468
    CORREC:  cpu time      5.2827: real time      5.2850
    CHARGE:  cpu time      0.0893: real time      0.0894
    --------------------------------------------
      LOOP:  cpu time     10.6454: real time     10.6512

 eigenvalue-minimisations  :     0
 total energy-change (2. order) :-0.3245409E-05  (-0.1247686E-05)
 number of electron      66.0000001 magnetization 
 augmentation part       32.1102056 magnetization 

 Free energy of the ion-electron system (eV)
  ---------------------------------------------------
  alpha Z        PSCENC =         3.82760131
  Ewald energy   TEWEN  =      3949.60846310
  -Hartree energ DENC   =     -9934.74549795
  -exchange      EXHF   =       162.47843705
  -V(xc)+E(xc)   XCENC  =       -53.10435114
  PAW double counting   =      7042.25021077    -6813.65445898
  entropy T*S    EENTRO =        -0.00000000
  eigenvalues    EBANDS =      -583.99889637
  atomic energy  EATOM  =      6215.67461069
  ---------------------------------------------------
  free energy    TOTEN  =       -11.66388151 eV

  energy without entropy =      -11.66388151  energy(sigma->0) =      -11.66388151
  exchange ACFDT corr.  =        -0.00000000  see jH, gK, PRB 81, 115126


--------------------------------------------------------------------------------------------------------




--------------------------------------- Iteration      1(  18)  ---------------------------------------


    POTLOK:  cpu time      0.1420: real time      0.1420
    SETDIJ:  cpu time      0.1821: real time      0.1821
    TRIAL :  cpu time      5.0602: real time      5.0628
    CORREC:  cpu time      5.3210: real time      5.3230
    CHARGE:  cpu time      0.0910: real time      0.0910
    --------------------------------------------
      LOOP:  cpu time     10.8004: real time     10.8055

 eigenvalue-minimisations  :     0
 total energy-change (2. order) :-0.1238749E-05  (-0.6097579E-06)
 number of electron      66.0000001 magnetization 
 augmentation part       32.1103532 magnetization 

 Free energy of the ion-electron system (eV)
  ---------------------------------------------------
  alpha Z        PSCENC =         3.82760131
  Ewald energy   TEWEN  =      3949.60846310
  -Hartree energ DENC   =     -9934.74677477
  -exchange      EXHF   =       162.47842529
  -V(xc)+E(xc)   XCENC  =       -53.10432429
  PAW double counting   =      7042.25375713    -6813.65863202
  entropy T*S    EENTRO =        -0.00000000
  eigenvalues    EBANDS =      -583.99700918
  atomic energy  EATOM  =      6215.67461069
  ---------------------------------------------------
  free energy    TOTEN  =       -11.66388275 eV

  energy without entropy =      -11.66388275  energy(sigma->0) =      -11.66388275
  exchange ACFDT corr.  =        -0.00000000  see jH, gK, PRB 81, 115126


--------------------------------------------------------------------------------------------------------




--------------------------------------- Iteration      1(  19)  ---------------------------------------


    POTLOK:  cpu time      0.1415: real time      0.1415
    SETDIJ:  cpu time      0.1815: real time      0.1815
    TRIAL :  cpu time      5.0623: real time      5.0651
    CORREC:  cpu time      5.3501: real time      5.3533
    EDDIAG:  cpu time      5.0005: real time      5.0028
    CHARGE:  cpu time      0.0906: real time      0.0906
    --------------------------------------------
      LOOP:  cpu time     15.8299: real time     15.8387

 eigenvalue-minimisations  :     0
 total energy-change (2. order) :-0.4344211E-06  (-0.2091966E-06)
 number of electron      66.0000001 magnetization 
 augmentation part       32.1102635 magnetization 

 Free energy of the ion-electron system (eV)
  ---------------------------------------------------
  alpha Z        PSCENC =         3.82760131
  Ewald energy   TEWEN  =      3949.60846310
  -Hartree energ DENC   =     -9934.78356880
  -exchange      EXHF   =       162.47876651
  -V(xc)+E(xc)   XCENC  =       -53.10370574
  PAW double counting   =      7042.25918543    -6813.66460843
  entropy T*S    EENTRO =        -0.00000000
  eigenvalues    EBANDS =      -583.96097819
  atomic energy  EATOM  =      6215.67461069
  ---------------------------------------------------
  free energy    TOTEN  =       -11.66388318 eV

  energy without entropy =      -11.66388318  energy(sigma->0) =      -11.66388318
  exchange ACFDT corr.  =        -0.00000000  see jH, gK, PRB 81, 115126


--------------------------------------------------------------------------------------------------------


  average scaling for gradient   1.2349


 average (electrostatic) potential at core
  the test charge radii are     1.1249
  (the norm of the test charge is              1.0000)
       1 -75.7302       2 -75.2900       3 -75.2912       4 -75.2925       5 -75.2890
       6 -75.2935



 E-fermi :  -4.8748     XC(G=0):  -0.3059     alpha+bet : -0.1722

 Fermi energy:        -4.8747735337

 k-point     1 :       0.0000    0.0000    0.0000
  band No.  band energies     occupation 
      1     -10.4665      2.00000
      2     -10.4662      2.00000
      3     -10.4245      2.00000
      4     -10.4227      2.00000
      5     -10.1840      2.00000
      6     -10.0146      2.00000
      7      -9.6527      2.00000
      8      -9.6170      2.00000
      9      -9.6152      2.00000
     10      -9.4758      2.00000
     11      -9.4707      2.00000
     12      -9.2594      2.00000
     13      -9.2516      2.00000
     14      -9.1991      2.00000
     15      -9.1973      2.00000
     16      -8.7343      2.00000
     17      -8.7339      2.00000
     18      -8.7044      2.00000
     19      -8.7008      2.00000
     20      -8.6686      2.00000
     21      -8.6233      2.00000
     22      -8.6194      2.00000
     23      -8.5466      2.00000
     24      -8.5460      2.00000
     25      -8.4710      2.00000
     26      -8.3972      2.00000
     27      -8.3902      2.00000
     28      -8.1462      2.00000
     29      -8.0388      2.00000
     30      -8.0386      2.00000
     31      -7.6428      2.00000
     32      -5.1456      2.00000
     33      -5.1340      2.00000
     34      -2.1705      0.00000
     35      -1.8727      0.00000
     36      -1.8719      0.00000
     37      -1.1094      0.00000
     38      -0.2944      0.00000
     39      -0.2896      0.00000
     40       0.1445      0.00000
     41       0.2328      0.00000
     42       0.2577      0.00000
     43       0.4059      0.00000
     44       0.4149      0.00000
     45       0.4362      0.00000
     46       0.4898      0.00000
     47       0.5313      0.00000
     48       0.5550      0.00000


--------------------------------------------------------------------------------------------------------


 soft charge-density along one line, spin component           1
         0         1         2         3         4         5         6         7         8         9
 total charge-density along one line

 pseudopotential strength for first ion, spin component:           1
 -8.784  -0.002  -0.003  -0.007   0.000  -8.843  -0.002  -0.003
 -0.002  -8.780  -0.004   0.002   0.006  -0.002  -8.839  -0.004
 -0.003  -0.004  -8.782  -0.001   0.004  -0.003  -0.004  -8.842
 -0.007   0.002  -0.001  -8.786  -0.002  -0.006   0.002  -0.001
  0.000   0.006   0.004  -0.002  -8.784   0.000   0.006   0.004
 -8.843  -0.002  -0.003  -0.006   0.000  -8.875  -0.001  -0.002
 -0.002  -8.839  -0.004   0.002   0.006  -0.001  -8.871  -0.003
 -0.003  -0.004  -8.842  -0.001   0.004  -0.002  -0.003  -8.873
 -0.006   0.002  -0.001  -8.846  -0.002  -0.006   0.002  -0.001
  0.000   0.006   0.004  -0.002  -8.843   0.000   0.006   0.004
 -0.003   0.008  -0.001   0.002   0.004  -0.003   0.008  -0.001
 -0.005   0.013  -0.001   0.004   0.007  -0.004   0.013  -0.001
 -0.009   0.025   0.015   0.001   0.028  -0.008   0.024   0.015
  0.001  -0.029   0.025  -0.008  -0.001   0.001  -0.028   0.024
 -0.027   0.001   0.004   0.022  -0.007  -0.026   0.001   0.004
 -0.011   0.031   0.018   0.001   0.034  -0.010   0.029   0.017
  0.001  -0.035   0.030  -0.010  -0.002   0.001  -0.034   0.029
 -0.032   0.001   0.005   0.026  -0.008  -0.030   0.001   0.005
 total augmentation occupancy for first ion, spin component:           1
  3.130   0.128  -0.127  -0.209   0.114  -1.138  -0.141   0.096   0.135  -0.110   0.192  -0.055   0.018  -0.085  -0.265  -0.006
  0.128   2.812  -0.101  -0.074  -0.059  -0.141  -0.787   0.059   0.094   0.123  -0.549   0.157  -0.053  -0.054  -0.085   0.018
 -0.127  -0.101   3.247  -0.028   0.200   0.096   0.059  -1.237   0.015  -0.149   0.047  -0.013   0.196   0.256   0.056  -0.004
 -0.209  -0.074  -0.028   3.045  -0.170   0.135   0.094   0.015  -1.082   0.145  -0.153   0.044  -0.084  -0.016   0.217   0.006
  0.114  -0.059   0.200  -0.170   3.015  -0.110   0.123  -0.149   0.145  -1.026  -0.302   0.086   0.129   0.134  -0.131   0.008
 -1.138  -0.141   0.096   0.135  -0.110   1.132   0.152  -0.070  -0.074   0.108  -0.188   0.059  -0.012   0.081   0.277   0.001
 -0.141  -0.787   0.059   0.094   0.123   0.152   0.751  -0.024  -0.112  -0.177   0.536  -0.169   0.034   0.074   0.082  -0.003
  0.096   0.059  -1.237   0.015  -0.149  -0.070  -0.024   1.216  -0.004   0.108  -0.046   0.015  -0.201  -0.266  -0.058   0.014
  0.135   0.094   0.015  -1.082   0.145  -0.074  -0.112  -0.004   1.099  -0.125   0.150  -0.047   0.081   0.021  -0.226  -0.006
 -0.110   0.123  -0.149   0.145  -1.026   0.108  -0.177   0.108  -0.125   1.023   0.296  -0.093  -0.146  -0.129   0.133   0.010
  0.192  -0.549   0.047  -0.153  -0.302  -0.188   0.536  -0.046   0.150   0.296   3.861  -1.221   0.297  -0.243   0.085  -0.031
 -0.055   0.157  -0.013   0.044   0.086   0.059  -0.169   0.015  -0.047  -0.093  -1.221   0.388  -0.096   0.078  -0.027   0.010
  0.018  -0.053   0.196  -0.084   0.129  -0.012   0.034  -0.201   0.081  -0.146   0.297  -0.096   0.109   0.056  -0.020  -0.009
 -0.085  -0.054   0.256  -0.016   0.134   0.081   0.074  -0.266   0.021  -0.129  -0.243   0.078   0.056   0.132   0.016  -0.003
 -0.265  -0.085   0.056   0.217  -0.131   0.277   0.082  -0.058  -0.226   0.133   0.085  -0.027  -0.020   0.016   0.172   0.001
 -0.006   0.018  -0.004   0.006   0.008   0.001  -0.003   0.014  -0.006   0.010  -0.031   0.010  -0.009  -0.003   0.001   0.001
  0.006  -0.013  -0.002  -0.004  -0.009  -0.006  -0.004   0.019  -0.001   0.010   0.025  -0.008  -0.003  -0.010  -0.001   0.000
  0.001   0.006  -0.001  -0.001   0.004  -0.019  -0.006   0.004   0.016  -0.009  -0.009   0.003   0.001  -0.001  -0.012  -0.000


------------------------ aborting loop because EDIFF is reached ----------------------------------------


    FORLOC:  cpu time      0.0145: real time      0.0145
    FORHF :  cpu time      2.5695: real time      2.5710
    FORNL :  cpu time      0.1093: real time      0.1095
    FORCOR:  cpu time      0.4960: real time      0.4960
    OFIELD:  cpu time      0.0007: real time      0.0007

  Hirshfeld charges:
            ion         q(e)     
   ------------------------------
      1     Ag          0.054
      2     Ag         -0.011
      3     Ag         -0.011
      4     Ag         -0.011
      5     Ag         -0.011
      6     Ag         -0.011

  Hirshfeld-I charges:
            ion         q(e)        dq(e)    
   ------------------------------------------
      1     Ag          0.116     -0.409E-04
      2     Ag         -0.024      0.532E-05
      3     Ag         -0.023      0.865E-05
      4     Ag         -0.023      0.103E-04
      5     Ag         -0.024      0.428E-05
      6     Ag         -0.022      0.124E-04

   Hirshfeld-I converged in  11 cycles. Convergence criterion |dq|< 0.500E-04 e

  Atomic reference data used in the T-S method for vdW correction:
            C6at              R0at           ALPHAat      REFSTATE
            (au)              (au)            (au)                
   ---------------------------------------------------------------
   Ag        339.000          3.817         50.600         0
 
 Nth order contribution to Edisp (eV)
 Edisp(N=2): -0.39584464691455212     
 Edisp(N=3):                       NaN
 Edisp(N=4):  -2.0714915421947217E-002
 Edisp(N=5):   3.9414793020261943E-003
 Edisp(N=6):  -2.6178653563619270E-003
 Edisp(N=inf): -0.39029706311688878     

  Tkatchenko/Scheffler method for vdW energy calculation
  ---------------------------------------------------------------------------------------------

  Parameters of vdW forcefield:
            C6ts              R0ts          ALPHAts         R0scs        ALPHAscs        RELVOL 
            (au)              (au)           (au)            (au)          (au)                 
   ---------------------------------------------------------------------------------------------
   Ag        299.528          3.739         47.563          3.470         38.010          0.940
   Ag        327.273          3.795         49.717          3.619         43.134          0.983
   Ag        326.846          3.794         49.684          3.619         43.119          0.982
   Ag        326.475          3.793         49.656          3.619         43.122          0.981
   Ag        327.437          3.795         49.729          3.619         43.133          0.983
   Ag        326.191          3.793         49.635          3.619         43.103          0.981

  vdW correction parametrized for the method           

  IVDW = 212
  VDW_RADIUS =    50.000 A
  VDW_SR =     0.850
  VDW_D =     6.000
  SCSRAD =   120.000 A
  LVDWSCS = T
  LSCSGRAD = T
  LSCALER0 = T
  ITIM = -1
  Edisp (eV):   -0.39030
    FORVDW:  cpu time     37.5630: real time     37.5654

 VOLUME and BASIS-vectors are now :
 -----------------------------------------------------------------------------
  energy-cutoff  :      520.00
  volume of cell :     8000.00
      direct lattice vectors                 reciprocal lattice vectors
    20.000000000  0.000000000  0.000000000     0.050000000  0.000000000  0.000000000
     0.000000000 20.000000000  0.000000000     0.000000000  0.050000000  0.000000000
     0.000000000  0.000000000 20.000000000     0.000000000  0.000000000  0.050000000

  length of vectors
    20.000000000 20.000000000 20.000000000     0.050000000  0.050000000  0.050000000


 FORCES acting on ions:
    Electron-Ion                     Ewald-Force                    Non-Local-Force
 -----------------------------------------------------------------------------------------------
   0.122E+03 0.424E+03 -.347E+03   -.120E+03 -.420E+03 0.343E+03   -.126E+01 -.440E+01 0.358E+01
   0.427E+03 0.111E+03 0.473E+03   -.424E+03 -.110E+03 -.467E+03   -.386E+01 -.247E+00 -.521E+01
   0.520E+03 -.374E+03 -.902E+02   -.515E+03 0.369E+03 0.901E+02   -.476E+01 0.441E+01 0.217E+00
   -.141E+03 -.460E+03 -.433E+03   0.139E+03 0.455E+03 0.430E+03   0.158E+01 0.523E+01 0.354E+01
   -.640E+03 -.340E+02 -.759E+02   0.634E+03 0.328E+02 0.759E+02   0.637E+01 0.116E+01 0.495E-01
   -.289E+03 0.329E+03 0.477E+03   0.286E+03 -.326E+03 -.472E+03   0.301E+01 -.240E+01 -.525E+01
 -----------------------------------------------------------------------------------------------
   -.119E+01 -.415E+01 0.339E+01   -.114E-12 0.568E-13 0.000E+00   0.109E+01 0.375E+01 -.307E+01


 POSITION                                       TOTAL-FORCE (eV/Angst)
 -----------------------------------------------------------------------------------
      9.91144      9.52464     10.49773        -0.031448     -0.117172      0.089943
      8.49615      9.71779      8.24227        -0.124719     -0.028440     -0.128537
      8.14942     11.52399     10.33877        -0.142909      0.100110      0.023204
     10.60705     11.84903     11.61311         0.042511      0.123360      0.116936
     12.47004     10.25330     10.28421         0.177293      0.010869      0.026999
     11.16389      8.91263      8.21903         0.079273     -0.088726     -0.128546
 -----------------------------------------------------------------------------------
    total drift:                                0.004584     -0.001089     -0.005488


--------------------------------------------------------------------------------------------------------



  FREE ENERGIE OF THE ION-ELECTRON SYSTEM (eV)
  ---------------------------------------------------
  free  energy   TOTEN  =       -12.05418024 eV

  energy  without entropy=      -12.05418024  energy(sigma->0) =      -12.05418024



--------------------------------------------------------------------------------------------------------


    POTLOK:  cpu time      0.3264: real time      0.3264


--------------------------------------------------------------------------------------------------------


     LOOP+:  cpu time    178.5959: real time    178.6944
    4ORBIT:  cpu time      0.0000: real time      0.0000

 total amount of memory used by VASP MPI-rank0   753228. kBytes
=======================================================================

   base      :      30000. kBytes
   nonlr-proj:       3496. kBytes
   fftplans  :      51716. kBytes
   grid      :      42969. kBytes
   one-center:         31. kBytes
   HF        :         64. kBytes
   wavefun   :       2589. kBytes
   fock_wrk  :     622363. kBytes

  
  
 General timing and accounting informations for this job:
 ========================================================
  
                  Total CPU time used (sec):      191.547
                            User time (sec):      180.439
                          System time (sec):       11.108
                         Elapsed time (sec):      192.256
  
                   Maximum memory used (kb):     1053652.
                   Average memory used (kb):          N/A
  
                          Minor page faults:      2347723
                          Major page faults:            0
                 Voluntary context switches:         7639
