 **********************************************************************
                          MRCC program system
 **********************************************************************
 
                              Written by
     Mihaly Kallay, Peter R. Nagy, David Mester, Laszlo Gyevi-Nagy,
        Jozsef Csoka, P. Bernat Szabo, Zoltan Rolik, Gyula Samu,
     Jozsef Csontos, Bence Hegely, Adam Ganyecz, Istvan Ladjanszki,
       Lorant Szegedy, Bence Ladoczki, Klara Petrov, Mate Farkas,
                    Pal D. Mezei, and Reka A. Horvath
 
        Department of Physical Chemistry and Materials Science
            Budapest University of Technology and Economics
                  Budapest P.O.Box 91, H-1521 Hungary
 
                              www.mrcc.hu
 
                      Release date: March 18, 2022

 ************************ 2023-10-22 09:54:02 *************************
 Executing minp...

 Reading input from MINP...
 
 Input file:
 
calc=PBE0
verbosity=3
mem=220GB
symm=off
unit=angs
scfiguess=small
scfalg=locfit1
ECP=MCDHF-ECP-10
basis=bse_ACVQZ
basis_sm=def2-SVP
dfbasis_scf=def2-QZVPP-RI-JK
dfbasis_cor=bse_ACVQZ_mp2fit
scfalg=locfit1
core=0
unit=angs
geom=xyz
6
Cu6_1
Cu    -2.44844585    -0.38292048     1.03502692
Cu    -0.92977500     1.02242999    -0.02770657
Cu     1.26021350     0.19619315    -0.53541545
Cu    -0.32797805    -1.21708521     0.56827652
Cu     0.63555071     2.36421886    -1.10574655
Cu     1.81043469    -1.98283631     0.06556513

ghost=serialno


 
 
 Checking keyword combinations...
 
 Keywords:
 
 active=none
 agrid=ld0006-ld0590
 agrid_pssp=ld0006-ld0194
 agrid_pssp_sm=ld0006-ld0074
 basis=bse_acvqz
 basis_sm=def2-svp
 basopt=off
 bfbasis=none
 bfgsmem=10
 bfgstol=1.0d-3
 bpcompo=0.985
 bpcompv=0.98
 bpdfo=0.985
 bpocc=0.985
 bppdo=0.985
 bppdv=0.98
 bpedo=0.985
 bpedv=0.98
 calc=scf
 ccmaxit=50
 ccprog=mrcc
 ccsdalg=disk
 ccsdmkl=seq
 ccsdrest=off
 ccsdthreads=2
 cctol=6
 charge=0
 cialg=disk
 ciguess=off
 cmpgrp=auto
 comprest=off
 core=corr
 corembed=off
 csapprox=off
 cvs=off
 dboc=off
 delocsomofact=
 dendec=cholesky
 dens=0
 dfalg=lineq
 dfbasis_cab=none
 dfbasis_cor=bse_acvqz_mp2fit
 dfbasis_scf=def2-qzvpp-ri-jk
 dfbasis_scf_sm=def2-qzvpp-ri-jk
 dfintran=drpa
 dft=pbe0
 dhexc=adc(2)
 diag=david
 docc=
 domrad=10.d0
 drpaalg=fit
 dual=off
 dual_df=off
 ecp=mcdhf-ecp-10
 edisp=off
 edisp_embed=off
 embed=off
 etemp=300
 epert=none
 eps=
 espcharge=off
 excrad=1.0
 excrad_fin=0.100000000D-02
 fitting=coulomb
 fmm=off
 fmmord=8
 freq=off
 gamma=1.d0
 gauss=spher
 geom=xyz
 gopt=off
 ghost=serialno
 gtol=7
 grdens=off
 gridbatch_cos=2000
 grtol=10
 guido_ct=off
 hamilton=dc
 iface=none
 intalg=auto
 itol=10
 laptol=1.d-2
 lccoporder=trffirst
 lcorthr=normal
 lccrest=off
 lmp2dens=on
 lnoepso=0.d0
 lnoepsv=1e-6
 boysalg=jacobi
 localcc=off
 localcorrsymm=off
 locintrf=disk
 mact=
 maxact=off
 maxdim=100
 maxex=0
 maxmicroit=100
 mcscfiguess=hf
 mem=220gb
 mmprog=
 molden=on
 mpitasks=1
 mulmet=0
 mult=
 nacto=0
 nactv=0
 naf_amp=1.d-2
 naf_cor=off
 naf_scf=off
 nafalg=albe
 naftyp=
 nchol=auto
 ndeps=1e-3
 nstate=1
 nsing=0
 nto=off
 ntrip=0
 occ=
 occri=off
 oniom=off
 oniom_eechg=off
 oniom_pcm=off
 oniom_qcorr=off
 optalg=
 optmaxit=50
 optetol=1e-6
 optex=0
 optgtol=1e-4
 optstol=1e-3
 orblocc=off
 orbloce=off
 orbloco=off
 orblocv=off
 orblocguess=cholesky
 osveps=1e-3
 ovirt=off
 ovltol=1e-7
 ovosnorb=80.0
 pcm=off
 popul=off
 pressure=100000
 pssp=off
 ptfreq=0.0
 ptthreads=2
 qro=off
 qscf=off
 qmmm=off
 redcost_exc=off
 redcost_tddft=off
 refdet=none
 rest=0
 rgrid=log3
 rism=off
 rohfcore=semicanonical
 rohftype=standard
 scfalg=locfit1
 scf_conv=difficult
 scfdamp=0.7d0
 scfdamp_mode=1
 scfdamp_end=3
 scfdamp_dampstep=0.d0
 scfdamp_dtol=0.0d0
 scfdamp_maxfact=0.7d0
 scfdamp_minfact=0.7d0
 scfdiis=on
 scfdiis_dtol=0.0d0
 scfdiis_end=50
 scfdiis_start=2
 scfdiis_step=1
 scfdiis_watch=off
 scfdiis_wrange=10
 scfdiis_wlimit=5
 scfdiis_delmax=2
 scfdtol=6
 scfext=10
 scfguessdens=
 scfiguess=small
 scfloc=pm
 scflshift=0.20
 scflshift_end=8
 scflshift_dtol=0.0
 scflshift_gaptol=0.20
 scfmaxit=50
 scftype=
 scftol=6
 scspe=1.d0
 scsph=1.d0
 scsps=1.2d0
 scsps_t=1.2d0
 scspt=0.33333333333333
 scspt_t=0.33333333333333
 scspv=1.d0
 spairtol=1e-4
 sqmprog=
 subminp=top
 symm=0
 talg=occ
 temp=298.15
 test=off
 theodore=off
 tlmo=0.999
 tpao=0.94
 tprint=off
 uncontract=off
 unit=angs
 usedisk=2
 verbosity=3
 wpairtol=0.100000000E-05
 
 Calculating integrals for small-basis SCF...

 ************************ 2023-10-22 09:54:03 *************************
 Executing integ...

 Allocation of 220.0 Gbytes of memory...
 
 
 Number of atoms:                  6
 Charge:                           0
 Number of electrons:            114
 Number of core electrons:        48
 Spin multiplicity:                1
 
                 Cartesian coordinates [bohr]      Atomic mass [AMU]  Z
   1  Cu   -4.62689209   -0.72361484    1.95591741    62.929599      29
   2  Cu   -1.75702011    1.93211266   -0.05235783    62.929599      29
   3  Cu    2.38145837    0.37075132   -1.01178856    62.929599      29
   4  Cu   -0.61978869   -2.29995772    1.07388699    62.929599      29
   5  Cu    1.20101678    4.46772615   -2.08955814    62.929599      29
   6  Cu    3.42122573   -3.74701758    0.12390014    62.929599      29
 
 This molecule is an asymmetric top.
 
 Point group: C1  
 Computational point group: C1  
 
 Cartesian coordinates in standard orientation [bohr]
   1  Cu   -1.51082585   -4.84507223   -0.00649225
   2  Cu    1.77061027   -1.92034133    0.01219816
   3  Cu    0.77784141    2.49549122   -0.00171828
   4  Cu   -2.54905063   -0.57403595    0.00062618
   5  Cu    4.95274987    1.11333385   -0.00528370
   6  Cu   -3.44132508    3.73062444    0.00066989
 
 Nuclear repulsion energy [au]:        996.031051307792
 
 
 Basis set information:
 
 Maximum angular momentum: i
 Maximum number of contracted Gaussians:   16
 Maximum number of primitive Gaussians:    19
 Spherical harmonic GTOs are used.
 
 
 Conventional basis set:
 
   1  Cu def2-svp [ 14s 9p 5d 1f | 5s 3p 2d 1f ]
   2  Cu def2-svp [ 14s 9p 5d 1f | 5s 3p 2d 1f ]
   3  Cu def2-svp [ 14s 9p 5d 1f | 5s 3p 2d 1f ]
   4  Cu def2-svp [ 14s 9p 5d 1f | 5s 3p 2d 1f ]
   5  Cu def2-svp [ 14s 9p 5d 1f | 5s 3p 2d 1f ]
   6  Cu def2-svp [ 14s 9p 5d 1f | 5s 3p 2d 1f ]
 
 Basis functions:
            1             2             3             4             5             6             7             8             9            10
    0    1Cu1s         1Cu2s         1Cu3s         1Cu4s         1Cu5s         1Cu1pz        1Cu1py        1Cu1px        1Cu2pz        1Cu2py    
    1    1Cu2px        1Cu3pz        1Cu3py        1Cu3px        1Cu1d-2       1Cu1d-1       1Cu1d0        1Cu1d+1       1Cu1d+2       1Cu2d-2   
    2    1Cu2d-1       1Cu2d0        1Cu2d+1       1Cu2d+2       1Cu1f-3       1Cu1f-2       1Cu1f-1       1Cu1f0        1Cu1f+1       1Cu1f+2   
    3    1Cu1f+3       2Cu1s         2Cu2s         2Cu3s         2Cu4s         2Cu5s         2Cu1pz        2Cu1py        2Cu1px        2Cu2pz    
    4    2Cu2py        2Cu2px        2Cu3pz        2Cu3py        2Cu3px        2Cu1d-2       2Cu1d-1       2Cu1d0        2Cu1d+1       2Cu1d+2   
    5    2Cu2d-2       2Cu2d-1       2Cu2d0        2Cu2d+1       2Cu2d+2       2Cu1f-3       2Cu1f-2       2Cu1f-1       2Cu1f0        2Cu1f+1   
    6    2Cu1f+2       2Cu1f+3       3Cu1s         3Cu2s         3Cu3s         3Cu4s         3Cu5s         3Cu1pz        3Cu1py        3Cu1px    
    7    3Cu2pz        3Cu2py        3Cu2px        3Cu3pz        3Cu3py        3Cu3px        3Cu1d-2       3Cu1d-1       3Cu1d0        3Cu1d+1   
    8    3Cu1d+2       3Cu2d-2       3Cu2d-1       3Cu2d0        3Cu2d+1       3Cu2d+2       3Cu1f-3       3Cu1f-2       3Cu1f-1       3Cu1f0    
    9    3Cu1f+1       3Cu1f+2       3Cu1f+3       4Cu1s         4Cu2s         4Cu3s         4Cu4s         4Cu5s         4Cu1pz        4Cu1py    
   10    4Cu1px        4Cu2pz        4Cu2py        4Cu2px        4Cu3pz        4Cu3py        4Cu3px        4Cu1d-2       4Cu1d-1       4Cu1d0    
   11    4Cu1d+1       4Cu1d+2       4Cu2d-2       4Cu2d-1       4Cu2d0        4Cu2d+1       4Cu2d+2       4Cu1f-3       4Cu1f-2       4Cu1f-1   
   12    4Cu1f0        4Cu1f+1       4Cu1f+2       4Cu1f+3       5Cu1s         5Cu2s         5Cu3s         5Cu4s         5Cu5s         5Cu1pz    
   13    5Cu1py        5Cu1px        5Cu2pz        5Cu2py        5Cu2px        5Cu3pz        5Cu3py        5Cu3px        5Cu1d-2       5Cu1d-1   
   14    5Cu1d0        5Cu1d+1       5Cu1d+2       5Cu2d-2       5Cu2d-1       5Cu2d0        5Cu2d+1       5Cu2d+2       5Cu1f-3       5Cu1f-2   
   15    5Cu1f-1       5Cu1f0        5Cu1f+1       5Cu1f+2       5Cu1f+3       6Cu1s         6Cu2s         6Cu3s         6Cu4s         6Cu5s     
   16    6Cu1pz        6Cu1py        6Cu1px        6Cu2pz        6Cu2py        6Cu2px        6Cu3pz        6Cu3py        6Cu3px        6Cu1d-2   
   17    6Cu1d-1       6Cu1d0        6Cu1d+1       6Cu1d+2       6Cu2d-2       6Cu2d-1       6Cu2d0        6Cu2d+1       6Cu2d+2       6Cu1f-3   
   18    6Cu1f-2       6Cu1f-1       6Cu1f0        6Cu1f+1       6Cu1f+2       6Cu1f+3   
 
 Maximum number of basis functions per shell:   10
 Total number of basis functions:    186
 
 
 Fitting basis set for the SCF calculation:
 
   1  Cu def2-qzvpp-ri-jk [ 19s 14p 12d 10f 7g 3h 1i | 16s 13p 11d 9f 5g 3h 1i ]
   2  Cu def2-qzvpp-ri-jk [ 19s 14p 12d 10f 7g 3h 1i | 16s 13p 11d 9f 5g 3h 1i ]
   3  Cu def2-qzvpp-ri-jk [ 19s 14p 12d 10f 7g 3h 1i | 16s 13p 11d 9f 5g 3h 1i ]
   4  Cu def2-qzvpp-ri-jk [ 19s 14p 12d 10f 7g 3h 1i | 16s 13p 11d 9f 5g 3h 1i ]
   5  Cu def2-qzvpp-ri-jk [ 19s 14p 12d 10f 7g 3h 1i | 16s 13p 11d 9f 5g 3h 1i ]
   6  Cu def2-qzvpp-ri-jk [ 19s 14p 12d 10f 7g 3h 1i | 16s 13p 11d 9f 5g 3h 1i ]
 
 Basis functions:
            1             2             3             4             5             6             7             8             9            10
    0    1Cu1s         1Cu2s         1Cu3s         1Cu4s         1Cu5s         1Cu6s         1Cu7s         1Cu8s         1Cu9s         1Cu10s    
    1    1Cu11s        1Cu12s        1Cu13s        1Cu14s        1Cu15s        1Cu16s        1Cu1pz        1Cu1py        1Cu1px        1Cu2pz    
    2    1Cu2py        1Cu2px        1Cu3pz        1Cu3py        1Cu3px        1Cu4pz        1Cu4py        1Cu4px        1Cu5pz        1Cu5py    
    3    1Cu5px        1Cu6pz        1Cu6py        1Cu6px        1Cu7pz        1Cu7py        1Cu7px        1Cu8pz        1Cu8py        1Cu8px    
    4    1Cu9pz        1Cu9py        1Cu9px        1Cu10pz       1Cu10py       1Cu10px       1Cu11pz       1Cu11py       1Cu11px       1Cu12pz   
    5    1Cu12py       1Cu12px       1Cu13pz       1Cu13py       1Cu13px       1Cu1d-2       1Cu1d-1       1Cu1d0        1Cu1d+1       1Cu1d+2   
    6    1Cu2d-2       1Cu2d-1       1Cu2d0        1Cu2d+1       1Cu2d+2       1Cu3d-2       1Cu3d-1       1Cu3d0        1Cu3d+1       1Cu3d+2   
    7    1Cu4d-2       1Cu4d-1       1Cu4d0        1Cu4d+1       1Cu4d+2       1Cu5d-2       1Cu5d-1       1Cu5d0        1Cu5d+1       1Cu5d+2   
    8    1Cu6d-2       1Cu6d-1       1Cu6d0        1Cu6d+1       1Cu6d+2       1Cu7d-2       1Cu7d-1       1Cu7d0        1Cu7d+1       1Cu7d+2   
    9    1Cu8d-2       1Cu8d-1       1Cu8d0        1Cu8d+1       1Cu8d+2       1Cu9d-2       1Cu9d-1       1Cu9d0        1Cu9d+1       1Cu9d+2   
   10    1Cu10d-2      1Cu10d-1      1Cu10d0       1Cu10d+1      1Cu10d+2      1Cu11d-2      1Cu11d-1      1Cu11d0       1Cu11d+1      1Cu11d+2  
   11    1Cu1f-3       1Cu1f-2       1Cu1f-1       1Cu1f0        1Cu1f+1       1Cu1f+2       1Cu1f+3       1Cu2f-3       1Cu2f-2       1Cu2f-1   
   12    1Cu2f0        1Cu2f+1       1Cu2f+2       1Cu2f+3       1Cu3f-3       1Cu3f-2       1Cu3f-1       1Cu3f0        1Cu3f+1       1Cu3f+2   
   13    1Cu3f+3       1Cu4f-3       1Cu4f-2       1Cu4f-1       1Cu4f0        1Cu4f+1       1Cu4f+2       1Cu4f+3       1Cu5f-3       1Cu5f-2   
   14    1Cu5f-1       1Cu5f0        1Cu5f+1       1Cu5f+2       1Cu5f+3       1Cu6f-3       1Cu6f-2       1Cu6f-1       1Cu6f0        1Cu6f+1   
   15    1Cu6f+2       1Cu6f+3       1Cu7f-3       1Cu7f-2       1Cu7f-1       1Cu7f0        1Cu7f+1       1Cu7f+2       1Cu7f+3       1Cu8f-3   
   16    1Cu8f-2       1Cu8f-1       1Cu8f0        1Cu8f+1       1Cu8f+2       1Cu8f+3       1Cu9f-3       1Cu9f-2       1Cu9f-1       1Cu9f0    
   17    1Cu9f+1       1Cu9f+2       1Cu9f+3       1Cu1g-4       1Cu1g-3       1Cu1g-2       1Cu1g-1       1Cu1g0        1Cu1g+1       1Cu1g+2   
   18    1Cu1g+3       1Cu1g+4       1Cu2g-4       1Cu2g-3       1Cu2g-2       1Cu2g-1       1Cu2g0        1Cu2g+1       1Cu2g+2       1Cu2g+3   
   19    1Cu2g+4       1Cu3g-4       1Cu3g-3       1Cu3g-2       1Cu3g-1       1Cu3g0        1Cu3g+1       1Cu3g+2       1Cu3g+3       1Cu3g+4   
   20    1Cu4g-4       1Cu4g-3       1Cu4g-2       1Cu4g-1       1Cu4g0        1Cu4g+1       1Cu4g+2       1Cu4g+3       1Cu4g+4       1Cu5g-4   
   21    1Cu5g-3       1Cu5g-2       1Cu5g-1       1Cu5g0        1Cu5g+1       1Cu5g+2       1Cu5g+3       1Cu5g+4       1Cu1h-5       1Cu1h-4   
   22    1Cu1h-3       1Cu1h-2       1Cu1h-1       1Cu1h0        1Cu1h+1       1Cu1h+2       1Cu1h+3       1Cu1h+4       1Cu1h+5       1Cu2h-5   
   23    1Cu2h-4       1Cu2h-3       1Cu2h-2       1Cu2h-1       1Cu2h0        1Cu2h+1       1Cu2h+2       1Cu2h+3       1Cu2h+4       1Cu2h+5   
   24    1Cu3h-5       1Cu3h-4       1Cu3h-3       1Cu3h-2       1Cu3h-1       1Cu3h0        1Cu3h+1       1Cu3h+2       1Cu3h+3       1Cu3h+4   
   25    1Cu3h+5       1Cu1i-6       1Cu1i-5       1Cu1i-4       1Cu1i-3       1Cu1i-2       1Cu1i-1       1Cu1i0        1Cu1i+1       1Cu1i+2   
   26    1Cu1i+3       1Cu1i+4       1Cu1i+5       1Cu1i+6       2Cu1s         2Cu2s         2Cu3s         2Cu4s         2Cu5s         2Cu6s     
   27    2Cu7s         2Cu8s         2Cu9s         2Cu10s        2Cu11s        2Cu12s        2Cu13s        2Cu14s        2Cu15s        2Cu16s    
   28    2Cu1pz        2Cu1py        2Cu1px        2Cu2pz        2Cu2py        2Cu2px        2Cu3pz        2Cu3py        2Cu3px        2Cu4pz    
   29    2Cu4py        2Cu4px        2Cu5pz        2Cu5py        2Cu5px        2Cu6pz        2Cu6py        2Cu6px        2Cu7pz        2Cu7py    
   30    2Cu7px        2Cu8pz        2Cu8py        2Cu8px        2Cu9pz        2Cu9py        2Cu9px        2Cu10pz       2Cu10py       2Cu10px   
   31    2Cu11pz       2Cu11py       2Cu11px       2Cu12pz       2Cu12py       2Cu12px       2Cu13pz       2Cu13py       2Cu13px       2Cu1d-2   
   32    2Cu1d-1       2Cu1d0        2Cu1d+1       2Cu1d+2       2Cu2d-2       2Cu2d-1       2Cu2d0        2Cu2d+1       2Cu2d+2       2Cu3d-2   
   33    2Cu3d-1       2Cu3d0        2Cu3d+1       2Cu3d+2       2Cu4d-2       2Cu4d-1       2Cu4d0        2Cu4d+1       2Cu4d+2       2Cu5d-2   
   34    2Cu5d-1       2Cu5d0        2Cu5d+1       2Cu5d+2       2Cu6d-2       2Cu6d-1       2Cu6d0        2Cu6d+1       2Cu6d+2       2Cu7d-2   
   35    2Cu7d-1       2Cu7d0        2Cu7d+1       2Cu7d+2       2Cu8d-2       2Cu8d-1       2Cu8d0        2Cu8d+1       2Cu8d+2       2Cu9d-2   
   36    2Cu9d-1       2Cu9d0        2Cu9d+1       2Cu9d+2       2Cu10d-2      2Cu10d-1      2Cu10d0       2Cu10d+1      2Cu10d+2      2Cu11d-2  
   37    2Cu11d-1      2Cu11d0       2Cu11d+1      2Cu11d+2      2Cu1f-3       2Cu1f-2       2Cu1f-1       2Cu1f0        2Cu1f+1       2Cu1f+2   
   38    2Cu1f+3       2Cu2f-3       2Cu2f-2       2Cu2f-1       2Cu2f0        2Cu2f+1       2Cu2f+2       2Cu2f+3       2Cu3f-3       2Cu3f-2   
   39    2Cu3f-1       2Cu3f0        2Cu3f+1       2Cu3f+2       2Cu3f+3       2Cu4f-3       2Cu4f-2       2Cu4f-1       2Cu4f0        2Cu4f+1   
   40    2Cu4f+2       2Cu4f+3       2Cu5f-3       2Cu5f-2       2Cu5f-1       2Cu5f0        2Cu5f+1       2Cu5f+2       2Cu5f+3       2Cu6f-3   
   41    2Cu6f-2       2Cu6f-1       2Cu6f0        2Cu6f+1       2Cu6f+2       2Cu6f+3       2Cu7f-3       2Cu7f-2       2Cu7f-1       2Cu7f0    
   42    2Cu7f+1       2Cu7f+2       2Cu7f+3       2Cu8f-3       2Cu8f-2       2Cu8f-1       2Cu8f0        2Cu8f+1       2Cu8f+2       2Cu8f+3   
   43    2Cu9f-3       2Cu9f-2       2Cu9f-1       2Cu9f0        2Cu9f+1       2Cu9f+2       2Cu9f+3       2Cu1g-4       2Cu1g-3       2Cu1g-2   
   44    2Cu1g-1       2Cu1g0        2Cu1g+1       2Cu1g+2       2Cu1g+3       2Cu1g+4       2Cu2g-4       2Cu2g-3       2Cu2g-2       2Cu2g-1   
   45    2Cu2g0        2Cu2g+1       2Cu2g+2       2Cu2g+3       2Cu2g+4       2Cu3g-4       2Cu3g-3       2Cu3g-2       2Cu3g-1       2Cu3g0    
   46    2Cu3g+1       2Cu3g+2       2Cu3g+3       2Cu3g+4       2Cu4g-4       2Cu4g-3       2Cu4g-2       2Cu4g-1       2Cu4g0        2Cu4g+1   
   47    2Cu4g+2       2Cu4g+3       2Cu4g+4       2Cu5g-4       2Cu5g-3       2Cu5g-2       2Cu5g-1       2Cu5g0        2Cu5g+1       2Cu5g+2   
   48    2Cu5g+3       2Cu5g+4       2Cu1h-5       2Cu1h-4       2Cu1h-3       2Cu1h-2       2Cu1h-1       2Cu1h0        2Cu1h+1       2Cu1h+2   
   49    2Cu1h+3       2Cu1h+4       2Cu1h+5       2Cu2h-5       2Cu2h-4       2Cu2h-3       2Cu2h-2       2Cu2h-1       2Cu2h0        2Cu2h+1   
   50    2Cu2h+2       2Cu2h+3       2Cu2h+4       2Cu2h+5       2Cu3h-5       2Cu3h-4       2Cu3h-3       2Cu3h-2       2Cu3h-1       2Cu3h0    
   51    2Cu3h+1       2Cu3h+2       2Cu3h+3       2Cu3h+4       2Cu3h+5       2Cu1i-6       2Cu1i-5       2Cu1i-4       2Cu1i-3       2Cu1i-2   
   52    2Cu1i-1       2Cu1i0        2Cu1i+1       2Cu1i+2       2Cu1i+3       2Cu1i+4       2Cu1i+5       2Cu1i+6       3Cu1s         3Cu2s     
   53    3Cu3s         3Cu4s         3Cu5s         3Cu6s         3Cu7s         3Cu8s         3Cu9s         3Cu10s        3Cu11s        3Cu12s    
   54    3Cu13s        3Cu14s        3Cu15s        3Cu16s        3Cu1pz        3Cu1py        3Cu1px        3Cu2pz        3Cu2py        3Cu2px    
   55    3Cu3pz        3Cu3py        3Cu3px        3Cu4pz        3Cu4py        3Cu4px        3Cu5pz        3Cu5py        3Cu5px        3Cu6pz    
   56    3Cu6py        3Cu6px        3Cu7pz        3Cu7py        3Cu7px        3Cu8pz        3Cu8py        3Cu8px        3Cu9pz        3Cu9py    
   57    3Cu9px        3Cu10pz       3Cu10py       3Cu10px       3Cu11pz       3Cu11py       3Cu11px       3Cu12pz       3Cu12py       3Cu12px   
   58    3Cu13pz       3Cu13py       3Cu13px       3Cu1d-2       3Cu1d-1       3Cu1d0        3Cu1d+1       3Cu1d+2       3Cu2d-2       3Cu2d-1   
   59    3Cu2d0        3Cu2d+1       3Cu2d+2       3Cu3d-2       3Cu3d-1       3Cu3d0        3Cu3d+1       3Cu3d+2       3Cu4d-2       3Cu4d-1   
   60    3Cu4d0        3Cu4d+1       3Cu4d+2       3Cu5d-2       3Cu5d-1       3Cu5d0        3Cu5d+1       3Cu5d+2       3Cu6d-2       3Cu6d-1   
   61    3Cu6d0        3Cu6d+1       3Cu6d+2       3Cu7d-2       3Cu7d-1       3Cu7d0        3Cu7d+1       3Cu7d+2       3Cu8d-2       3Cu8d-1   
   62    3Cu8d0        3Cu8d+1       3Cu8d+2       3Cu9d-2       3Cu9d-1       3Cu9d0        3Cu9d+1       3Cu9d+2       3Cu10d-2      3Cu10d-1  
   63    3Cu10d0       3Cu10d+1      3Cu10d+2      3Cu11d-2      3Cu11d-1      3Cu11d0       3Cu11d+1      3Cu11d+2      3Cu1f-3       3Cu1f-2   
   64    3Cu1f-1       3Cu1f0        3Cu1f+1       3Cu1f+2       3Cu1f+3       3Cu2f-3       3Cu2f-2       3Cu2f-1       3Cu2f0        3Cu2f+1   
   65    3Cu2f+2       3Cu2f+3       3Cu3f-3       3Cu3f-2       3Cu3f-1       3Cu3f0        3Cu3f+1       3Cu3f+2       3Cu3f+3       3Cu4f-3   
   66    3Cu4f-2       3Cu4f-1       3Cu4f0        3Cu4f+1       3Cu4f+2       3Cu4f+3       3Cu5f-3       3Cu5f-2       3Cu5f-1       3Cu5f0    
   67    3Cu5f+1       3Cu5f+2       3Cu5f+3       3Cu6f-3       3Cu6f-2       3Cu6f-1       3Cu6f0        3Cu6f+1       3Cu6f+2       3Cu6f+3   
   68    3Cu7f-3       3Cu7f-2       3Cu7f-1       3Cu7f0        3Cu7f+1       3Cu7f+2       3Cu7f+3       3Cu8f-3       3Cu8f-2       3Cu8f-1   
   69    3Cu8f0        3Cu8f+1       3Cu8f+2       3Cu8f+3       3Cu9f-3       3Cu9f-2       3Cu9f-1       3Cu9f0        3Cu9f+1       3Cu9f+2   
   70    3Cu9f+3       3Cu1g-4       3Cu1g-3       3Cu1g-2       3Cu1g-1       3Cu1g0        3Cu1g+1       3Cu1g+2       3Cu1g+3       3Cu1g+4   
   71    3Cu2g-4       3Cu2g-3       3Cu2g-2       3Cu2g-1       3Cu2g0        3Cu2g+1       3Cu2g+2       3Cu2g+3       3Cu2g+4       3Cu3g-4   
   72    3Cu3g-3       3Cu3g-2       3Cu3g-1       3Cu3g0        3Cu3g+1       3Cu3g+2       3Cu3g+3       3Cu3g+4       3Cu4g-4       3Cu4g-3   
   73    3Cu4g-2       3Cu4g-1       3Cu4g0        3Cu4g+1       3Cu4g+2       3Cu4g+3       3Cu4g+4       3Cu5g-4       3Cu5g-3       3Cu5g-2   
   74    3Cu5g-1       3Cu5g0        3Cu5g+1       3Cu5g+2       3Cu5g+3       3Cu5g+4       3Cu1h-5       3Cu1h-4       3Cu1h-3       3Cu1h-2   
   75    3Cu1h-1       3Cu1h0        3Cu1h+1       3Cu1h+2       3Cu1h+3       3Cu1h+4       3Cu1h+5       3Cu2h-5       3Cu2h-4       3Cu2h-3   
   76    3Cu2h-2       3Cu2h-1       3Cu2h0        3Cu2h+1       3Cu2h+2       3Cu2h+3       3Cu2h+4       3Cu2h+5       3Cu3h-5       3Cu3h-4   
   77    3Cu3h-3       3Cu3h-2       3Cu3h-1       3Cu3h0        3Cu3h+1       3Cu3h+2       3Cu3h+3       3Cu3h+4       3Cu3h+5       3Cu1i-6   
   78    3Cu1i-5       3Cu1i-4       3Cu1i-3       3Cu1i-2       3Cu1i-1       3Cu1i0        3Cu1i+1       3Cu1i+2       3Cu1i+3       3Cu1i+4   
   79    3Cu1i+5       3Cu1i+6       4Cu1s         4Cu2s         4Cu3s         4Cu4s         4Cu5s         4Cu6s         4Cu7s         4Cu8s     
   80    4Cu9s         4Cu10s        4Cu11s        4Cu12s        4Cu13s        4Cu14s        4Cu15s        4Cu16s        4Cu1pz        4Cu1py    
   81    4Cu1px        4Cu2pz        4Cu2py        4Cu2px        4Cu3pz        4Cu3py        4Cu3px        4Cu4pz        4Cu4py        4Cu4px    
   82    4Cu5pz        4Cu5py        4Cu5px        4Cu6pz        4Cu6py        4Cu6px        4Cu7pz        4Cu7py        4Cu7px        4Cu8pz    
   83    4Cu8py        4Cu8px        4Cu9pz        4Cu9py        4Cu9px        4Cu10pz       4Cu10py       4Cu10px       4Cu11pz       4Cu11py   
   84    4Cu11px       4Cu12pz       4Cu12py       4Cu12px       4Cu13pz       4Cu13py       4Cu13px       4Cu1d-2       4Cu1d-1       4Cu1d0    
   85    4Cu1d+1       4Cu1d+2       4Cu2d-2       4Cu2d-1       4Cu2d0        4Cu2d+1       4Cu2d+2       4Cu3d-2       4Cu3d-1       4Cu3d0    
   86    4Cu3d+1       4Cu3d+2       4Cu4d-2       4Cu4d-1       4Cu4d0        4Cu4d+1       4Cu4d+2       4Cu5d-2       4Cu5d-1       4Cu5d0    
   87    4Cu5d+1       4Cu5d+2       4Cu6d-2       4Cu6d-1       4Cu6d0        4Cu6d+1       4Cu6d+2       4Cu7d-2       4Cu7d-1       4Cu7d0    
   88    4Cu7d+1       4Cu7d+2       4Cu8d-2       4Cu8d-1       4Cu8d0        4Cu8d+1       4Cu8d+2       4Cu9d-2       4Cu9d-1       4Cu9d0    
   89    4Cu9d+1       4Cu9d+2       4Cu10d-2      4Cu10d-1      4Cu10d0       4Cu10d+1      4Cu10d+2      4Cu11d-2      4Cu11d-1      4Cu11d0   
   90    4Cu11d+1      4Cu11d+2      4Cu1f-3       4Cu1f-2       4Cu1f-1       4Cu1f0        4Cu1f+1       4Cu1f+2       4Cu1f+3       4Cu2f-3   
   91    4Cu2f-2       4Cu2f-1       4Cu2f0        4Cu2f+1       4Cu2f+2       4Cu2f+3       4Cu3f-3       4Cu3f-2       4Cu3f-1       4Cu3f0    
   92    4Cu3f+1       4Cu3f+2       4Cu3f+3       4Cu4f-3       4Cu4f-2       4Cu4f-1       4Cu4f0        4Cu4f+1       4Cu4f+2       4Cu4f+3   
   93    4Cu5f-3       4Cu5f-2       4Cu5f-1       4Cu5f0        4Cu5f+1       4Cu5f+2       4Cu5f+3       4Cu6f-3       4Cu6f-2       4Cu6f-1   
   94    4Cu6f0        4Cu6f+1       4Cu6f+2       4Cu6f+3       4Cu7f-3       4Cu7f-2       4Cu7f-1       4Cu7f0        4Cu7f+1       4Cu7f+2   
   95    4Cu7f+3       4Cu8f-3       4Cu8f-2       4Cu8f-1       4Cu8f0        4Cu8f+1       4Cu8f+2       4Cu8f+3       4Cu9f-3       4Cu9f-2   
   96    4Cu9f-1       4Cu9f0        4Cu9f+1       4Cu9f+2       4Cu9f+3       4Cu1g-4       4Cu1g-3       4Cu1g-2       4Cu1g-1       4Cu1g0    
   97    4Cu1g+1       4Cu1g+2       4Cu1g+3       4Cu1g+4       4Cu2g-4       4Cu2g-3       4Cu2g-2       4Cu2g-1       4Cu2g0        4Cu2g+1   
   98    4Cu2g+2       4Cu2g+3       4Cu2g+4       4Cu3g-4       4Cu3g-3       4Cu3g-2       4Cu3g-1       4Cu3g0        4Cu3g+1       4Cu3g+2   
   99    4Cu3g+3       4Cu3g+4       4Cu4g-4       4Cu4g-3       4Cu4g-2       4Cu4g-1       4Cu4g0        4Cu4g+1       4Cu4g+2       4Cu4g+3   
  100    4Cu4g+4       4Cu5g-4       4Cu5g-3       4Cu5g-2       4Cu5g-1       4Cu5g0        4Cu5g+1       4Cu5g+2       4Cu5g+3       4Cu5g+4   
  101    4Cu1h-5       4Cu1h-4       4Cu1h-3       4Cu1h-2       4Cu1h-1       4Cu1h0        4Cu1h+1       4Cu1h+2       4Cu1h+3       4Cu1h+4   
  102    4Cu1h+5       4Cu2h-5       4Cu2h-4       4Cu2h-3       4Cu2h-2       4Cu2h-1       4Cu2h0        4Cu2h+1       4Cu2h+2       4Cu2h+3   
  103    4Cu2h+4       4Cu2h+5       4Cu3h-5       4Cu3h-4       4Cu3h-3       4Cu3h-2       4Cu3h-1       4Cu3h0        4Cu3h+1       4Cu3h+2   
  104    4Cu3h+3       4Cu3h+4       4Cu3h+5       4Cu1i-6       4Cu1i-5       4Cu1i-4       4Cu1i-3       4Cu1i-2       4Cu1i-1       4Cu1i0    
  105    4Cu1i+1       4Cu1i+2       4Cu1i+3       4Cu1i+4       4Cu1i+5       4Cu1i+6       5Cu1s         5Cu2s         5Cu3s         5Cu4s     
  106    5Cu5s         5Cu6s         5Cu7s         5Cu8s         5Cu9s         5Cu10s        5Cu11s        5Cu12s        5Cu13s        5Cu14s    
  107    5Cu15s        5Cu16s        5Cu1pz        5Cu1py        5Cu1px        5Cu2pz        5Cu2py        5Cu2px        5Cu3pz        5Cu3py    
  108    5Cu3px        5Cu4pz        5Cu4py        5Cu4px        5Cu5pz        5Cu5py        5Cu5px        5Cu6pz        5Cu6py        5Cu6px    
  109    5Cu7pz        5Cu7py        5Cu7px        5Cu8pz        5Cu8py        5Cu8px        5Cu9pz        5Cu9py        5Cu9px        5Cu10pz   
  110    5Cu10py       5Cu10px       5Cu11pz       5Cu11py       5Cu11px       5Cu12pz       5Cu12py       5Cu12px       5Cu13pz       5Cu13py   
  111    5Cu13px       5Cu1d-2       5Cu1d-1       5Cu1d0        5Cu1d+1       5Cu1d+2       5Cu2d-2       5Cu2d-1       5Cu2d0        5Cu2d+1   
  112    5Cu2d+2       5Cu3d-2       5Cu3d-1       5Cu3d0        5Cu3d+1       5Cu3d+2       5Cu4d-2       5Cu4d-1       5Cu4d0        5Cu4d+1   
  113    5Cu4d+2       5Cu5d-2       5Cu5d-1       5Cu5d0        5Cu5d+1       5Cu5d+2       5Cu6d-2       5Cu6d-1       5Cu6d0        5Cu6d+1   
  114    5Cu6d+2       5Cu7d-2       5Cu7d-1       5Cu7d0        5Cu7d+1       5Cu7d+2       5Cu8d-2       5Cu8d-1       5Cu8d0        5Cu8d+1   
  115    5Cu8d+2       5Cu9d-2       5Cu9d-1       5Cu9d0        5Cu9d+1       5Cu9d+2       5Cu10d-2      5Cu10d-1      5Cu10d0       5Cu10d+1  
  116    5Cu10d+2      5Cu11d-2      5Cu11d-1      5Cu11d0       5Cu11d+1      5Cu11d+2      5Cu1f-3       5Cu1f-2       5Cu1f-1       5Cu1f0    
  117    5Cu1f+1       5Cu1f+2       5Cu1f+3       5Cu2f-3       5Cu2f-2       5Cu2f-1       5Cu2f0        5Cu2f+1       5Cu2f+2       5Cu2f+3   
  118    5Cu3f-3       5Cu3f-2       5Cu3f-1       5Cu3f0        5Cu3f+1       5Cu3f+2       5Cu3f+3       5Cu4f-3       5Cu4f-2       5Cu4f-1   
  119    5Cu4f0        5Cu4f+1       5Cu4f+2       5Cu4f+3       5Cu5f-3       5Cu5f-2       5Cu5f-1       5Cu5f0        5Cu5f+1       5Cu5f+2   
  120    5Cu5f+3       5Cu6f-3       5Cu6f-2       5Cu6f-1       5Cu6f0        5Cu6f+1       5Cu6f+2       5Cu6f+3       5Cu7f-3       5Cu7f-2   
  121    5Cu7f-1       5Cu7f0        5Cu7f+1       5Cu7f+2       5Cu7f+3       5Cu8f-3       5Cu8f-2       5Cu8f-1       5Cu8f0        5Cu8f+1   
  122    5Cu8f+2       5Cu8f+3       5Cu9f-3       5Cu9f-2       5Cu9f-1       5Cu9f0        5Cu9f+1       5Cu9f+2       5Cu9f+3       5Cu1g-4   
  123    5Cu1g-3       5Cu1g-2       5Cu1g-1       5Cu1g0        5Cu1g+1       5Cu1g+2       5Cu1g+3       5Cu1g+4       5Cu2g-4       5Cu2g-3   
  124    5Cu2g-2       5Cu2g-1       5Cu2g0        5Cu2g+1       5Cu2g+2       5Cu2g+3       5Cu2g+4       5Cu3g-4       5Cu3g-3       5Cu3g-2   
  125    5Cu3g-1       5Cu3g0        5Cu3g+1       5Cu3g+2       5Cu3g+3       5Cu3g+4       5Cu4g-4       5Cu4g-3       5Cu4g-2       5Cu4g-1   
  126    5Cu4g0        5Cu4g+1       5Cu4g+2       5Cu4g+3       5Cu4g+4       5Cu5g-4       5Cu5g-3       5Cu5g-2       5Cu5g-1       5Cu5g0    
  127    5Cu5g+1       5Cu5g+2       5Cu5g+3       5Cu5g+4       5Cu1h-5       5Cu1h-4       5Cu1h-3       5Cu1h-2       5Cu1h-1       5Cu1h0    
  128    5Cu1h+1       5Cu1h+2       5Cu1h+3       5Cu1h+4       5Cu1h+5       5Cu2h-5       5Cu2h-4       5Cu2h-3       5Cu2h-2       5Cu2h-1   
  129    5Cu2h0        5Cu2h+1       5Cu2h+2       5Cu2h+3       5Cu2h+4       5Cu2h+5       5Cu3h-5       5Cu3h-4       5Cu3h-3       5Cu3h-2   
  130    5Cu3h-1       5Cu3h0        5Cu3h+1       5Cu3h+2       5Cu3h+3       5Cu3h+4       5Cu3h+5       5Cu1i-6       5Cu1i-5       5Cu1i-4   
  131    5Cu1i-3       5Cu1i-2       5Cu1i-1       5Cu1i0        5Cu1i+1       5Cu1i+2       5Cu1i+3       5Cu1i+4       5Cu1i+5       5Cu1i+6   
  132    6Cu1s         6Cu2s         6Cu3s         6Cu4s         6Cu5s         6Cu6s         6Cu7s         6Cu8s         6Cu9s         6Cu10s    
  133    6Cu11s        6Cu12s        6Cu13s        6Cu14s        6Cu15s        6Cu16s        6Cu1pz        6Cu1py        6Cu1px        6Cu2pz    
  134    6Cu2py        6Cu2px        6Cu3pz        6Cu3py        6Cu3px        6Cu4pz        6Cu4py        6Cu4px        6Cu5pz        6Cu5py    
  135    6Cu5px        6Cu6pz        6Cu6py        6Cu6px        6Cu7pz        6Cu7py        6Cu7px        6Cu8pz        6Cu8py        6Cu8px    
  136    6Cu9pz        6Cu9py        6Cu9px        6Cu10pz       6Cu10py       6Cu10px       6Cu11pz       6Cu11py       6Cu11px       6Cu12pz   
  137    6Cu12py       6Cu12px       6Cu13pz       6Cu13py       6Cu13px       6Cu1d-2       6Cu1d-1       6Cu1d0        6Cu1d+1       6Cu1d+2   
  138    6Cu2d-2       6Cu2d-1       6Cu2d0        6Cu2d+1       6Cu2d+2       6Cu3d-2       6Cu3d-1       6Cu3d0        6Cu3d+1       6Cu3d+2   
  139    6Cu4d-2       6Cu4d-1       6Cu4d0        6Cu4d+1       6Cu4d+2       6Cu5d-2       6Cu5d-1       6Cu5d0        6Cu5d+1       6Cu5d+2   
  140    6Cu6d-2       6Cu6d-1       6Cu6d0        6Cu6d+1       6Cu6d+2       6Cu7d-2       6Cu7d-1       6Cu7d0        6Cu7d+1       6Cu7d+2   
  141    6Cu8d-2       6Cu8d-1       6Cu8d0        6Cu8d+1       6Cu8d+2       6Cu9d-2       6Cu9d-1       6Cu9d0        6Cu9d+1       6Cu9d+2   
  142    6Cu10d-2      6Cu10d-1      6Cu10d0       6Cu10d+1      6Cu10d+2      6Cu11d-2      6Cu11d-1      6Cu11d0       6Cu11d+1      6Cu11d+2  
  143    6Cu1f-3       6Cu1f-2       6Cu1f-1       6Cu1f0        6Cu1f+1       6Cu1f+2       6Cu1f+3       6Cu2f-3       6Cu2f-2       6Cu2f-1   
  144    6Cu2f0        6Cu2f+1       6Cu2f+2       6Cu2f+3       6Cu3f-3       6Cu3f-2       6Cu3f-1       6Cu3f0        6Cu3f+1       6Cu3f+2   
  145    6Cu3f+3       6Cu4f-3       6Cu4f-2       6Cu4f-1       6Cu4f0        6Cu4f+1       6Cu4f+2       6Cu4f+3       6Cu5f-3       6Cu5f-2   
  146    6Cu5f-1       6Cu5f0        6Cu5f+1       6Cu5f+2       6Cu5f+3       6Cu6f-3       6Cu6f-2       6Cu6f-1       6Cu6f0        6Cu6f+1   
  147    6Cu6f+2       6Cu6f+3       6Cu7f-3       6Cu7f-2       6Cu7f-1       6Cu7f0        6Cu7f+1       6Cu7f+2       6Cu7f+3       6Cu8f-3   
  148    6Cu8f-2       6Cu8f-1       6Cu8f0        6Cu8f+1       6Cu8f+2       6Cu8f+3       6Cu9f-3       6Cu9f-2       6Cu9f-1       6Cu9f0    
  149    6Cu9f+1       6Cu9f+2       6Cu9f+3       6Cu1g-4       6Cu1g-3       6Cu1g-2       6Cu1g-1       6Cu1g0        6Cu1g+1       6Cu1g+2   
  150    6Cu1g+3       6Cu1g+4       6Cu2g-4       6Cu2g-3       6Cu2g-2       6Cu2g-1       6Cu2g0        6Cu2g+1       6Cu2g+2       6Cu2g+3   
  151    6Cu2g+4       6Cu3g-4       6Cu3g-3       6Cu3g-2       6Cu3g-1       6Cu3g0        6Cu3g+1       6Cu3g+2       6Cu3g+3       6Cu3g+4   
  152    6Cu4g-4       6Cu4g-3       6Cu4g-2       6Cu4g-1       6Cu4g0        6Cu4g+1       6Cu4g+2       6Cu4g+3       6Cu4g+4       6Cu5g-4   
  153    6Cu5g-3       6Cu5g-2       6Cu5g-1       6Cu5g0        6Cu5g+1       6Cu5g+2       6Cu5g+3       6Cu5g+4       6Cu1h-5       6Cu1h-4   
  154    6Cu1h-3       6Cu1h-2       6Cu1h-1       6Cu1h0        6Cu1h+1       6Cu1h+2       6Cu1h+3       6Cu1h+4       6Cu1h+5       6Cu2h-5   
  155    6Cu2h-4       6Cu2h-3       6Cu2h-2       6Cu2h-1       6Cu2h0        6Cu2h+1       6Cu2h+2       6Cu2h+3       6Cu2h+4       6Cu2h+5   
  156    6Cu3h-5       6Cu3h-4       6Cu3h-3       6Cu3h-2       6Cu3h-1       6Cu3h0        6Cu3h+1       6Cu3h+2       6Cu3h+3       6Cu3h+4   
  157    6Cu3h+5       6Cu1i-6       6Cu1i-5       6Cu1i-4       6Cu1i-3       6Cu1i-2       6Cu1i-1       6Cu1i0        6Cu1i+1       6Cu1i+2   
  158    6Cu1i+3       6Cu1i+4       6Cu1i+5       6Cu1i+6   
 
 Maximum number of basis functions per shell:   63
 Total number of basis functions:   1584
 
 
 Effective core potentials:
 
   1  Cu mcdhf-ecp-10        
   2  Cu mcdhf-ecp-10        
   3  Cu mcdhf-ecp-10        
   4  Cu mcdhf-ecp-10        
   5  Cu mcdhf-ecp-10        
   6  Cu mcdhf-ecp-10        
 
 Initializing the SAD routines for the initial guess...
 Checking the files required for the initial guess...
 Density files have not been found for the initial guess.
 Generating SCFDENSITIES.Cu.def2-svp.0
 CPU time [min]:     0.118                   Wall time [min]:     0.183
 
 Character table for point group C1:
 
          E  
    A     1
 
 Number of basis functions per irrep:
    A     186
 
 
 Density functional: PBE hybrid functional (PBE0)
 Constructing integration grid for DFT...
 Angular integration grid: adaptive 590-point Lebedev quadrature
 Radial integration grid: Log3 quadrature
 Total number of grid points: 120588      
 CPU time [min]:     1.269                   Wall time [min]:     0.216
 
 Calculation of overlap integrals...
 CPU time [min]:     1.273                   Wall time [min]:     0.216
 
 Calculation of the square root of the overlap matrix...
 Minimum eigenvalue of the overlap matrix: 0.274756E-01
 CPU time [min]:     1.323                   Wall time [min]:     0.219
 
 Calculation of kinetic energy integrals...
 CPU time [min]:     1.324                   Wall time [min]:     0.219
 Calculation of dipole moment integrals...
 CPU time [min]:     1.326                   Wall time [min]:     0.219
 Calculation of nuclear attraction integrals...
 CPU time [min]:     1.329                   Wall time [min]:     0.219
 Calculation of core potential integrals...
 CPU time [min]:     1.492                   Wall time [min]:     0.272
 
 Calculation of prescreening integrals...
 CPU time [min]:     2.169                   Wall time [min]:     0.291
 
 Calculation of two-center Coulomb integrals...
   1% done.
  12% done.
  24% done.
  37% done.
  49% done.
  60% done.
  71% done.
  82% done.
  94% done.
 100% done.
 CPU time [min]:     2.300                   Wall time [min]:     0.295
 
 Cholesky decomposition of the two-center matrix...
 Reciprocal of the condition number:  0.252459E-05
 CPU time [min]:     2.395                   Wall time [min]:     0.298
 
 
 Running small-basis SCF...

 ************************ 2023-10-22 09:54:21 *************************
 Executing scf...

 @scfsetup: integrals calculated directly
            mrcc/integ direct run
 @scfsetup: calculating on full matrices
            not using symmetry adapted basis
 @scfsetup: diis switched on
 @scfsetup: number of steps to extrapolate from  10
 @scfsetup: tolerance in energy deviation    0.100000E-05
            tolerance in density deviation    0.100000E-05
 @scfsetup: maximum number of iterations:  50
 @scfsetup: restricted closed shell hf calc
 @scfsetup: starting scf from superposition of atomic densities
 @scfsetup: occupation set:
            from initial orbitals
 @scfsetup: Parameter-set for SCF acceleration: difficult
 @scfsetup: diis runs from iteration:   2
 @scfsetup: diis runs to iteration:  50
 @scfsetup: diis runs in every iteration
 @scfsetup: diiswatch is disabled                   
 @scfsetup: diis dtol criteria to switch on:      0.0000E+00
           (or the iteration number below is reached)
 @scfsetup: static damping scheme
            iteration step criteria to turn damping off: 3
 @scfsetup: dynamic level shifting
            tolarance in HOMO-LUMO gap:  0.200
            tolarance in density deviation:     0.0000E+00
            iteration step criteria to turn level shifting off: 8
 Allocation of 220.0 Gbytes of memory...
 ======================================================================
 ITERATION STEP   1
 CPU time [min]:     0.046                   Wall time [min]:     0.005
 

 SCF control                  : initial
 Damping factor/level shift   : 0.700/0.200
 DIIS [start/end/frequency]   :   2 / 50 /  1

 Constructing Fock-matrix...
 
 Pipek-Mezey localization...
 Step  Convergence
   1   8.986952539342
   2   3.599110240444
   3   0.040625392391
   4   0.000018591235
   5   0.000000003159
 CPU time [min]:     0.079                   Wall time [min]:     0.007
 
 Constructing local fitting domains...
 Maximum number of atoms in fitting domains:    6
 Average number of atoms in fitting domains:    6.0
 
 First step of Coulomb + first step of exchange...
 Exchange contribution is evaluated for MOs 1 to 57.
   1% done.
  13% done.
  25% done.
  40% done.
  55% done.
  70% done.
  83% done.
 100% done.
 CPU time [min]:     0.733                   Wall time [min]:     0.026
 
 Fitting and assembly step of exchange...
 CPU time [min]:     0.769                   Wall time [min]:     0.028
 
 Second step of Coulomb...
   1% done.
  13% done.
  25% done.
  40% done.
  55% done.
  70% done.
  83% done.
 100% done.
 CPU time [min]:     0.857                   Wall time [min]:     0.030
 
 Calculating the exchange-correlation matrix...
                  0.7500*PBEX [au]:    -92.114307450403
                  1.0000*PBEC [au]:     -5.699367102059
 Exchange-correlation energy  [au]:    -97.813674552463
 CPU time [min]:     1.379                   Wall time [min]:     0.059
 
 Coulomb energy + HF exchange [au]:   2152.248046898651
 Gradient norm:      4.5460E+00
 RMS of [F,P]:                                         0.06135521352064
 RMS of difference density:                            0.02045955003096
 Gap [au]:  0.00315110
 ALPHA OCC:  57
 BETA  OCC:  57
 
 ***KOHN-SHAM ENERGY IN STEP   1 IS         -1158.9454653856064397 [AU]
 ======================================================================
 ITERATION STEP   2
 CPU time [min]:     1.407                   Wall time [min]:     0.060
 

 SCF control                  : diis+damping
 Damping factor/level shift   : 0.700/0.200
 DIIS [start/end/frequency]   :   2 / 50 /  1

 Constructing Fock-matrix...
 
 Pipek-Mezey localization...
 Step  Convergence
   1  18.149397901549
   2   4.810234671773
   3   0.172844919263
   4   0.006419448282
   5   0.000009947423
   6   0.000000201920
 CPU time [min]:     1.442                   Wall time [min]:     0.061
 
 Constructing local fitting domains...
 Maximum number of atoms in fitting domains:    6
 Average number of atoms in fitting domains:    6.0
 
 First step of Coulomb + first step of exchange...
 Exchange contribution is evaluated for MOs 1 to 57.
   1% done.
  13% done.
  25% done.
  40% done.
  55% done.
  70% done.
  83% done.
 100% done.
 CPU time [min]:     1.742                   Wall time [min]:     0.069
 
 Fitting and assembly step of exchange...
 CPU time [min]:     1.774                   Wall time [min]:     0.070
 
 Second step of Coulomb...
   1% done.
  13% done.
  25% done.
  40% done.
  55% done.
  70% done.
  83% done.
 100% done.
 CPU time [min]:     1.855                   Wall time [min]:     0.072
 
 Calculating the exchange-correlation matrix...
                  0.7500*PBEX [au]:    -88.855369490309
                  1.0000*PBEC [au]:     -5.574545024031
 Exchange-correlation energy  [au]:    -94.429914514341
 CPU time [min]:     2.324                   Wall time [min]:     0.098
 
 Coulomb energy + HF exchange [au]:   2108.720953215069
 Gradient norm:      7.4819E-01
 DIIS is running in this iteration step.
 RMS of [F,P]:                                         0.04790903696414
 RMS of difference density:                            0.03707501408354
 Gap [au]:  0.00006473
 ALPHA OCC:  57
 BETA  OCC:  57
 
 ***KOHN-SHAM ENERGY IN STEP   2 IS         -1164.5805372044355863 [AU]
 
 Step comparison  Energy Drift [au]  DIIS error drift  Gradient drift
        1            5.6351E+00         1.3446E-02       3.7978E+00
        2            1.1646E+03         1.0000E-06       3.7978E+00
 ======================================================================
 ITERATION STEP   3
 CPU time [min]:     2.339                   Wall time [min]:     0.098
 

 SCF control                  : diis+damping
 Damping factor/level shift   : 0.700/0.200
 DIIS [start/end/frequency]   :   2 / 50 /  1

 Constructing Fock-matrix...
 
 Pipek-Mezey localization...
 Step  Convergence
   1  13.591963901410
   2   5.882786020706
   3   2.378917680520
   4   0.314985033997
   5   0.002569577399
   6   0.000991766555
   7   0.001746109129
   8   0.001483939971
   9   0.000000845873
 CPU time [min]:     2.370                   Wall time [min]:     0.099
 
 Constructing local fitting domains...
 Local fitting domains are unchanged.
 
 First step of Coulomb + first step of exchange...
 Exchange contribution is evaluated for MOs 1 to 57.
   1% done.
  13% done.
  25% done.
  40% done.
  55% done.
  70% done.
  83% done.
 100% done.
 CPU time [min]:     2.668                   Wall time [min]:     0.108
 
 Fitting and assembly step of exchange...
 CPU time [min]:     2.700                   Wall time [min]:     0.109
 
 Second step of Coulomb...
   1% done.
  13% done.
  25% done.
  40% done.
  55% done.
  70% done.
  83% done.
 100% done.
 CPU time [min]:     2.781                   Wall time [min]:     0.111
 
 Calculating the exchange-correlation matrix...
                  0.7500*PBEX [au]:    -84.960723239681
                  1.0000*PBEC [au]:     -5.450330821277
 Exchange-correlation energy  [au]:    -90.411054060958
 CPU time [min]:     3.250                   Wall time [min]:     0.136
 
 Coulomb energy + HF exchange [au]:   2057.563150079975
 Gradient norm:      5.0451E-01
 DIIS is running in this iteration step.
 RMS of [F,P]:                                         0.03179486668460
 RMS of difference density:                            0.01097442559930
 Gap [au]:  0.02428034
 ALPHA OCC:  57
 BETA  OCC:  57
 
 ***KOHN-SHAM ENERGY IN STEP   3 IS         -1168.5225052057871835 [AU]
 
 Step comparison  Energy Drift [au]  DIIS error drift  Gradient drift
        2            3.9420E+00         1.6114E-02       2.4369E-01
 ======================================================================
 ITERATION STEP   4
 CPU time [min]:     3.264                   Wall time [min]:     0.137
 

 SCF control                  : diis
 Damping factor/level shift   : 0.000/0.200
 DIIS [start/end/frequency]   :   2 / 50 /  1

 Constructing Fock-matrix...
 
 Pipek-Mezey localization...
 Step  Convergence
   1  11.663343449122
   2   3.844864505562
   3   0.250693727837
   4   0.005876571194
   5   0.000178947893
   6   0.000009442214
   7   0.000000506026
 CPU time [min]:     3.291                   Wall time [min]:     0.138
 
 Constructing local fitting domains...
 Local fitting domains are unchanged.
 
 First step of Coulomb + first step of exchange...
 Exchange contribution is evaluated for MOs 1 to 57.
   1% done.
  13% done.
  25% done.
  40% done.
  55% done.
  70% done.
  83% done.
 100% done.
 CPU time [min]:     3.589                   Wall time [min]:     0.146
 
 Fitting and assembly step of exchange...
 CPU time [min]:     3.621                   Wall time [min]:     0.147
 
 Second step of Coulomb...
   1% done.
  13% done.
  25% done.
  40% done.
  55% done.
  70% done.
  83% done.
 100% done.
 CPU time [min]:     3.702                   Wall time [min]:     0.149
 
 Calculating the exchange-correlation matrix...
                  0.7500*PBEX [au]:    -80.773115560808
                  1.0000*PBEC [au]:     -5.369177323595
 Exchange-correlation energy  [au]:    -86.142292884403
 CPU time [min]:     4.171                   Wall time [min]:     0.175
 
 Coulomb energy + HF exchange [au]:   2051.575485613819
 Gradient norm:      5.8401E-01
 DIIS is running in this iteration step.
 RMS of [F,P]:                                         0.02582595683557
 RMS of difference density:                            0.03961578929729
 Gap [au]:  0.00436757
 ALPHA OCC:  57
 BETA  OCC:  57
 
 ***KOHN-SHAM ENERGY IN STEP   4 IS         -1166.5744835226159921 [AU]
 
 Step comparison  Energy Drift [au]  DIIS error drift  Gradient drift
        3           -1.9480E+00         5.9689E-03      -7.9504E-02
 Warning! The energy goes uphill (with respect to previous step).
 Warning! The gradient goes uphill (with respect to previous step).
 Warning! The gradient goes uphill (with respect to step   3 ).
 ======================================================================
 ITERATION STEP   5
 CPU time [min]:     4.181                   Wall time [min]:     0.175
 

 SCF control                  : diis
 Damping factor/level shift   : 0.000/0.200
 DIIS [start/end/frequency]   :   2 / 50 /  1

 Constructing Fock-matrix...
 
 Pipek-Mezey localization...
 Step  Convergence
   1  14.527806726764
   2   6.870224108757
   3   1.256647448528
   4   0.031098262339
   5   0.000215913876
   6   0.000006024796
   7   0.000000196905
 CPU time [min]:     4.209                   Wall time [min]:     0.176
 
 Constructing local fitting domains...
 Local fitting domains are unchanged.
 
 First step of Coulomb + first step of exchange...
 Exchange contribution is evaluated for MOs 1 to 57.
   1% done.
  13% done.
  25% done.
  40% done.
  55% done.
  70% done.
  83% done.
 100% done.
 CPU time [min]:     4.507                   Wall time [min]:     0.184
 
 Fitting and assembly step of exchange...
 CPU time [min]:     4.538                   Wall time [min]:     0.185
 
 Second step of Coulomb...
   1% done.
  13% done.
  25% done.
  40% done.
  55% done.
  70% done.
  83% done.
 100% done.
 CPU time [min]:     4.620                   Wall time [min]:     0.187
 
 Calculating the exchange-correlation matrix...
                  0.7500*PBEX [au]:    -80.424888384026
                  1.0000*PBEC [au]:     -5.375573115616
 Exchange-correlation energy  [au]:    -85.800461499642
 CPU time [min]:     5.088                   Wall time [min]:     0.213
 
 Coulomb energy + HF exchange [au]:   2013.713433816384
 Gradient norm:      6.0290E-01
 DIIS is running in this iteration step.
 RMS of [F,P]:                                         0.01266903792377
 RMS of difference density:                            0.01025854265495
 Gap [au]:  0.15020397
 ALPHA OCC:  57
 BETA  OCC:  57
 
 ***KOHN-SHAM ENERGY IN STEP   5 IS         -1171.8996271473934030 [AU]
 
 Step comparison  Energy Drift [au]  DIIS error drift  Gradient drift
        4            5.3251E+00         1.3157E-02      -1.8895E-02
 Warning! The gradient goes uphill (with respect to previous step).
 Warning! The gradient goes uphill (with respect to step   3 ).
 ======================================================================
 ITERATION STEP   6
 CPU time [min]:     5.099                   Wall time [min]:     0.213
 

 SCF control                  : diis
 Damping factor/level shift   : 0.000/0.200
 DIIS [start/end/frequency]   :   2 / 50 /  1

 Constructing Fock-matrix...
 
 Pipek-Mezey localization...
 Step  Convergence
   1  17.139775205855
   2   4.677951390863
   3   0.772382427133
   4   0.085258637497
   5   0.000517123010
   6   0.000005130730
   7   0.000000047809
 CPU time [min]:     5.126                   Wall time [min]:     0.214
 
 Constructing local fitting domains...
 Local fitting domains are unchanged.
 
 First step of Coulomb + first step of exchange...
 Exchange contribution is evaluated for MOs 1 to 57.
   1% done.
  13% done.
  25% done.
  40% done.
  55% done.
  70% done.
  83% done.
 100% done.
 CPU time [min]:     5.424                   Wall time [min]:     0.222
 
 Fitting and assembly step of exchange...
 CPU time [min]:     5.456                   Wall time [min]:     0.223
 
 Second step of Coulomb...
   1% done.
  13% done.
  25% done.
  40% done.
  55% done.
  70% done.
  83% done.
 100% done.
 CPU time [min]:     5.538                   Wall time [min]:     0.225
 
 Calculating the exchange-correlation matrix...
                  0.7500*PBEX [au]:    -80.617231624172
                  1.0000*PBEC [au]:     -5.391538781729
 Exchange-correlation energy  [au]:    -86.008770405901
 CPU time [min]:     6.005                   Wall time [min]:     0.251
 
 Coulomb energy + HF exchange [au]:   2023.621177995681
 Gradient norm:      4.5465E-01
 DIIS is running in this iteration step.
 RMS of [F,P]:                                         0.00817927331141
 RMS of difference density:                            0.00514160430353
 Gap [au]:  0.14025863
 ALPHA OCC:  57
 BETA  OCC:  57
 
 ***KOHN-SHAM ENERGY IN STEP   6 IS         -1172.2000482368393932 [AU]
 
 Step comparison  Energy Drift [au]  DIIS error drift  Gradient drift
        5            3.0042E-01         4.4898E-03       1.4825E-01
 ======================================================================
 ITERATION STEP   7
 CPU time [min]:     6.047                   Wall time [min]:     0.252
 

 SCF control                  : diis
 Damping factor/level shift   : 0.000/0.200
 DIIS [start/end/frequency]   :   2 / 50 /  1

 Constructing Fock-matrix...
 
 Pipek-Mezey localization...
 Step  Convergence
   1  20.444850769069
   2   6.646956416589
   3   2.937245931829
   4   0.252912928734
   5   0.027984856470
   6   0.002471050056
   7   0.000290163264
   8   0.000038160425
   9   0.000005240342
  10   0.000000731116
  11   0.000000102722
  12   0.000000014481
 CPU time [min]:     6.088                   Wall time [min]:     0.253
 
 Constructing local fitting domains...
 Local fitting domains are unchanged.
 
 First step of Coulomb + first step of exchange...
 Exchange contribution is evaluated for MOs 1 to 57.
   1% done.
  13% done.
  25% done.
  40% done.
  55% done.
  70% done.
  83% done.
 100% done.
 CPU time [min]:     6.387                   Wall time [min]:     0.262
 
 Fitting and assembly step of exchange...
 CPU time [min]:     6.420                   Wall time [min]:     0.262
 
 Second step of Coulomb...
   1% done.
  13% done.
  25% done.
  40% done.
  55% done.
  70% done.
  83% done.
 100% done.
 CPU time [min]:     6.502                   Wall time [min]:     0.265
 
 Calculating the exchange-correlation matrix...
                  0.7500*PBEX [au]:    -81.205715384082
                  1.0000*PBEC [au]:     -5.403708751203
 Exchange-correlation energy  [au]:    -86.609424135285
 CPU time [min]:     6.970                   Wall time [min]:     0.290
 
 Coulomb energy + HF exchange [au]:   2032.382267530825
 Gradient norm:      1.3864E-01
 DIIS is running in this iteration step.
 RMS of [F,P]:                                         0.00282032005299
 RMS of difference density:                            0.00290295451612
 Gap [au]:  0.12196140
 ALPHA OCC:  57
 BETA  OCC:  57
 
 ***KOHN-SHAM ENERGY IN STEP   7 IS         -1172.3510630051332555 [AU]
 
 Step comparison  Energy Drift [au]  DIIS error drift  Gradient drift
        6            1.5101E-01         5.3590E-03       3.1602E-01
 ======================================================================
 ITERATION STEP   8
 CPU time [min]:     6.981                   Wall time [min]:     0.291
 

 SCF control                  : diis
 Damping factor/level shift   : 0.000/0.200
 DIIS [start/end/frequency]   :   2 / 50 /  1

 Constructing Fock-matrix...
 
 Pipek-Mezey localization...
 Step  Convergence
   1  18.380719178323
   2   7.759195772912
   3   9.162393572112
   4   1.020639545906
   5   0.047036594094
   6   0.003414532536
   7   0.000615236826
   8   0.000111542938
   9   0.000021299832
  10   0.000004101309
  11   0.000000801921
  12   0.000000158555
  13   0.000000031507
  14   0.000000006318
 CPU time [min]:     7.017                   Wall time [min]:     0.292
 
 Constructing local fitting domains...
 Local fitting domains are unchanged.
 
 First step of Coulomb + first step of exchange...
 Exchange contribution is evaluated for MOs 1 to 57.
   1% done.
  13% done.
  25% done.
  40% done.
  55% done.
  70% done.
  83% done.
 100% done.
 CPU time [min]:     7.315                   Wall time [min]:     0.300
 
 Fitting and assembly step of exchange...
 CPU time [min]:     7.347                   Wall time [min]:     0.301
 
 Second step of Coulomb...
   1% done.
  13% done.
  25% done.
  40% done.
  55% done.
  70% done.
  83% done.
 100% done.
 CPU time [min]:     7.429                   Wall time [min]:     0.303
 
 Calculating the exchange-correlation matrix...
                  0.7500*PBEX [au]:    -81.336369869391
                  1.0000*PBEC [au]:     -5.399222885849
 Exchange-correlation energy  [au]:    -86.735592755240
 CPU time [min]:     7.896                   Wall time [min]:     0.329
 
 Coulomb energy + HF exchange [au]:   2031.836116663969
 Gradient norm:      4.7756E-02
 DIIS is running in this iteration step.
 RMS of [F,P]:                                         0.00125004278516
 RMS of difference density:                            0.00147200525171
 Gap [au]:  0.12317450
 ALPHA OCC:  57
 BETA  OCC:  57
 
 ***KOHN-SHAM ENERGY IN STEP   8 IS         -1172.3797728137124068 [AU]
 
 Step comparison  Energy Drift [au]  DIIS error drift  Gradient drift
        7            2.8710E-02         1.5703E-03       9.0882E-02
 ======================================================================
 ITERATION STEP   9
 CPU time [min]:     7.907                   Wall time [min]:     0.329
 

 SCF control                  : diis
 Damping factor/level shift   : 0.000/0.000
 DIIS [start/end/frequency]   :   2 / 50 /  1

 Constructing Fock-matrix...
 
 Pipek-Mezey localization...
 Step  Convergence
   1  18.496358310584
   2   8.177091073343
   3   6.694928014016
   4   1.286898363036
   5   0.297850005408
   6   0.151553756308
   7   0.000495467417
   8   0.000019254543
   9   0.000001628512
  10   0.000000262162
  11   0.000000034458
  12   0.000000007006
  13   0.000000001224
  14   0.000000000229
 CPU time [min]:     7.943                   Wall time [min]:     0.330
 
 Constructing local fitting domains...
 Local fitting domains are unchanged.
 
 First step of Coulomb + first step of exchange...
 Exchange contribution is evaluated for MOs 1 to 57.
   1% done.
  13% done.
  25% done.
  40% done.
  55% done.
  70% done.
  83% done.
 100% done.
 CPU time [min]:     8.248                   Wall time [min]:     0.339
 
 Fitting and assembly step of exchange...
 CPU time [min]:     8.293                   Wall time [min]:     0.340
 
 Second step of Coulomb...
   1% done.
  13% done.
  25% done.
  40% done.
  55% done.
  70% done.
  83% done.
 100% done.
 CPU time [min]:     8.375                   Wall time [min]:     0.342
 
 Calculating the exchange-correlation matrix...
                  0.7500*PBEX [au]:    -81.367208262803
                  1.0000*PBEC [au]:     -5.396863204771
 Exchange-correlation energy  [au]:    -86.764071467574
 CPU time [min]:     8.843                   Wall time [min]:     0.368
 
 Coulomb energy + HF exchange [au]:   2031.442565346636
 Gradient norm:      2.9825E-02
 DIIS is running in this iteration step.
 RMS of [F,P]:                                         0.00072456206515
 RMS of difference density:                            0.00140646454909
 Gap [au]:  0.12692263
 ALPHA OCC:  57
 BETA  OCC:  57
 
 ***KOHN-SHAM ENERGY IN STEP   9 IS         -1172.3848188557449248 [AU]
 
 Step comparison  Energy Drift [au]  DIIS error drift  Gradient drift
        8            5.0460E-03         5.2548E-04       1.7930E-02
 ======================================================================
 ITERATION STEP  10
 CPU time [min]:     8.854                   Wall time [min]:     0.368
 

 SCF control                  : diis
 Damping factor/level shift   : 0.000/0.000
 DIIS [start/end/frequency]   :   2 / 50 /  1

 Constructing Fock-matrix...
 
 Pipek-Mezey localization...
 Step  Convergence
   1  22.135328012482
   2   9.658894425716
   3  10.904123056428
   4   3.412310101763
   5   0.337561675204
   6   0.025831254712
   7   0.004062139081
   8   0.000095130751
   9   0.000008848093
  10   0.000000827574
  11   0.000000081057
  12   0.000000007968
  13   0.000000000818
  14   0.000000000082
 CPU time [min]:     8.890                   Wall time [min]:     0.369
 
 Constructing local fitting domains...
 Local fitting domains are unchanged.
 
 First step of Coulomb + first step of exchange...
 Exchange contribution is evaluated for MOs 1 to 57.
   1% done.
  13% done.
  25% done.
  40% done.
  55% done.
  70% done.
  83% done.
 100% done.
 CPU time [min]:     9.188                   Wall time [min]:     0.378
 
 Fitting and assembly step of exchange...
 CPU time [min]:     9.220                   Wall time [min]:     0.378
 
 Second step of Coulomb...
   1% done.
  13% done.
  25% done.
  40% done.
  55% done.
  70% done.
  83% done.
 100% done.
 CPU time [min]:     9.302                   Wall time [min]:     0.381
 
 Calculating the exchange-correlation matrix...
                  0.7500*PBEX [au]:    -81.398292753303
                  1.0000*PBEC [au]:     -5.396877034334
 Exchange-correlation energy  [au]:    -86.795169787638
 CPU time [min]:     9.770                   Wall time [min]:     0.406
 
 Coulomb energy + HF exchange [au]:   2031.945112920450
 Gradient norm:      1.2037E-02
 DIIS is running in this iteration step.
 RMS of [F,P]:                                         0.00028697657591
 RMS of difference density:                            0.00053002598398
 Gap [au]:  0.12764475
 ALPHA OCC:  57
 BETA  OCC:  57
 
 ***KOHN-SHAM ENERGY IN STEP  10 IS         -1172.3878605699833315 [AU]
 
 Step comparison  Energy Drift [au]  DIIS error drift  Gradient drift
        9            3.0417E-03         4.3759E-04       1.7788E-02
 ======================================================================
 ITERATION STEP  11
 CPU time [min]:     9.781                   Wall time [min]:     0.407
 

 SCF control                  : diis
 Damping factor/level shift   : 0.000/0.000
 DIIS [start/end/frequency]   :   2 / 50 /  1

 Constructing Fock-matrix...
 
 Pipek-Mezey localization...
 Step  Convergence
   1  21.244509602671
   2  10.248508344851
   3  10.701316350263
   4   4.226317934316
   5   1.793446733221
   6   0.182027959555
   7   0.001280756881
   8   0.000011235508
   9   0.000000005763
  10   0.000000000198
  11   0.000000000001
 CPU time [min]:     9.812                   Wall time [min]:     0.407
 
 Constructing local fitting domains...
 Local fitting domains are unchanged.
 
 First step of Coulomb + first step of exchange...
 Exchange contribution is evaluated for MOs 1 to 57.
   1% done.
  13% done.
  25% done.
  40% done.
  55% done.
  70% done.
  83% done.
 100% done.
 CPU time [min]:    10.111                   Wall time [min]:     0.416
 
 Fitting and assembly step of exchange...
 CPU time [min]:    10.143                   Wall time [min]:     0.417
 
 Second step of Coulomb...
   1% done.
  13% done.
  25% done.
  40% done.
  55% done.
  70% done.
  83% done.
 100% done.
 CPU time [min]:    10.225                   Wall time [min]:     0.419
 
 Calculating the exchange-correlation matrix...
                  0.7500*PBEX [au]:    -81.420337652239
                  1.0000*PBEC [au]:     -5.397774088486
 Exchange-correlation energy  [au]:    -86.818111740725
 CPU time [min]:    10.694                   Wall time [min]:     0.445
 
 Coulomb energy + HF exchange [au]:   2032.509306081073
 Gradient norm:      4.0899E-03
 DIIS is running in this iteration step.
 RMS of [F,P]:                                         0.00007634392451
 RMS of difference density:                            0.00015619829709
 Gap [au]:  0.12702331
 ALPHA OCC:  57
 BETA  OCC:  57
 
 ***KOHN-SHAM ENERGY IN STEP  11 IS         -1172.3883078717062745 [AU]
 
 Step comparison  Energy Drift [au]  DIIS error drift  Gradient drift
       10            4.4730E-04         2.1063E-04       7.9473E-03
 ======================================================================
 ITERATION STEP  12
 CPU time [min]:    10.704                   Wall time [min]:     0.445
 

 SCF control                  : diis
 Damping factor/level shift   : 0.000/0.000
 DIIS [start/end/frequency]   :   2 / 50 /  1

 Constructing Fock-matrix...
 
 Pipek-Mezey localization...
 Step  Convergence
   1  19.848865861660
   2   9.934982400753
   3  14.231441899326
   4   5.104856820471
   5   1.585447755611
   6   0.020404662497
   7   0.000116172877
   8   0.000001183184
   9   0.000000018832
  10   0.000000000330
  11   0.000000000006
  12   0.000000000000
 CPU time [min]:    10.738                   Wall time [min]:     0.446
 
 Constructing local fitting domains...
 Local fitting domains are unchanged.
 
 First step of Coulomb + first step of exchange...
 Exchange contribution is evaluated for MOs 1 to 57.
   1% done.
  13% done.
  25% done.
  40% done.
  55% done.
  70% done.
  83% done.
 100% done.
 CPU time [min]:    11.035                   Wall time [min]:     0.454
 
 Fitting and assembly step of exchange...
 CPU time [min]:    11.067                   Wall time [min]:     0.455
 
 Second step of Coulomb...
   1% done.
  13% done.
  25% done.
  40% done.
  55% done.
  70% done.
  83% done.
 100% done.
 CPU time [min]:    11.149                   Wall time [min]:     0.457
 
 Calculating the exchange-correlation matrix...
                  0.7500*PBEX [au]:    -81.418726841275
                  1.0000*PBEC [au]:     -5.397446418074
 Exchange-correlation energy  [au]:    -86.816173259349
 CPU time [min]:    11.616                   Wall time [min]:     0.483
 
 Coulomb energy + HF exchange [au]:   2032.400416437380
 Gradient norm:      3.0780E-03
 DIIS is running in this iteration step.
 RMS of [F,P]:                                         0.00008525017213
 RMS of difference density:                            0.00007793434573
 Gap [au]:  0.12696920
 ALPHA OCC:  57
 BETA  OCC:  57
 
 ***KOHN-SHAM ENERGY IN STEP  12 IS         -1172.3883299412050292 [AU]
 
 Step comparison  Energy Drift [au]  DIIS error drift  Gradient drift
       11            2.2069E-05        -8.9062E-06       1.0119E-03
 Warning! The DIIS error goes uphill (with respect to previous step).
 Warning! The DIIS error goes uphill (with respect to step  11 ).
 ======================================================================
 ITERATION STEP  13
 CPU time [min]:    11.626                   Wall time [min]:     0.483
 

 SCF control                  : diis
 Damping factor/level shift   : 0.000/0.000
 DIIS [start/end/frequency]   :   2 / 50 /  1

 Constructing Fock-matrix...
 
 Pipek-Mezey localization...
 Step  Convergence
   1  22.970720344068
   2  11.624906329872
   3  15.537557325522
   4   4.174163577198
   5   0.844839792639
   6   0.033111109931
   7   0.000669773213
   8   0.000010918116
   9   0.000000450797
  10   0.000000012331
  11   0.000000000430
  12   0.000000000014
  13   0.000000000000
 CPU time [min]:    11.661                   Wall time [min]:     0.484
 
 Constructing local fitting domains...
 Local fitting domains are unchanged.
 
 First step of Coulomb + first step of exchange...
 Exchange contribution is evaluated for MOs 1 to 57.
   1% done.
  13% done.
  25% done.
  40% done.
  55% done.
  70% done.
  83% done.
 100% done.
 CPU time [min]:    11.959                   Wall time [min]:     0.492
 
 Fitting and assembly step of exchange...
 CPU time [min]:    11.991                   Wall time [min]:     0.493
 
 Second step of Coulomb...
   1% done.
  13% done.
  25% done.
  40% done.
  55% done.
  70% done.
  83% done.
 100% done.
 CPU time [min]:    12.072                   Wall time [min]:     0.496
 
 Calculating the exchange-correlation matrix...
                  0.7500*PBEX [au]:    -81.414711912352
                  1.0000*PBEC [au]:     -5.397279070268
 Exchange-correlation energy  [au]:    -86.811990982620
 CPU time [min]:    12.554                   Wall time [min]:     0.521
 
 Coulomb energy + HF exchange [au]:   2032.334092108326
 Gradient norm:      5.8060E-04
 DIIS is running in this iteration step.
 RMS of [F,P]:                                         0.00001630115760
 RMS of difference density:                            0.00002430292438
 Gap [au]:  0.12691037
 ALPHA OCC:  57
 BETA  OCC:  57
 
 ***KOHN-SHAM ENERGY IN STEP  13 IS         -1172.3883490881598846 [AU]
 
 Step comparison  Energy Drift [au]  DIIS error drift  Gradient drift
       12            1.9147E-05         6.8949E-05       2.4973E-03
       13            4.1216E-05         6.0043E-05       2.4973E-03
 ======================================================================
 ITERATION STEP  14
 CPU time [min]:    12.564                   Wall time [min]:     0.522
 

 SCF control                  : diis
 Damping factor/level shift   : 0.000/0.000
 DIIS [start/end/frequency]   :   2 / 50 /  1

 Constructing Fock-matrix...
 
 Pipek-Mezey localization...
 Step  Convergence
   1  17.737576959236
   2  10.458453893613
   3  12.967457228751
   4   6.166564252658
   5   1.546602619116
   6   0.211752688787
   7   0.009061751594
   8   0.000131889546
   9   0.000000996665
  10   0.000000025870
  11   0.000000000841
  12   0.000000000026
  13   0.000000000001
 CPU time [min]:    12.598                   Wall time [min]:     0.523
 
 Constructing local fitting domains...
 Local fitting domains are unchanged.
 
 First step of Coulomb + first step of exchange...
 Exchange contribution is evaluated for MOs 1 to 57.
   1% done.
  13% done.
  25% done.
  40% done.
  55% done.
  70% done.
  83% done.
 100% done.
 CPU time [min]:    12.896                   Wall time [min]:     0.531
 
 Fitting and assembly step of exchange...
 CPU time [min]:    12.928                   Wall time [min]:     0.532
 
 Second step of Coulomb...
   1% done.
  13% done.
  25% done.
  40% done.
  55% done.
  70% done.
  83% done.
 100% done.
 CPU time [min]:    13.009                   Wall time [min]:     0.534
 
 Calculating the exchange-correlation matrix...
                  0.7500*PBEX [au]:    -81.415968965386
                  1.0000*PBEC [au]:     -5.397279036930
 Exchange-correlation energy  [au]:    -86.813248002315
 CPU time [min]:    13.478                   Wall time [min]:     0.560
 
 Coulomb energy + HF exchange [au]:   2032.337191163530
 Gradient norm:      3.3341E-04
 DIIS is running in this iteration step.
 RMS of [F,P]:                                         0.00000990142303
 RMS of difference density:                            0.00000750311898
 Gap [au]:  0.12690772
 ALPHA OCC:  57
 BETA  OCC:  57
 
 ***KOHN-SHAM ENERGY IN STEP  14 IS         -1172.3883499806538566 [AU]
 
 Step comparison  Energy Drift [au]  DIIS error drift  Gradient drift
       13            8.9249E-07         6.3997E-06       2.4719E-04
 ======================================================================
 ITERATION STEP  15
 CPU time [min]:    13.489                   Wall time [min]:     0.560
 

 SCF control                  : diis
 Damping factor/level shift   : 0.000/0.000
 DIIS [start/end/frequency]   :   2 / 50 /  1

 Constructing Fock-matrix...
 
 Pipek-Mezey localization...
 Step  Convergence
   1  21.670606826165
   2   8.941861395712
   3  10.194330594646
   4   6.196560423312
   5   1.870355798940
   6   0.111644574272
   7   0.001237730178
   8   0.000008866440
   9   0.000000123589
  10   0.000000001838
  11   0.000000000038
  12   0.000000000001
 CPU time [min]:    13.522                   Wall time [min]:     0.561
 
 Constructing local fitting domains...
 Local fitting domains are unchanged.
 
 First step of Coulomb + first step of exchange...
 Exchange contribution is evaluated for MOs 1 to 57.
   1% done.
  13% done.
  25% done.
  40% done.
  55% done.
  70% done.
  83% done.
 100% done.
 CPU time [min]:    13.821                   Wall time [min]:     0.569
 
 Fitting and assembly step of exchange...
 CPU time [min]:    13.853                   Wall time [min]:     0.570
 
 Second step of Coulomb...
   1% done.
  13% done.
  25% done.
  40% done.
  55% done.
  70% done.
  83% done.
 100% done.
 CPU time [min]:    13.934                   Wall time [min]:     0.572
 
 Calculating the exchange-correlation matrix...
                  0.7500*PBEX [au]:    -81.415890651327
                  1.0000*PBEC [au]:     -5.397277080018
 Exchange-correlation energy  [au]:    -86.813167731344
 CPU time [min]:    14.403                   Wall time [min]:     0.598
 
 Coulomb energy + HF exchange [au]:   2032.336225243856
 Gradient norm:      1.9671E-04
 DIIS is running in this iteration step.
 RMS of [F,P]:                                         0.00000452465709
 RMS of difference density:                            0.00000434468796
 Gap [au]:  0.12691319
 ALPHA OCC:  57
 BETA  OCC:  57
 
 ***KOHN-SHAM ENERGY IN STEP  15 IS         -1172.3883502298504027 [AU]
 
 Step comparison  Energy Drift [au]  DIIS error drift  Gradient drift
       14            2.4920E-07         5.3768E-06       1.3670E-04
 ======================================================================
 ITERATION STEP  16
 CPU time [min]:    14.413                   Wall time [min]:     0.599
 

 SCF control                  : diis
 Damping factor/level shift   : 0.000/0.000
 DIIS [start/end/frequency]   :   2 / 50 /  1

 Constructing Fock-matrix...
 
 Pipek-Mezey localization...
 Step  Convergence
   1  17.316175182262
   2   7.046110334616
   3  10.546412659249
   4   3.088546482129
   5   0.218846504450
   6   0.004300457990
   7   0.000004691776
   8   0.000000163905
   9   0.000000001769
  10   0.000000000054
  11   0.000000000001
  12   0.000000000000
 CPU time [min]:    14.446                   Wall time [min]:     0.600
 
 Constructing local fitting domains...
 Local fitting domains are unchanged.
 
 First step of Coulomb + first step of exchange...
 Exchange contribution is evaluated for MOs 1 to 57.
   1% done.
  13% done.
  25% done.
  40% done.
  55% done.
  70% done.
  83% done.
 100% done.
 CPU time [min]:    14.744                   Wall time [min]:     0.608
 
 Fitting and assembly step of exchange...
 CPU time [min]:    14.776                   Wall time [min]:     0.609
 
 Second step of Coulomb...
   1% done.
  13% done.
  25% done.
  40% done.
  55% done.
  70% done.
  83% done.
 100% done.
 CPU time [min]:    14.858                   Wall time [min]:     0.611
 
 Calculating the exchange-correlation matrix...
                  0.7500*PBEX [au]:    -81.415727817444
                  1.0000*PBEC [au]:     -5.397276907725
 Exchange-correlation energy  [au]:    -86.813004725169
 CPU time [min]:    15.326                   Wall time [min]:     0.637
 
 Coulomb energy + HF exchange [au]:   2032.335848807350
 Gradient norm:      3.8021E-05
 DIIS is running in this iteration step.
 RMS of [F,P]:                                         0.00000117275143
 RMS of difference density:                            0.00000216370544
 Gap [au]:  0.12691488
 ALPHA OCC:  57
 BETA  OCC:  57
 
 ***KOHN-SHAM ENERGY IN STEP  16 IS         -1172.3883502903195222 [AU]
 
 Step comparison  Energy Drift [au]  DIIS error drift  Gradient drift
       15            6.0469E-08         3.3519E-06       1.5869E-04
 ======================================================================
 ITERATION STEP  17
 CPU time [min]:    15.336                   Wall time [min]:     0.637
 

 SCF control                  : diis
 Damping factor/level shift   : 0.000/0.000
 DIIS [start/end/frequency]   :   2 / 50 /  1

 Constructing Fock-matrix...
 
 Pipek-Mezey localization...
 Step  Convergence
   1  23.881561284327
   2  10.127421137717
   3  10.831432395749
   4   6.034961527966
   5   1.716131072951
   6   0.055660914218
   7   0.000503934903
   8   0.000000411516
   9   0.000000003603
  10   0.000000000054
  11   0.000000000000
 CPU time [min]:    15.371                   Wall time [min]:     0.638
 
 Constructing local fitting domains...
 Local fitting domains are unchanged.
 
 First step of Coulomb + first step of exchange...
 Exchange contribution is evaluated for MOs 1 to 57.
   1% done.
  13% done.
  25% done.
  40% done.
  55% done.
  70% done.
  83% done.
 100% done.
 CPU time [min]:    15.669                   Wall time [min]:     0.646
 
 Fitting and assembly step of exchange...
 CPU time [min]:    15.700                   Wall time [min]:     0.647
 
 Second step of Coulomb...
   1% done.
  13% done.
  25% done.
  40% done.
  55% done.
  70% done.
  83% done.
 100% done.
 CPU time [min]:    15.782                   Wall time [min]:     0.649
 
 Calculating the exchange-correlation matrix...
                  0.7500*PBEX [au]:    -81.415686243829
                  1.0000*PBEC [au]:     -5.397276719678
 Exchange-correlation energy  [au]:    -86.812962963507
 CPU time [min]:    16.250                   Wall time [min]:     0.675
 
 Coulomb energy + HF exchange [au]:   2032.335665221322
 Gradient norm:      1.6251E-05
 DIIS is running in this iteration step.
 RMS of [F,P]:                                         0.00000048774796
 RMS of difference density:                            0.00000078793567
 Gap [au]:  0.12691317
 ALPHA OCC:  57
 BETA  OCC:  57
 
 ***KOHN-SHAM ENERGY IN STEP  17 IS         -1172.3883502990547640 [AU]
 
 Step comparison  Energy Drift [au]  DIIS error drift  Gradient drift
       16            8.7352E-09         6.8500E-07       2.1770E-05
 ======================================================================
 
 SUCCESS...
 THE SCF ITERATION HAS CONVERGED!
 
                   A   
 FINAL ALPHA OCC:  57
 FINAL BETA  OCC:  57
 
 ***FINAL KOHN-SHAM ENERGY:         -1172.3883502990547640 [AU]
 
 Orbital energies [au]:
      Irrep         Alpha          Beta
    1   A         -4.256371      -4.256371
    2   A         -4.256348      -4.256348
    3   A         -4.256013      -4.256013
    4   A         -4.240824      -4.240824
    5   A         -4.240797      -4.240797
    6   A         -4.240679      -4.240679
    7   A         -2.642724      -2.642724
    8   A         -2.642690      -2.642690
    9   A         -2.641473      -2.641473
   10   A         -2.640680      -2.640680
   11   A         -2.638023      -2.638023
   12   A         -2.638007      -2.638007
   13   A         -2.633425      -2.633425
   14   A         -2.633314      -2.633314
   15   A         -2.633292      -2.633292
   16   A         -2.627274      -2.627274
   17   A         -2.626724      -2.626724
   18   A         -2.626694      -2.626694
   19   A         -2.622819      -2.622819
   20   A         -2.622791      -2.622791
   21   A         -2.622527      -2.622527
   22   A         -2.618957      -2.618957
   23   A         -2.618927      -2.618927
   24   A         -2.618895      -2.618895
   25   A         -0.327553      -0.327553
   26   A         -0.311550      -0.311550
   27   A         -0.311523      -0.311523
   28   A         -0.307215      -0.307215
   29   A         -0.284702      -0.284702
   30   A         -0.284642      -0.284642
   31   A         -0.282741      -0.282741
   32   A         -0.280687      -0.280687
   33   A         -0.280668      -0.280668
   34   A         -0.262672      -0.262672
   35   A         -0.262533      -0.262533
   36   A         -0.257053      -0.257053
   37   A         -0.251671      -0.251671
   38   A         -0.251654      -0.251654
   39   A         -0.250859      -0.250859
   40   A         -0.250804      -0.250804
   41   A         -0.250781      -0.250781
   42   A         -0.250381      -0.250381
   43   A         -0.249190      -0.249190
   44   A         -0.249180      -0.249180
   45   A         -0.243436      -0.243436
   46   A         -0.243417      -0.243417
   47   A         -0.238131      -0.238131
   48   A         -0.238125      -0.238125
   49   A         -0.234743      -0.234743
   50   A         -0.231681      -0.231681
   51   A         -0.231583      -0.231583
   52   A         -0.231578      -0.231578
   53   A         -0.226234      -0.226234
   54   A         -0.221500      -0.221500
   55   A         -0.221492      -0.221492
   56   A         -0.192367      -0.192367
   57   A         -0.192353      -0.192353
 
   58   A         -0.065440      -0.065440
   59   A         -0.051021      -0.051021
   60   A         -0.051001      -0.051001
   61   A          0.004082       0.004082
   62   A          0.021352       0.021352
   63   A          0.021365       0.021365
   64   A          0.061689       0.061689
   65   A          0.089937       0.089937
   66   A          0.095110       0.095110
   67   A          0.095120       0.095120
   68   A          0.101241       0.101241
   69   A          0.123414       0.123414
   70   A          0.123438       0.123438
   71   A          0.133856       0.133856
   72   A          0.133882       0.133882
   73   A          0.147189       0.147189
   74   A          0.212165       0.212165
   75   A          0.232861       0.232861
   76   A          0.232938       0.232938
   77   A          0.279339       0.279339
   78   A          0.279479       0.279479
   79   A          0.358323       0.358323
   80   A          0.425072       0.425072
   81   A          0.425215       0.425215
   82   A          0.497419       0.497419
   83   A          0.582200       0.582200
   84   A          0.582286       0.582286
   85   A          0.888590       0.888590
   86   A          0.888666       0.888666
   87   A          0.933116       0.933116
   88   A          0.958212       0.958212
   89   A          0.958271       0.958271
   90   A          0.969645       0.969645
   91   A          0.986588       0.986588
   92   A          1.028135       1.028135
   93   A          1.063930       1.063930
   94   A          1.064121       1.064121
   95   A          1.128479       1.128479
   96   A          1.128525       1.128525
   97   A          1.136238       1.136238
   98   A          1.140982       1.140982
   99   A          1.245096       1.245096
  100   A          1.245373       1.245373
  101   A          1.258019       1.258019
  102   A          1.258147       1.258147
  103   A          1.355355       1.355355
  104   A          1.381068       1.381068
  105   A          1.381270       1.381270
  106   A          1.420787       1.420787
  107   A          1.420957       1.420957
  108   A          1.480033       1.480033
  109   A          1.635632       1.635632
  110   A          1.657829       1.657829
  111   A          1.658245       1.658245
  112   A          1.819510       1.819510
  113   A          1.869109       1.869109
  114   A          1.869361       1.869361
  115   A          5.809633       5.809633
  116   A          5.809647       5.809647
  117   A          5.811221       5.811221
  118   A          5.812328       5.812328
  119   A          5.812564       5.812564
  120   A          5.812566       5.812566
  121   A          5.813117       5.813117
[...]
  623   A          9.216181       9.216181
  624   A          9.247086       9.247086
  625   A          9.248063       9.248063
  626   A          9.250522       9.250522
  627   A          9.251157       9.251157
  628   A          9.420693       9.420693
  629   A          9.446168       9.446168
  630   A          9.446763       9.446763
  631   A          9.449486       9.449486
  632   A          9.491518       9.491518
  633   A          9.491848       9.491848
  634   A          9.528417       9.528417
  635   A          9.626459       9.626459
  636   A          9.626857       9.626857
  637   A          9.722189       9.722189
  638   A          9.722875       9.722875
  639   A          9.790421       9.790421
  640   A         10.051805      10.051805
  641   A         10.164925      10.164925
  642   A         10.167086      10.167086
  643   A         10.167253      10.167253
  644   A         10.704326      10.704326
  645   A         10.705015      10.705015
  646   A         11.446043      11.446043
  647   A         11.448224      11.448224
  648   A         11.485922      11.485922
  649   A         17.487411      17.487411
  650   A         17.489160      17.489160
  651   A         17.489203      17.489203
  652   A         17.499451      17.499451
  653   A         17.499463      17.499463
  654   A         17.517973      17.517973
  655   A         17.522698      17.522698
  656   A         17.522735      17.522735
  657   A         17.532814      17.532814
  658   A         17.551418      17.551418
  659   A         17.551454      17.551454
  660   A         17.555728      17.555728
  661   A         17.564116      17.564116
  662   A         17.567472      17.567472
  663   A         17.580725      17.580725
  664   A         17.580791      17.580791
  665   A         17.590434      17.590434
  666   A         17.592245      17.592245
  667   A         17.592324      17.592324
  668   A         17.599018      17.599018
  669   A         17.599040      17.599040
  670   A         17.600378      17.600378
  671   A         17.600457      17.600457
  672   A         17.617859      17.617859
  673   A         17.620959      17.620959
  674   A         17.626932      17.626932
  675   A         17.626964      17.626964
  676   A         17.635982      17.635982
  677   A         17.649343      17.649343
  678   A         17.649419      17.649419
  679   A         17.662897      17.662897
  680   A         17.686837      17.686837
  681   A         17.687124      17.687124
  682   A         17.692424      17.692424
  683   A         17.692715      17.692715
  684   A         17.741701      17.741701
  685   A         17.741978      17.741978
  686   A         17.755065      17.755065
  687   A         17.758969      17.758969
  688   A         17.894705      17.894705
  689   A         17.894954      17.894954
  690   A         17.906767      17.906767
  691   A         21.160523      21.160523
  692   A         21.213775      21.213775
  693   A         21.222372      21.222372
  694   A         21.222440      21.222440
  695   A         21.229199      21.229199
  696   A         21.229300      21.229300
  697   A         21.231580      21.231580
  698   A         21.232698      21.232698
  699   A         21.233602      21.233602
  700   A         21.233664      21.233664
  701   A         21.257724      21.257724
  702   A         21.272377      21.272377
  703   A         21.272443      21.272443
  704   A         21.281467      21.281467
  705   A         21.292939      21.292939
  706   A         21.292950      21.292950
  707   A         21.298245      21.298245
  708   A         21.303123      21.303123
  709   A         21.303162      21.303162
  710   A         21.305599      21.305599
  711   A         21.305652      21.305652
  712   A         21.313189      21.313189
  713   A         21.333487      21.333487
  714   A         21.333574      21.333574
  715   A         21.343993      21.343993
  716   A         21.365982      21.365982
  717   A         21.368133      21.368133
  718   A         21.368154      21.368154
  719   A         21.392975      21.392975
  720   A         21.393137      21.393137
  721   A         21.408454      21.408454
  722   A         21.412664      21.412664
  723   A         21.416524      21.416524
  724   A         21.416698      21.416698
  725   A         21.440949      21.440949
  726   A         21.451750      21.451750
  727   A         21.451931      21.451931
  728   A         21.487694      21.487694
  729   A         21.487925      21.487925
  730   A         21.490109      21.490109
  731   A         21.490211      21.490211
  732   A         21.519334      21.519334
  733   A         21.561312      21.561312
  734   A         21.562951      21.562951
  735   A         21.563232      21.563232
  736   A         21.617932      21.617932
  737   A         21.618212      21.618212
  738   A         21.637920      21.637920
  739   A         21.695228      21.695228
  740   A         21.695499      21.695499
  741   A         21.724845      21.724845
  742   A         21.737182      21.737182
  743   A         21.837148      21.837148
  744   A         21.837500      21.837500
  745   A         21.917924      21.917924
  746   A         21.927503      21.927503
  747   A         21.927561      21.927561
  748   A         21.927628      21.927628
  749   A         21.988960      21.988960
  750   A         21.989054      21.989054
  751   A         22.013783      22.013783
  752   A         22.019751      22.019751
  753   A         22.019780      22.019780
  754   A         22.072356      22.072356
  755   A         22.072464      22.072464
  756   A         22.092646      22.092646
  757   A         22.111887      22.111887
  758   A         22.130765      22.130765
  759   A         22.130814      22.130814
  760   A         22.186162      22.186162
  761   A         22.207668      22.207668
  762   A         22.207728      22.207728
  763   A         22.249624      22.249624
  764   A         22.272473      22.272473
  765   A         22.272495      22.272495
  766   A         22.281999      22.281999
  767   A         22.334504      22.334504
  768   A         22.334579      22.334579
  769   A         22.353440      22.353440
  770   A         22.353477      22.353477
  771   A         22.353718      22.353718
  772   A         22.353746      22.353746
  773   A         22.355768      22.355768
  774   A         22.357003      22.357003
  775   A         22.357031      22.357031
  776   A         22.358237      22.358237
  777   A         22.359045      22.359045
  778   A         22.359101      22.359101
  779   A         22.360976      22.360976
  780   A         22.361026      22.361026
  781   A         22.361621      22.361621
  782   A         22.361717      22.361717
  783   A         22.362389      22.362389
  784   A         22.362982      22.362982
  785   A         22.363065      22.363065
  786   A         22.363124      22.363124
  787   A         22.367756      22.367756
  788   A         22.367798      22.367798
  789   A         22.368647      22.368647
  790   A         22.368848      22.368848
  791   A         22.368897      22.368897
  792   A         22.369119      22.369119
  793   A         22.369126      22.369126
  794   A         22.369424      22.369424
  795   A         22.369445      22.369445
  796   A         22.370738      22.370738
  797   A         22.370775      22.370775
  798   A         22.372131      22.372131
  799   A         22.372706      22.372706
  800   A         22.372721      22.372721
  801   A         22.374956      22.374956
  802   A         22.375378      22.375378
  803   A         22.379047      22.379047
  804   A         22.380562      22.380562
  805   A         22.380601      22.380601
  806   A         22.383128      22.383128
  807   A         22.383176      22.383176
  808   A         22.391811      22.391811
  809   A         22.393719      22.393719
  810   A         22.393747      22.393747
  811   A         22.400606      22.400606
  812   A         22.407514      22.407514
  813   A         22.407599      22.407599
  814   A         22.416375      22.416375
  815   A         22.416551      22.416551
  816   A         22.418354      22.418354
  817   A         22.418473      22.418473
  818   A         22.420946      22.420946
  819   A         22.422549      22.422549
  820   A         22.422590      22.422590
  821   A         22.424995      22.424995
  822   A         22.446832      22.446832
  823   A         22.446988      22.446988
  824   A         22.451577      22.451577
  825   A         22.455073      22.455073
  826   A         22.471863      22.471863
  827   A         22.472253      22.472253
  828   A         22.472740      22.472740
  829   A         22.504362      22.504362
  830   A         22.522388      22.522388
  831   A         22.522734      22.522734
  832   A         22.530563      22.530563
  833   A         22.546745      22.546745
  834   A         22.546789      22.546789
  835   A         22.585299      22.585299
  836   A         22.702196      22.702196
  837   A         22.702733      22.702733
  838   A         22.882829      22.882829
  839   A         22.882846      22.882846
  840   A         23.054971      23.054971
  841   A         23.350125      23.350125
  842   A         23.446551      23.446551
  843   A         23.446643      23.446643
  844   A         23.511309      23.511309
  845   A         23.511487      23.511487
  846   A         23.552770      23.552770
  847   A         23.871856      23.871856
  848   A         23.876725      23.876725
  849   A         23.876984      23.876984
  850   A         23.895044      23.895044
  851   A         24.032261      24.032261
  852   A         24.032551      24.032551
  853   A         24.113186      24.113186
  854   A         24.338000      24.338000
  855   A         24.338118      24.338118
  856   A         24.590253      24.590253
  857   A         24.590745      24.590745
  858   A         24.881509      24.881509
  859   A         28.517339      28.517339
  860   A         29.363274      29.363274
  861   A         29.364495      29.364495
  862   A         30.212574      30.212574
  863   A         30.468405      30.468405
  864   A         30.470969      30.470969
  865   A         43.700929      43.700929
  866   A         43.702461      43.702461
  867   A         43.702495      43.702495
  868   A         43.709638      43.709638
  869   A         43.709648      43.709648
  870   A         43.725218      43.725218
  871   A         43.728890      43.728890
  872   A         43.728914      43.728914
  873   A         43.733531      43.733531
  874   A         43.747381      43.747381
  875   A         43.747400      43.747400
  876   A         43.751598      43.751598
  877   A         43.752834      43.752834
  878   A         43.759563      43.759563
  879   A         43.764888      43.764888
  880   A         43.764924      43.764924
  881   A         43.775394      43.775394
  882   A         43.780078      43.780078
  883   A         43.780130      43.780130
  884   A         43.781778      43.781778
  885   A         43.781809      43.781809
  886   A         43.788334      43.788334
  887   A         43.788360      43.788360
  888   A         43.796974      43.796974
  889   A         43.802523      43.802523
  890   A         43.802552      43.802552
  891   A         43.805764      43.805764
  892   A         43.808541      43.808541
  893   A         43.816480      43.816480
  894   A         43.816525      43.816525
  895   A         43.825577      43.825577
  896   A         43.836258      43.836258
  897   A         43.836547      43.836547
  898   A         43.849650      43.849650
  899   A         43.849742      43.849742
  900   A         43.885818      43.885818
  901   A         43.886046      43.886046
  902   A         43.890127      43.890127
  903   A         43.898226      43.898226
  904   A         43.982371      43.982371
  905   A         43.983934      43.983934
  906   A         43.984045      43.984045
  907   A         51.029287      51.029287
  908   A         51.048398      51.048398
  909   A         51.059428      51.059428
  910   A         51.059483      51.059483
  911   A         51.060742      51.060742
  912   A         51.060838      51.060838
  913   A         51.061577      51.061577
  914   A         51.064694      51.064694
  915   A         51.064717      51.064717
  916   A         51.064816      51.064816
  917   A         51.067152      51.067152
  918   A         51.078922      51.078922
  919   A         51.079007      51.079007
  920   A         51.095766      51.095766
  921   A         51.095840      51.095840
  922   A         51.095917      51.095917
  923   A         51.095967      51.095967
  924   A         51.102479      51.102479
  925   A         51.104967      51.104967
  926   A         51.116159      51.116159
  927   A         51.116211      51.116211
  928   A         51.116669      51.116669
  929   A         51.119735      51.119735
  930   A         51.121604      51.121604
  931   A         51.121714      51.121714
  932   A         51.139671      51.139671
  933   A         51.149370      51.149370
  934   A         51.149401      51.149401
  935   A         51.154240      51.154240
  936   A         51.154352      51.154352
  937   A         51.159905      51.159905
  938   A         51.165318      51.165318
  939   A         51.174179      51.174179
  940   A         51.174243      51.174243
  941   A         51.189791      51.189791
  942   A         51.194347      51.194347
  943   A         51.194521      51.194521
  944   A         51.197124      51.197124
  945   A         51.197183      51.197183
  946   A         51.224111      51.224111
  947   A         51.225791      51.225791
  948   A         51.225862      51.225862
  949   A         51.241008      51.241008
  950   A         51.268808      51.268808
  951   A         51.268973      51.268973
  952   A         51.272397      51.272397
  953   A         51.276967      51.276967
  954   A         51.286695      51.286695
  955   A         51.286956      51.286956
  956   A         51.293069      51.293069
  957   A         51.293172      51.293172
  958   A         51.324768      51.324768
  959   A         51.324854      51.324854
  960   A         51.333120      51.333120
  961   A         51.408679      51.408679
  962   A         51.415488      51.415488
  963   A         51.415650      51.415650
  964   A         51.421641      51.421641
  965   A         51.436962      51.436962
  966   A         51.437041      51.437041
  967   A         51.464967      51.464967
  968   A         51.501643      51.501643
  969   A         51.501791      51.501791
  970   A         51.505597      51.505597
  971   A         51.506015      51.506015
  972   A         51.564164      51.564164
  973   A         51.615556      51.615556
  974   A         51.651328      51.651328
  975   A         51.663228      51.663228
  976   A         51.663298      51.663298
  977   A         51.700926      51.700926
  978   A         51.701032      51.701032
  979   A         51.926947      51.926947
  980   A         51.948776      51.948776
  981   A         51.949002      51.949002
  982   A         51.949870      51.949870
  983   A         52.182469      52.182469
  984   A         52.247910      52.247910
  985   A         52.248332      52.248332
  986   A         52.257296      52.257296
  987   A         52.257680      52.257680
  988   A         52.721296      52.721296
  989   A         52.721483      52.721483
  990   A         52.947330      52.947330
  991   A         54.313134      54.313134
  992   A         54.313150      54.313150
  993   A         54.313437      54.313437
  994   A         54.313474      54.313474
  995   A         54.313868      54.313868
  996   A         54.313907      54.313907
  997   A         54.314441      54.314441
  998   A         54.314645      54.314645
  999   A         54.315429      54.315429
 1000   A         54.315938      54.315938
 1001   A         54.316251      54.316251
 1002   A         54.316258      54.316258
 1003   A         54.316563      54.316563
 1004   A         54.316623      54.316623
 1005   A         54.316659      54.316659
 1006   A         54.316691      54.316691
 1007   A         54.317843      54.317843
 1008   A         54.317872      54.317872
 1009   A         54.318698      54.318698
 1010   A         54.318708      54.318708
 1011   A         54.319179      54.319179
 1012   A         54.319187      54.319187
 1013   A         54.319890      54.319890
 1014   A         54.320316      54.320316
 1015   A         54.322358      54.322358
 1016   A         54.322380      54.322380
 1017   A         54.322603      54.322603
 1018   A         54.322960      54.322960
 1019   A         54.323115      54.323115
 1020   A         54.323376      54.323376
 1021   A         54.323394      54.323394
 1022   A         54.323496      54.323496
 1023   A         54.323552      54.323552
 1024   A         54.323579      54.323579
 1025   A         54.323790      54.323790
 1026   A         54.324253      54.324253
 1027   A         54.324283      54.324283
 1028   A         54.324589      54.324589
 1029   A         54.325267      54.325267
 1030   A         54.325285      54.325285
 1031   A         54.327638      54.327638
 1032   A         54.327653      54.327653
 1033   A         54.327701      54.327701
 1034   A         54.329045      54.329045
 1035   A         54.329089      54.329089
 1036   A         54.332868      54.332868
 1037   A         54.332908      54.332908
 1038   A         54.333327      54.333327
 1039   A         54.335340      54.335340
 1040   A         54.335421      54.335421
 1041   A         54.335488      54.335488
 1042   A         54.343641      54.343641
 1043   A         54.343692      54.343692
 1044   A         54.347919      54.347919
 1045   A         54.347979      54.347979
 1046   A         54.349955      54.349955
 1047   A         54.350052      54.350052
 1048   A         54.352225      54.352225
 1049   A         54.352436      54.352436
 1050   A         54.353497      54.353497
 1051   A         54.362725      54.362725
 1052   A         54.362826      54.362826
 1053   A         54.371311      54.371311
 1054   A         54.373191      54.373191
 1055   A         54.404317      54.404317
 1056   A         54.404434      54.404434
 1057   A         82.117421      82.117421
 1058   A         82.208218      82.208218
 1059   A         82.208315      82.208315
 1060   A         82.259025      82.259025
 1061   A         82.259183      82.259183
 1062   A         82.285421      82.285421
 1063   A         82.427222      82.427222
 1064   A         82.519755      82.519755
 1065   A         82.519952      82.519952
 1066   A         82.591918      82.591918
 1067   A         82.763240      82.763240
 1068   A         82.763302      82.763302
 1069   A         82.885020      82.885020
 1070   A         82.984805      82.984805
 1071   A         82.984974      82.984974
 1072   A         83.444961      83.444961
 1073   A         83.445650      83.445650
 1074   A         83.676157      83.676157
 1075   A        106.418102     106.418102
 1076   A        106.775695     106.775695
 1077   A        106.775938     106.775938
 1078   A        107.144705     107.144705
 1079   A        107.145280     107.145280
 1080   A        107.525967     107.525967
 
 RETURNING FROM SCF ALGORITHM
 ======================================================================
 
 ************************ 2023-10-22 10:04:35 *************************
                      Normal termination of mrcc.
 **********************************************************************
