 vasp.6.4.1 05Apr23 (build May 06 2023 19:47:20) complex                        
  
 executed on             LinuxIFC date 2023.07.05  07:08:51
 running  768 mpi-ranks, with    1 threads/rank, on   48 nodes
 distrk:  each k-point on  768 cores,    1 groups
 distr:  one band on NCORE=  16 cores,   48 groups


--------------------------------------------------------------------------------------------------------


 INCAR:
   SYSTEM = MgO-rocksalt
   ISMEAR = 0
   SIGMA = 0.05
   EDIFF = 1E-6
   ALGO = ALL
   ISTART = 0
   IBRION = -1
   NSW = 0
   ISYM = 2
   DIPOL = 0.5 0.5 0.5
   IDIPOL = 3
   LDIPOL = .TRUE.
   GGA = PE
   IVDW = 11
   ENCUT = 520
   PREC = Accurate
   LASPH = .TRUE.
   LREAL = Auto
   ISPIN = 1
   NELM = 200
   NELMIN = 8
   NCORE = 16
   KPAR = 1
   LWAVE = .FALSE.
   LCHARG = .FALSE.

 POTCAR:    PAW_PBE Cu 22Jun2005                  
 POTCAR:    PAW_PBE Cu 22Jun2005                  
   SHA256 =  0e71e558f37a4e8407882b4609ceaae59938afaad9ced71dfe8490308a0ab630 Cu/POTCAR             
   COPYR  = (c) Copyright 22Jun2005 Georg Kresse                                                    
   COPYR  = This file is part of the software VASP. Any use, copying, and all other rights are regul
   COPYR  = If you do not have a valid VASP license, you may not use, copy or distribute this file. 
   VRHFIN =Cu: d10 p1                                                                               
   LEXCH  = PE                                                                                      
   EATOM  =  1390.9808 eV,  102.2342 Ry                                                             
                                                                                                    
   TITEL  = PAW_PBE Cu 22Jun2005                                                                    
   LULTRA =        F    use ultrasoft PP ?                                                          
   IUNSCR =        1    unscreen: 0-lin 1-nonlin 2-no                                               
   RPACOR =    2.000    partial core radius                                                         
   POMASS =   63.546; ZVAL   =   11.000    mass and valenz                                          
   RCORE  =    2.300    outmost cutoff radius                                                       
   RWIGS  =    2.200; RWIGS  =    1.164    wigner-seitz radius (au A)                               
   ENMAX  =  295.446; ENMIN  =  221.585 eV                                                          
   ICORE  =        3    local potential                                                             
   LCOR   =        T    correct aug charges                                                         
   LPAW   =        T    paw PP                                                                      
   EAUG   =  586.980                                                                                
   DEXC   =    0.000                                                                                
   RMAX   =    2.344    core radius for proj-oper                                                   
   RAUG   =    1.300    factor for augmentation sphere                                              
   RDEP   =    2.302    radius for radial grids                                                     
   RDEPT  =    1.771    core radius for aug-charge                                                  
                                                                                                    
   Atomic configuration                                                                             
    9 entries                                                                                       
     n  l   j            E        occ.                                                              
     1  0  0.50     -8850.2468   2.0000                                                             
     2  0  0.50     -1062.3498   2.0000                                                             
     2  1  1.50      -916.8226   6.0000                                                             
     3  0  0.50      -114.6929   2.0000                                                             
     3  1  1.50       -72.1325   6.0000                                                             
     3  2  2.50        -5.0394  10.0000                                                             
     4  0  0.50        -4.6097   1.0000                                                             
     4  1  0.50        -4.0817   0.0000                                                             
     4  3  2.50        -1.3606   0.0000                                                             
   Description                                                                                      
     l       E           TYP  RCUT    TYP  RCUT                                                     
     2     -5.0393973     23  2.200                                                                 
     2     10.8846608     23  2.200                                                                 
     0     -4.6097109     23  2.200                                                                 
     0      8.2520465     23  2.200                                                                 
     1     -2.7211652     23  2.200                                                                 
     1     21.7055443     23  2.200                                                                 
     3      2.7211652     23  2.300                                                                 
  local pseudopotential read in
  partial core-charges read in
  partial kinetic energy density read in
  atomic valenz-charges read in
  non local Contribution for L=           2  read in
    real space projection operators read in
  non local Contribution for L=           2  read in
    real space projection operators read in
  non local Contribution for L=           0  read in
    real space projection operators read in
  non local Contribution for L=           0  read in
    real space projection operators read in
  non local Contribution for L=           1  read in
    real space projection operators read in
  non local Contribution for L=           1  read in
    real space projection operators read in
    PAW grid and wavefunctions read in
 
   number of l-projection  operators is LMAX  =           6
   number of lm-projection operators is LMMAX =          18
 
 -----------------------------------------------------------------------------
|                                                                             |
|               ----> ADVICE to this user running VASP <----                  |
|                                                                             |
|     You have a (more or less) 'small supercell' and for smaller cells       |
|     it is recommended to use the reciprocal-space projection scheme!        |
|     The real-space optimization is not efficient for small cells and it     |
|     is also less accurate ...                                               |
|     Therefore, set LREAL=.FALSE. in the INCAR file.                         |
|                                                                             |
 -----------------------------------------------------------------------------

 Optimization of the real space projectors (new method)

 maximal supplied QI-value         = 16.25
 optimisation between [QCUT,QGAM] = [ 11.54, 23.24] = [ 37.28,151.24] Ry 
 Optimized for a Real-space Cutoff    1.53 Angstroem

   l    n(q)    QCUT    max X(q) W(low)/X(q) W(high)/X(q)  e(spline) 
   2     10    11.539     4.610    0.96E-04    0.13E-03    0.19E-06
   2     10    11.539     8.522    0.16E-03    0.21E-03    0.28E-06
   0     11    11.539    51.609    0.45E-04    0.31E-04    0.11E-06
   0     11    11.539    27.747    0.39E-04    0.29E-04    0.10E-06
   1     10    11.539    20.408    0.70E-05    0.38E-04    0.18E-06
   1     10    11.539    13.425    0.66E-05    0.34E-04    0.17E-06
  PAW_PBE Cu 22Jun2005                  :
 energy of atom  1       EATOM=-1390.9808
 kinetic energy error for atom=    0.0037 (will be added to EATOM!!)
 
 
 POSCAR: Cu
  positions in direct lattice
  No initial velocities read in
 exchange correlation table for  LEXCH =        8
   RHO(1)=    0.500       N(1)  =     2000
   RHO(2)=  100.500       N(2)  =     4000
 


--------------------------------------------------------------------------------------------------------


 ion  position               nearest neighbor table
   1  0.538  0.562  0.615-   2 2.24
   2  0.462  0.638  0.615-   1 2.24
 
  LATTYP: Found a simple tetragonal cell.
 ALAT       =    21.1388521970
 C/A-ratio  =     1.0461251639
  
  Lattice vectors:
  
 A1 = (  21.1388521970,   0.0000000000,   0.0000000000)
 A2 = (   0.0000000000,  21.1388521970,   0.0000000000)
 A3 = (   0.0000000000,   0.0000000000,  22.1138852197)


Analysis of symmetry for initial positions (statically):
=====================================================================
 Subroutine PRICEL returns:
 Original cell was already a primitive cell.
 

 Routine SETGRP: Setting up the symmetry group for a 
 simple tetragonal supercell.


 Subroutine GETGRP returns: Found  8 space group operations
 (whereof  1 operations were pure point group operations)
 out of a pool of 16 trial point group operations.


The static configuration has the point symmetry C_1 .
 The point group associated with its full space group is D_2h.


Analysis of symmetry for dynamics (positions and initial velocities):
=====================================================================
 Subroutine PRICEL returns:
 Original cell was already a primitive cell.
 

 Routine SETGRP: Setting up the symmetry group for a 
 simple tetragonal supercell.


 Subroutine GETGRP returns: Found  8 space group operations
 (whereof  1 operations were pure point group operations)
 out of a pool of 16 trial point group operations.


The dynamic configuration has the point symmetry C_1 .
 The point group associated with its full space group is D_2h.


 Subroutine INISYM returns: Found  8 space group operations
 (whereof  1 operations are pure point group operations),
 and found     1 'primitive' translations


----------------------------------------------------------------------------------------

                                     Primitive cell                                     

  volume of cell :    9881.6133

  direct lattice vectors                    reciprocal lattice vectors
    21.138852197  0.000000000  0.000000000     0.047306258  0.000000000  0.000000000
     0.000000000 21.138852197  0.000000000     0.000000000  0.047306258  0.000000000
     0.000000000  0.000000000 22.113885220     0.000000000  0.000000000  0.045220457

  length of vectors
    21.138852197 21.138852197 22.113885220     0.047306258  0.047306258  0.045220457

  position of ions in fractional coordinates (direct lattice)
     0.537531089  0.562468875  0.614848637
     0.462468911  0.637531053  0.614848637

  ion indices of the primitive-cell ions
   primitive index   ion index
                 1           1
                 2           2

----------------------------------------------------------------------------------------

 
 
 KPOINTS: KPOINTS created by Atomic Simulation Env

Automatic generation of k-mesh.
 Grid dimensions read from file:
 generate k-points for:    1    1    1

 Generating k-lattice:

  Cartesian coordinates                     Fractional coordinates (reciprocal lattice)
     0.047306258  0.000000000  0.000000000     1.000000000  0.000000000  0.000000000
     0.000000000  0.047306258  0.000000000     0.000000000  1.000000000  0.000000000
     0.000000000  0.000000000  0.045220457     0.000000000  0.000000000  1.000000000

  Length of vectors
     0.047306258  0.047306258  0.045220457

  Shift w.r.t. Gamma in fractional coordinates (k-lattice)
     0.000000000  0.000000000  0.000000000

 
 Subroutine IBZKPT returns following result:
 ===========================================
 
 Found      1 irreducible k-points:
 
 Following reciprocal coordinates:
            Coordinates               Weight
  0.000000  0.000000  0.000000      1.000000
 
 Following cartesian coordinates:
            Coordinates               Weight
  0.000000  0.000000  0.000000      1.000000
 


--------------------------------------------------------------------------------------------------------




 Dimension of arrays:
   k-points           NKPTS =      1   k-points in BZ     NKDIM =      1   number of bands    NBANDS=     48
   number of dos      NEDOS =    301   number of ions     NIONS =      2
   non local maximal  LDIM  =      6   non local SUM 2l+1 LMDIM =     18
   total plane-waves  NPLWV = ******
   max r-space proj   IRMAX =   6628   max aug-charges    IRDMAX=  12805
   dimension x,y,z NGX =   160 NGY =  160 NGZ =  168
   dimension x,y,z NGXF=   320 NGYF=  320 NGZF=  336
   support grid    NGXF=   320 NGYF=  320 NGZF=  336
   ions per type =               2
   NGX,Y,Z   is equivalent  to a cutoff of  12.58, 12.58, 12.63 a.u.
   NGXF,Y,Z  is equivalent  to a cutoff of  25.17, 25.17, 25.26 a.u.

 SYSTEM =  MgO-rocksalt                            
 POSCAR =  Cu                                      

 Startparameter for this run:
   NWRITE =      2    write-flag & timer
   PREC   = accura    normal or accurate (medium, high low for compatibility)
   ISTART =      0    job   : 0-new  1-cont  2-samecut
   ICHARG =      2    charge: 1-file 2-atom 10-const
   ISPIN  =      1    spin polarized calculation?
   LNONCOLLINEAR =      F non collinear calculations
   LSORBIT =      F    spin-orbit coupling
   INIWAV =      1    electr: 0-lowe 1-rand  2-diag
   LASPH  =      T    aspherical Exc in radial PAW
 Electronic Relaxation 1
   ENCUT  =  520.0 eV  38.22 Ry    6.18 a.u.  39.30 39.30 41.12*2*pi/ulx,y,z
   ENINI  =  520.0     initial cutoff
   ENAUG  =  587.0 eV  augmentation charge cutoff
   NELM   =    200;   NELMIN=  8; NELMDL= -5     # of ELM steps 
   EDIFF  = 0.1E-05   stopping-criterion for ELM
   LREAL  =      T    real-space projection
   NLSPLINE    = F    spline interpolate recip. space projectors
   LCOMPAT=      F    compatible to vasp.4.4
   GGA_COMPAT  = T    GGA compatible to vasp.4.4-vasp.4.6
   LMAXPAW     = -100 max onsite density
   LMAXMIX     =    2 max onsite mixed and CHGCAR
   VOSKOWN=      0    Vosko Wilk Nusair interpolation
   ROPT   =   -0.00025
 Ionic relaxation
   EDIFFG = 0.1E-04   stopping-criterion for IOM
   NSW    =      0    number of steps for IOM
   NBLOCK =      1;   KBLOCK =      1    inner block; outer block 
   IBRION =     -1    ionic relax: 0-MD 1-quasi-New 2-CG
   NFREE  =      0    steps in history (QN), initial steepest desc. (CG)
   ISIF   =      2    stress and relaxation
   IWAVPR =     10    prediction:  0-non 1-charg 2-wave 3-comb
   ISYM   =      2    0-nonsym 1-usesym 2-fastsym
   LCORR  =      T    Harris-Foulkes like correction to forces

   POTIM  = 0.5000    time-step for ionic-motion
   TEIN   =    0.0    initial temperature
   TEBEG  =    0.0;   TEEND  =   0.0 temperature during run
   SMASS  =  -3.00    Nose mass-parameter (am)
   estimated Nose-frequenzy (Omega)   =  0.10E-29 period in steps = 0.13E+47 mass=  -0.102E-25a.u.
   SCALEE = 1.0000    scale energy and forces
   NPACO  =    256;   APACO  = 10.0  distance and # of slots for P.C.
   PSTRESS=    0.0 pullay stress

  Mass of Ions in am
   POMASS =  63.55
  Ionic Valenz
   ZVAL   =  11.00
  Atomic Wigner-Seitz radii
   RWIGS  =  -1.00
  virtual crystal weights 
   VCA    =   1.00
   NELECT =      22.0000    total number of electrons
   NUPDOWN=      -1.0000    fix difference up-down

 DOS related values:
   EMIN   =  10.00;   EMAX   =-10.00  energy-range for DOS
   EFERMI =   0.00;   METHOD = LEGACY      
   ISMEAR =     0;   SIGMA  =   0.05  broadening in eV -4-tet -1-fermi 0-gaus

 Electronic relaxation 2 (details)
   IALGO  =     58    algorithm
   LDIAG  =      T    sub-space diagonalisation (order eigenvalues)
   LSUBROT=      F    optimize rotation matrix (better conditioning)
   TURBO    =      0    0=normal 1=particle mesh
   IRESTART =      0    0=no restart 2=restart with 2 vectors
   NREBOOT  =      0    no. of reboots
   NMIN     =      0    reboot dimension
   EREF     =   0.00    reference energy to select bands
   IMIX   =      4    mixing-type and parameters
     AMIX     =   0.40;   BMIX     =  1.00
     AMIX_MAG =   1.60;   BMIX_MAG =  1.00
     AMIN     =   0.10
     WC   =   100.;   INIMIX=   1;  MIXPRE=   1;  MAXMIX= -45

 Intra band minimization:
   WEIMIN = 0.0000     energy-eigenvalue tresh-hold
   EBREAK =  0.52E-08  absolut break condition
   DEPER  =   0.30     relativ break condition  

   TIME   =   0.40     timestep for ELM

  volume/ion in A,a.u.               =    4940.81     33342.21
  Fermi-wavevector in a.u.,A,eV,Ry     =   0.213767  0.403960  0.621734  0.045696
  Thomas-Fermi vector in A             =   0.985879
 
 Write flags
   LWAVE        =      F    write WAVECAR
   LDOWNSAMPLE  =      F    k-point downsampling of WAVECAR
   LCHARG       =      F    write CHGCAR
   LVTOT        =      F    write LOCPOT, total local potential
   LVHAR        =      F    write LOCPOT, Hartree potential only
   LELF         =      F    write electronic localiz. function (ELF)
   LORBIT       =      0    0 simple, 1 ext, 2 COOP (PROOUT), +10 PAW based schemes


 Dipole corrections
   LMONO  =      F    monopole corrections only (constant potential shift)
   LDIPOL =      T    correct potential (dipole corrections)
   IDIPOL =      3    1-x, 2-y, 3-z, 4-all directions 
   EPSILON=  1.0000000 bulk dielectric constant

 Exchange correlation treatment:
   GGA     =    PE    GGA type
   LEXCH   =     8    internal setting for exchange type
   LIBXC   =     F    Libxc                    
   VOSKOWN =     0    Vosko Wilk Nusair interpolation
   LHFCALC =     F    Hartree Fock is set to
   LHFONE  =     F    Hartree Fock one center treatment
   AEXX    =    0.0000 exact exchange contribution

 Linear response parameters
   LEPSILON=     F    determine dielectric tensor
   LRPA    =     F    only Hartree local field effects (RPA)
   LNABLA  =     F    use nabla operator in PAW spheres
   LVEL    =     F    velocity operator in full k-point grid
   CSHIFT  =0.1000    complex shift for real part using Kramers Kronig
   OMEGAMAX=  -1.0    maximum frequency
   DEG_THRESHOLD= 0.2000000E-02 threshold for treating states as degnerate
   RTIME   =   -0.100 relaxation time in fs
  (WPLASMAI=    0.000 imaginary part of plasma frequency in eV, 0.658/RTIME)
   DFIELD  = 0.0000000 0.0000000 0.0000000 field for delta impulse in time
 
  Optional k-point grid parameters
   LKPOINTS_OPT  =     F    use optional k-point grid
   KPOINTS_OPT_MODE=     1    mode for optional k-point grid
 
 Orbital magnetization related:
   ORBITALMAG=     F  switch on orbital magnetization
   LCHIMAG   =     F  perturbation theory with respect to B field
   DQ        =  0.001000  dq finite difference perturbation B field
   LLRAUG    =     F  two centre corrections for induced B field
   LBONE     =     F  B-component reconstruction in AE one-centre
   LVGVCALC  =     T  calculate vGv susceptibility
   LVGVAPPL  =     F  apply vGv susceptibility instead of pGv for G=0

 Random number generation:
   RANDOM_GENERATOR = DEFAULT
   PCG_SEED         = not used


--------------------------------------------------------------------------------------------------------


 Static calculation
 charge density and potential will be updated during run
 non-spin polarized calculation
 Conjugate gradient for all bands (Freysoldt, et al. PRB 79, 241103 (2009))
 preconditioned conjugated gradient                                        
 perform sub-space diagonalisation
    before iterative eigenvector-optimisation
 modified Broyden-mixing scheme, WC =      100.0
 initial mixing is a Kerker type mixing with AMIX =  0.4000 and BMIX =      1.0000
 Hartree-type preconditioning will be used
 using additional bands           37
 real space projection scheme for non local part
 use partial core corrections
 no Harris-corrections to forces 
 use gradient corrections 
 use of overlap-Matrix (Vanderbilt PP)
 Gauss-broadening in eV      SIGMA  =   0.05


--------------------------------------------------------------------------------------------------------


  energy-cutoff  :      520.00
  volume of cell :     9881.61
      direct lattice vectors                 reciprocal lattice vectors
    21.138852197  0.000000000  0.000000000     0.047306258  0.000000000  0.000000000
     0.000000000 21.138852197  0.000000000     0.000000000  0.047306258  0.000000000
     0.000000000  0.000000000 22.113885220     0.000000000  0.000000000  0.045220457

  length of vectors
    21.138852197 21.138852197 22.113885220     0.047306258  0.047306258  0.045220457


 
 k-points in units of 2pi/SCALE and weight: KPOINTS created by Atomic Simulation Env
   0.00000000  0.00000000  0.00000000       1.000
 
 k-points in reciprocal lattice and weights: KPOINTS created by Atomic Simulation Env
   0.00000000  0.00000000  0.00000000       1.000
 
 position of ions in fractional coordinates (direct lattice) 
   0.53753109  0.56246888  0.61484864
   0.46246891  0.63753105  0.61484864
 
 position of ions in cartesian coordinates  (Angst):
  11.36279024 11.88994642 13.59669218
   9.77606196 13.47667470 13.59669218
 


--------------------------------------------------------------------------------------------------------


 k-point   1 :   0.0000 0.0000 0.0000  plane waves:  265979

 maximum and minimum number of plane-waves per node :     16635    16606

 maximum number of plane-waves:    265979
 maximum index in each direction: 
   IXMAX=   39   IYMAX=   39   IZMAX=   41
   IXMIN=  -39   IYMIN=  -39   IZMIN=  -41


 real space projection operators:
  total allocation   :       1799.72 KBytes
  max/ min on nodes  :        114.75        109.83


 parallel 3D FFT for wavefunctions:
    minimum data exchange during FFTs selected (reduces bandwidth)
 parallel 3D FFT for charge:
    minimum data exchange during FFTs selected (reduces bandwidth)


 total amount of memory used by VASP MPI-rank0    58507. kBytes
=======================================================================

   base      :      30000. kBytes
   nonlr-proj:        364. kBytes
   fftplans  :      11368. kBytes
   grid      :      15959. kBytes
   one-center:         15. kBytes
   wavefun   :        801. kBytes
 
     INWAV:  cpu time      0.0004: real time      0.0005
 Broyden mixing: mesh for mixing (old mesh)
   NGX = 79   NGY = 79   NGZ = 83
  (NGX  =320   NGY  =320   NGZ  =336)
  gives a total of 518003 points

 initial charge density was supplied:
 charge density of overlapping atoms calculated
 number of electron      22.0000000 magnetization 
 keeping initial charge density in first step


--------------------------------------------------------------------------------------------------------


 Maximum index for non-local projection operator          405
 Maximum index for augmentation-charges            0 (set IRDMAX)


--------------------------------------------------------------------------------------------------------


 First call to EWALD:  gamma=   0.083
 Maximum number of real-space cells 3x 3x 3
 Maximum number of reciprocal cells 3x 3x 3

    FEWALD:  cpu time      0.0157: real time      0.0166


--------------------------------------- Ionic step        1  -------------------------------------------




--------------------------------------- Iteration      1(   1)  ---------------------------------------


    POTLOK:  cpu time      0.3202: real time      0.3263
    SETDIJ:  cpu time      0.7412: real time      0.7426
    TRIAL :  cpu time      0.2423: real time      0.3051
    CORREC:  cpu time      0.0027: real time      0.0027
    --------------------------------------------
      LOOP:  cpu time      1.3091: real time      1.3804

 eigenvalue-minimisations  :    96
 total energy-change (2. order) : 0.1137286E+03  (-0.3151719E+03)
 number of electron      22.0000000 magnetization 
 augmentation part       22.0000000 magnetization 

 DIPCOR: dipole corrections for dipol
 direction  3 min pos     1,
 dipolmoment           0.000000      0.000000     -0.000040 electrons x Angstroem
 Tr[quadrupol]     -3688.731095

 energy correction for charged system         0.000000 eV
 dipol+quadrupol energy correction           -0.000000 eV
 added-field ion interaction          0.000044 eV  (added to PSCEN)


 Free energy of the ion-electron system (eV)
  ---------------------------------------------------
  alpha Z        PSCENC =         0.29607957
  Ewald energy   TEWEN  =       318.01082684
  -Hartree energ DENC   =     -2860.44585664
  -exchange      EXHF   =         0.00000000
  -V(xc)+E(xc)   XCENC  =        88.13790275
  PAW double counting   =      2456.41331976    -2668.09693425
  entropy T*S    EENTRO =        -0.02027054
  eigenvalues    EBANDS =        -2.52057952
  atomic energy  EATOM  =      2781.95410799
  ---------------------------------------------------
  free energy    TOTEN  =       113.72859595 eV

  energy without entropy =      113.74886649  energy(sigma->0) =      113.73873122


--------------------------------------------------------------------------------------------------------




--------------------------------------- Iteration      1(   2)  ---------------------------------------


    TRIAL :  cpu time      0.3980: real time      0.3995
    CORREC:  cpu time      0.0016: real time      0.0016
    --------------------------------------------
      LOOP:  cpu time      0.4029: real time      0.4122

 eigenvalue-minimisations  :   192
 total energy-change (2. order) :-0.1148603E+03  (-0.1146194E+03)
 number of electron      22.0000000 magnetization 
 augmentation part       22.0000000 magnetization 

 DIPCOR: dipole corrections for dipol
 direction  3 min pos     1,
 dipolmoment           0.000000      0.000000     -0.000040 electrons x Angstroem
 Tr[quadrupol]     -3688.731095

 energy correction for charged system         0.000000 eV
 dipol+quadrupol energy correction           -0.000000 eV
 added-field ion interaction          0.000044 eV  (added to PSCEN)


 Free energy of the ion-electron system (eV)
  ---------------------------------------------------
  alpha Z        PSCENC =         0.29607957
  Ewald energy   TEWEN  =       318.01082684
  -Hartree energ DENC   =     -2860.44585664
  -exchange      EXHF   =         0.00000000
  -V(xc)+E(xc)   XCENC  =        88.13790275
  PAW double counting   =      2456.41331976    -2668.09693425
  entropy T*S    EENTRO =        -0.00000000
  eigenvalues    EBANDS =      -117.40120001
  atomic energy  EATOM  =      2781.95410799
  ---------------------------------------------------
  free energy    TOTEN  =        -1.13175400 eV

  energy without entropy =       -1.13175400  energy(sigma->0) =       -1.13175400


--------------------------------------------------------------------------------------------------------




--------------------------------------- Iteration      1(   3)  ---------------------------------------


    TRIAL :  cpu time      0.1598: real time      0.1596
    CORREC:  cpu time      0.0018: real time      0.0018
    --------------------------------------------
      LOOP:  cpu time      0.1724: real time      0.1725

 eigenvalue-minimisations  :    96
 total energy-change (2. order) :-0.2038805E+01  (-0.2038805E+01)
 number of electron      22.0000000 magnetization 
 augmentation part       22.0000000 magnetization 

 DIPCOR: dipole corrections for dipol
 direction  3 min pos     1,
 dipolmoment           0.000000      0.000000     -0.000040 electrons x Angstroem
 Tr[quadrupol]     -3688.731095

 energy correction for charged system         0.000000 eV
 dipol+quadrupol energy correction           -0.000000 eV
 added-field ion interaction          0.000044 eV  (added to PSCEN)


 Free energy of the ion-electron system (eV)
  ---------------------------------------------------
  alpha Z        PSCENC =         0.29607957
  Ewald energy   TEWEN  =       318.01082684
  -Hartree energ DENC   =     -2860.44585664
  -exchange      EXHF   =         0.00000000
  -V(xc)+E(xc)   XCENC  =        88.13790275
  PAW double counting   =      2456.41331976    -2668.09693425
  entropy T*S    EENTRO =        -0.00000000
  eigenvalues    EBANDS =      -119.44000483
  atomic energy  EATOM  =      2781.95410799
  ---------------------------------------------------
  free energy    TOTEN  =        -3.17055882 eV

  energy without entropy =       -3.17055882  energy(sigma->0) =       -3.17055882


--------------------------------------------------------------------------------------------------------




--------------------------------------- Iteration      1(   4)  ---------------------------------------


    TRIAL :  cpu time      0.3743: real time      0.3749
    CORREC:  cpu time      0.0010: real time      0.0010
    --------------------------------------------
      LOOP:  cpu time      0.3784: real time      0.3867

 eigenvalue-minimisations  :   192
 total energy-change (2. order) :-0.3024099E-01  (-0.3024099E-01)
 number of electron      22.0000000 magnetization 
 augmentation part       22.0000000 magnetization 

 DIPCOR: dipole corrections for dipol
 direction  3 min pos     1,
 dipolmoment           0.000000      0.000000     -0.000040 electrons x Angstroem
 Tr[quadrupol]     -3688.731095

 energy correction for charged system         0.000000 eV
 dipol+quadrupol energy correction           -0.000000 eV
 added-field ion interaction          0.000044 eV  (added to PSCEN)


 Free energy of the ion-electron system (eV)
  ---------------------------------------------------
  alpha Z        PSCENC =         0.29607957
  Ewald energy   TEWEN  =       318.01082684
  -Hartree energ DENC   =     -2860.44585664
  -exchange      EXHF   =         0.00000000
  -V(xc)+E(xc)   XCENC  =        88.13790275
  PAW double counting   =      2456.41331976    -2668.09693425
  entropy T*S    EENTRO =        -0.00000000
  eigenvalues    EBANDS =      -119.47024583
  atomic energy  EATOM  =      2781.95410799
  ---------------------------------------------------
  free energy    TOTEN  =        -3.20079981 eV

  energy without entropy =       -3.20079981  energy(sigma->0) =       -3.20079981


--------------------------------------------------------------------------------------------------------




--------------------------------------- Iteration      1(   5)  ---------------------------------------


    TRIAL :  cpu time      0.2507: real time      0.2512
    CORREC:  cpu time      0.0009: real time      0.0009
    CHARGE:  cpu time      2.0250: real time      2.0266
    --------------------------------------------
      LOOP:  cpu time      2.2795: real time      2.2893

 eigenvalue-minimisations  :   144
 total energy-change (2. order) :-0.1819123E-05  (-0.1819110E-05)
 number of electron      22.0000022 magnetization 
 augmentation part       14.0646973 magnetization 

 DIPCOR: dipole corrections for dipol
 direction  3 min pos     1,
 dipolmoment           0.000000      0.000000     -0.000040 electrons x Angstroem
 Tr[quadrupol]     -3688.731095

 energy correction for charged system         0.000000 eV
 dipol+quadrupol energy correction           -0.000000 eV
 added-field ion interaction          0.000044 eV  (added to PSCEN)


 Free energy of the ion-electron system (eV)
  ---------------------------------------------------
  alpha Z        PSCENC =         0.29607957
  Ewald energy   TEWEN  =       318.01082684
  -Hartree energ DENC   =     -2860.44585664
  -exchange      EXHF   =         0.00000000
  -V(xc)+E(xc)   XCENC  =        88.13790275
  PAW double counting   =      2456.41331976    -2668.09693425
  entropy T*S    EENTRO =        -0.00000000
  eigenvalues    EBANDS =      -119.47024764
  atomic energy  EATOM  =      2781.95410799
  ---------------------------------------------------
  free energy    TOTEN  =        -3.20080163 eV

  energy without entropy =       -3.20080163  energy(sigma->0) =       -3.20080163


--------------------------------------------------------------------------------------------------------




--------------------------------------- Iteration      1(   6)  ---------------------------------------


    POTLOK:  cpu time      0.2572: real time      0.2569
    SETDIJ:  cpu time      0.7468: real time      0.7473
    TRIAL :  cpu time      0.4146: real time      0.4666
    CORREC:  cpu time      3.2016: real time      3.2026
    CHARGE:  cpu time      2.0738: real time      2.0743
    --------------------------------------------
      LOOP:  cpu time      6.7040: real time      6.7675

 eigenvalue-minimisations  :     0
 total energy-change (2. order) : 0.1096138E+01  (-0.3422306E+00)
 number of electron      22.0000023 magnetization 
 augmentation part       14.2924373 magnetization 

 DIPCOR: dipole corrections for dipol
 direction  3 min pos     1,
 dipolmoment           0.000000      0.000000     -0.000619 electrons x Angstroem
 Tr[quadrupol]     -3688.958248

 energy correction for charged system         0.000000 eV
 dipol+quadrupol energy correction           -0.000000 eV
 added-field ion interaction          0.000684 eV  (added to PSCEN)


 Free energy of the ion-electron system (eV)
  ---------------------------------------------------
  alpha Z        PSCENC =         0.29602982
  Ewald energy   TEWEN  =       318.01082684
  -Hartree energ DENC   =     -2851.87811274
  -exchange      EXHF   =         0.00000000
  -V(xc)+E(xc)   XCENC  =        86.96673153
  PAW double counting   =      2519.22031174    -2726.45371072
  entropy T*S    EENTRO =        -0.00000000
  eigenvalues    EBANDS =      -130.22084851
  atomic energy  EATOM  =      2781.95410799
  ---------------------------------------------------
  free energy    TOTEN  =        -2.10466406 eV

  energy without entropy =       -2.10466406  energy(sigma->0) =       -2.10466406


--------------------------------------------------------------------------------------------------------




--------------------------------------- Iteration      1(   7)  ---------------------------------------


    POTLOK:  cpu time      0.2713: real time      0.2718
    SETDIJ:  cpu time      0.7442: real time      0.7449
    TRIAL :  cpu time      0.2221: real time      0.2219
    CORREC:  cpu time      3.3301: real time      3.3300
    CHARGE:  cpu time      1.9962: real time      1.9967
    --------------------------------------------
      LOOP:  cpu time      6.5800: real time      6.5815

 eigenvalue-minimisations  :     0
 total energy-change (2. order) :-0.3289788E+00  (-0.2393626E+00)
 number of electron      22.0000023 magnetization 
 augmentation part       14.2430498 magnetization 

 DIPCOR: dipole corrections for dipol
 direction  3 min pos     1,
 dipolmoment           0.000000      0.000000     -0.000278 electrons x Angstroem
 Tr[quadrupol]     -3688.685280

 energy correction for charged system         0.000000 eV
 dipol+quadrupol energy correction           -0.000000 eV
 added-field ion interaction          0.000307 eV  (added to PSCEN)


 Free energy of the ion-electron system (eV)
  ---------------------------------------------------
  alpha Z        PSCENC =         0.29610322
  Ewald energy   TEWEN  =       318.01082684
  -Hartree energ DENC   =     -2878.85640325
  -exchange      EXHF   =         0.00000000
  -V(xc)+E(xc)   XCENC  =        88.16883689
  PAW double counting   =      2536.17418656    -2751.94197177
  entropy T*S    EENTRO =        -0.00000000
  eigenvalues    EBANDS =       -96.23932938
  atomic energy  EATOM  =      2781.95410799
  ---------------------------------------------------
  free energy    TOTEN  =        -2.43364289 eV

  energy without entropy =       -2.43364289  energy(sigma->0) =       -2.43364289


--------------------------------------------------------------------------------------------------------




--------------------------------------- Iteration      1(   8)  ---------------------------------------


    POTLOK:  cpu time      0.2660: real time      0.2653
    SETDIJ:  cpu time      0.7421: real time      0.7428
    TRIAL :  cpu time      0.2131: real time      0.2130
    CORREC:  cpu time      3.1686: real time      3.1700
    CHARGE:  cpu time      1.9988: real time      1.9992
    --------------------------------------------
      LOOP:  cpu time      6.3932: real time      6.4044

 eigenvalue-minimisations  :     0
 total energy-change (2. order) :-0.2389607E+00  (-0.3949830E-01)
 number of electron      22.0000023 magnetization 
 augmentation part       14.2891172 magnetization 

 DIPCOR: dipole corrections for dipol
 direction  3 min pos     1,
 dipolmoment           0.000000      0.000000     -0.000254 electrons x Angstroem
 Tr[quadrupol]     -3688.725718

 energy correction for charged system         0.000000 eV
 dipol+quadrupol energy correction           -0.000000 eV
 added-field ion interaction          0.000281 eV  (added to PSCEN)


 Free energy of the ion-electron system (eV)
  ---------------------------------------------------
  alpha Z        PSCENC =         0.29640136
  Ewald energy   TEWEN  =       318.01082684
  -Hartree energ DENC   =     -2861.21372505
  -exchange      EXHF   =         0.00000000
  -V(xc)+E(xc)   XCENC  =        87.70080712
  PAW double counting   =      2521.14616319    -2733.92194799
  entropy T*S    EENTRO =        -0.00000000
  eigenvalues    EBANDS =      -116.64523707
  atomic energy  EATOM  =      2781.95410799
  ---------------------------------------------------
  free energy    TOTEN  =        -2.67260360 eV

  energy without entropy =       -2.67260360  energy(sigma->0) =       -2.67260360


--------------------------------------------------------------------------------------------------------




--------------------------------------- Iteration      1(   9)  ---------------------------------------


    POTLOK:  cpu time      0.2649: real time      0.2645
    SETDIJ:  cpu time      0.7415: real time      0.7421
    TRIAL :  cpu time      0.2081: real time      0.2080
    CORREC:  cpu time      3.1672: real time      3.1684
    CHARGE:  cpu time      2.0016: real time      2.0021
    --------------------------------------------
      LOOP:  cpu time      6.3883: real time      6.3985

 eigenvalue-minimisations  :     0
 total energy-change (2. order) :-0.3956539E-01  (-0.1445803E-01)
 number of electron      22.0000023 magnetization 
 augmentation part       14.2523768 magnetization 

 DIPCOR: dipole corrections for dipol
 direction  3 min pos     1,
 dipolmoment           0.000000      0.000000     -0.000100 electrons x Angstroem
 Tr[quadrupol]     -3688.723831

 energy correction for charged system         0.000000 eV
 dipol+quadrupol energy correction           -0.000000 eV
 added-field ion interaction          0.000111 eV  (added to PSCEN)


 Free energy of the ion-electron system (eV)
  ---------------------------------------------------
  alpha Z        PSCENC =         0.29630806
  Ewald energy   TEWEN  =       318.01082684
  -Hartree energ DENC   =     -2868.09654726
  -exchange      EXHF   =         0.00000000
  -V(xc)+E(xc)   XCENC  =        87.98326449
  PAW double counting   =      2527.95358095    -2742.31273738
  entropy T*S    EENTRO =        -0.00000000
  eigenvalues    EBANDS =      -108.50097268
  atomic energy  EATOM  =      2781.95410799
  ---------------------------------------------------
  free energy    TOTEN  =        -2.71216900 eV

  energy without entropy =       -2.71216900  energy(sigma->0) =       -2.71216900


--------------------------------------------------------------------------------------------------------




--------------------------------------- Iteration      1(  10)  ---------------------------------------


    POTLOK:  cpu time      0.2654: real time      0.2651
    SETDIJ:  cpu time      0.7465: real time      0.7471
    TRIAL :  cpu time      0.1966: real time      0.1965
    CORREC:  cpu time      3.1911: real time      3.1915
    CHARGE:  cpu time      2.0000: real time      2.0003
    --------------------------------------------
      LOOP:  cpu time      6.4128: real time      6.4137

 eigenvalue-minimisations  :     0
 total energy-change (2. order) :-0.1440323E-01  (-0.1521505E-01)
 number of electron      22.0000023 magnetization 
 augmentation part       14.2724128 magnetization 

 DIPCOR: dipole corrections for dipol
 direction  3 min pos     1,
 dipolmoment           0.000000      0.000000     -0.000063 electrons x Angstroem
 Tr[quadrupol]     -3688.741292

 energy correction for charged system         0.000000 eV
 dipol+quadrupol energy correction           -0.000000 eV
 added-field ion interaction          0.000070 eV  (added to PSCEN)


 Free energy of the ion-electron system (eV)
  ---------------------------------------------------
  alpha Z        PSCENC =         0.29620718
  Ewald energy   TEWEN  =       318.01082684
  -Hartree energ DENC   =     -2863.48202820
  -exchange      EXHF   =         0.00000000
  -V(xc)+E(xc)   XCENC  =        87.78884226
  PAW double counting   =      2525.69771620    -2738.47841561
  entropy T*S    EENTRO =        -0.00000000
  eigenvalues    EBANDS =      -114.51382888
  atomic energy  EATOM  =      2781.95410799
  ---------------------------------------------------
  free energy    TOTEN  =        -2.72657222 eV

  energy without entropy =       -2.72657222  energy(sigma->0) =       -2.72657222


--------------------------------------------------------------------------------------------------------




--------------------------------------- Iteration      1(  11)  ---------------------------------------


    POTLOK:  cpu time      0.2638: real time      0.2631
    SETDIJ:  cpu time      0.7426: real time      0.7432
    TRIAL :  cpu time      0.2078: real time      0.2077
    CORREC:  cpu time      3.1901: real time      3.1910
    CHARGE:  cpu time      1.9979: real time      1.9984
    --------------------------------------------
      LOOP:  cpu time      6.4071: real time      6.4168

 eigenvalue-minimisations  :     0
 total energy-change (2. order) :-0.1531953E-01  (-0.1327534E-02)
 number of electron      22.0000023 magnetization 
 augmentation part       14.2612224 magnetization 

 DIPCOR: dipole corrections for dipol
 direction  3 min pos     1,
 dipolmoment           0.000000      0.000000     -0.000000 electrons x Angstroem
 Tr[quadrupol]     -3688.739411

 energy correction for charged system         0.000000 eV
 dipol+quadrupol energy correction           -0.000000 eV
 added-field ion interaction          0.000000 eV  (added to PSCEN)


 Free energy of the ion-electron system (eV)
  ---------------------------------------------------
  alpha Z        PSCENC =         0.29605310
  Ewald energy   TEWEN  =       318.01082684
  -Hartree energ DENC   =     -2865.91415428
  -exchange      EXHF   =         0.00000000
  -V(xc)+E(xc)   XCENC  =        87.89743467
  PAW double counting   =      2526.77695902    -2740.02808033
  entropy T*S    EENTRO =        -0.00000000
  eigenvalues    EBANDS =      -111.73503876
  atomic energy  EATOM  =      2781.95410799
  ---------------------------------------------------
  free energy    TOTEN  =        -2.74189175 eV

  energy without entropy =       -2.74189175  energy(sigma->0) =       -2.74189175


--------------------------------------------------------------------------------------------------------




--------------------------------------- Iteration      1(  12)  ---------------------------------------


    POTLOK:  cpu time      0.2579: real time      0.2571
    SETDIJ:  cpu time      0.7462: real time      0.7468
    TRIAL :  cpu time      0.1984: real time      0.1983
    CORREC:  cpu time      3.1519: real time      3.1531
    CHARGE:  cpu time      1.9972: real time      1.9975
    --------------------------------------------
      LOOP:  cpu time      6.3652: real time      6.3667

 eigenvalue-minimisations  :     0
 total energy-change (2. order) :-0.1328303E-02  (-0.1369724E-02)
 number of electron      22.0000023 magnetization 
 augmentation part       14.2699368 magnetization 

 DIPCOR: dipole corrections for dipol
 direction  3 min pos     1,
 dipolmoment           0.000000      0.000000      0.000005 electrons x Angstroem
 Tr[quadrupol]     -3688.741990

 energy correction for charged system         0.000000 eV
 dipol+quadrupol energy correction           -0.000000 eV
 added-field ion interaction         -0.000005 eV  (added to PSCEN)


 Free energy of the ion-electron system (eV)
  ---------------------------------------------------
  alpha Z        PSCENC =         0.29603878
  Ewald energy   TEWEN  =       318.01082684
  -Hartree energ DENC   =     -2864.00716717
  -exchange      EXHF   =         0.00000000
  -V(xc)+E(xc)   XCENC  =        87.82407576
  PAW double counting   =      2525.14054607    -2737.91621762
  entropy T*S    EENTRO =        -0.00000000
  eigenvalues    EBANDS =      -114.04543071
  atomic energy  EATOM  =      2781.95410799
  ---------------------------------------------------
  free energy    TOTEN  =        -2.74322005 eV

  energy without entropy =       -2.74322005  energy(sigma->0) =       -2.74322005


--------------------------------------------------------------------------------------------------------




--------------------------------------- Iteration      1(  13)  ---------------------------------------


    POTLOK:  cpu time      0.2493: real time      0.2489
    SETDIJ:  cpu time      0.7447: real time      0.7453
    TRIAL :  cpu time      0.2079: real time      0.2085
    CORREC:  cpu time      3.1670: real time      3.1671
    CHARGE:  cpu time      1.9899: real time      1.9903
    --------------------------------------------
      LOOP:  cpu time      6.3761: real time      6.3776

 eigenvalue-minimisations  :     0
 total energy-change (2. order) :-0.1369718E-02  (-0.2472608E-03)
 number of electron      22.0000023 magnetization 
 augmentation part       14.2679815 magnetization 

 DIPCOR: dipole corrections for dipol
 direction  3 min pos     1,
 dipolmoment           0.000000      0.000000      0.000005 electrons x Angstroem
 Tr[quadrupol]     -3688.741101

 energy correction for charged system         0.000000 eV
 dipol+quadrupol energy correction           -0.000000 eV
 added-field ion interaction         -0.000006 eV  (added to PSCEN)


 Free energy of the ion-electron system (eV)
  ---------------------------------------------------
  alpha Z        PSCENC =         0.29603047
  Ewald energy   TEWEN  =       318.01082684
  -Hartree energ DENC   =     -2864.57365353
  -exchange      EXHF   =         0.00000000
  -V(xc)+E(xc)   XCENC  =        87.85544700
  PAW double counting   =      2524.95743561    -2738.03801331
  entropy T*S    EENTRO =        -0.00000000
  eigenvalues    EBANDS =      -113.20677083
  atomic energy  EATOM  =      2781.95410799
  ---------------------------------------------------
  free energy    TOTEN  =        -2.74458977 eV

  energy without entropy =       -2.74458977  energy(sigma->0) =       -2.74458977


--------------------------------------------------------------------------------------------------------




--------------------------------------- Iteration      1(  14)  ---------------------------------------


    POTLOK:  cpu time      0.2438: real time      0.2442
    SETDIJ:  cpu time      0.7424: real time      0.7422
    TRIAL :  cpu time      0.2159: real time      0.2166
    CORREC:  cpu time      3.3444: real time      3.3443
    CHARGE:  cpu time      1.9985: real time      1.9997
    --------------------------------------------
      LOOP:  cpu time      6.5506: real time      6.5614

 eigenvalue-minimisations  :     0
 total energy-change (2. order) :-0.2474163E-03  (-0.4082645E-04)
 number of electron      22.0000023 magnetization 
 augmentation part       14.2701912 magnetization 

 DIPCOR: dipole corrections for dipol
 direction  3 min pos     1,
 dipolmoment           0.000000      0.000000      0.000005 electrons x Angstroem
 Tr[quadrupol]     -3688.742950

 energy correction for charged system         0.000000 eV
 dipol+quadrupol energy correction           -0.000000 eV
 added-field ion interaction         -0.000006 eV  (added to PSCEN)


 Free energy of the ion-electron system (eV)
  ---------------------------------------------------
  alpha Z        PSCENC =         0.29603005
  Ewald energy   TEWEN  =       318.01082684
  -Hartree energ DENC   =     -2864.26663647
  -exchange      EXHF   =         0.00000000
  -V(xc)+E(xc)   XCENC  =        87.84254272
  PAW double counting   =      2524.74524846    -2737.74813180
  entropy T*S    EENTRO =        -0.00000000
  eigenvalues    EBANDS =      -113.57882498
  atomic energy  EATOM  =      2781.95410799
  ---------------------------------------------------
  free energy    TOTEN  =        -2.74483719 eV

  energy without entropy =       -2.74483719  energy(sigma->0) =       -2.74483719


--------------------------------------------------------------------------------------------------------




--------------------------------------- Iteration      1(  15)  ---------------------------------------


    POTLOK:  cpu time      0.2439: real time      0.2432
    SETDIJ:  cpu time      0.7460: real time      0.7466
    TRIAL :  cpu time      0.2133: real time      0.2131
    CORREC:  cpu time      3.1395: real time      3.1400
    CHARGE:  cpu time      1.9968: real time      1.9980
    --------------------------------------------
      LOOP:  cpu time      6.3448: real time      6.3547

 eigenvalue-minimisations  :     0
 total energy-change (2. order) :-0.4076540E-04  (-0.3898376E-04)
 number of electron      22.0000023 magnetization 
 augmentation part       14.2692770 magnetization 

 DIPCOR: dipole corrections for dipol
 direction  3 min pos     1,
 dipolmoment           0.000000      0.000000      0.000005 electrons x Angstroem
 Tr[quadrupol]     -3688.741985

 energy correction for charged system         0.000000 eV
 dipol+quadrupol energy correction           -0.000000 eV
 added-field ion interaction         -0.000006 eV  (added to PSCEN)


 Free energy of the ion-electron system (eV)
  ---------------------------------------------------
  alpha Z        PSCENC =         0.29602997
  Ewald energy   TEWEN  =       318.01082684
  -Hartree energ DENC   =     -2864.58129239
  -exchange      EXHF   =         0.00000000
  -V(xc)+E(xc)   XCENC  =        87.85534875
  PAW double counting   =      2524.98739184    -2738.07543804
  entropy T*S    EENTRO =        -0.00000000
  eigenvalues    EBANDS =      -113.19185291
  atomic energy  EATOM  =      2781.95410799
  ---------------------------------------------------
  free energy    TOTEN  =        -2.74487795 eV

  energy without entropy =       -2.74487795  energy(sigma->0) =       -2.74487795


--------------------------------------------------------------------------------------------------------




--------------------------------------- Iteration      1(  16)  ---------------------------------------


    POTLOK:  cpu time      0.2430: real time      0.2426
    SETDIJ:  cpu time      0.7419: real time      0.7425
    TRIAL :  cpu time      0.2010: real time      0.2009
    CORREC:  cpu time      3.1412: real time      3.1418
    CHARGE:  cpu time      1.9995: real time      2.0007
    --------------------------------------------
      LOOP:  cpu time      6.3323: real time      6.3427

 eigenvalue-minimisations  :     0
 total energy-change (2. order) :-0.3901296E-04  (-0.5984127E-05)
 number of electron      22.0000023 magnetization 
 augmentation part       14.2695771 magnetization 

 DIPCOR: dipole corrections for dipol
 direction  3 min pos     1,
 dipolmoment           0.000000      0.000000      0.000006 electrons x Angstroem
 Tr[quadrupol]     -3688.742149

 energy correction for charged system         0.000000 eV
 dipol+quadrupol energy correction           -0.000000 eV
 added-field ion interaction         -0.000006 eV  (added to PSCEN)


 Free energy of the ion-electron system (eV)
  ---------------------------------------------------
  alpha Z        PSCENC =         0.29602982
  Ewald energy   TEWEN  =       318.01082684
  -Hartree energ DENC   =     -2864.49243858
  -exchange      EXHF   =         0.00000000
  -V(xc)+E(xc)   XCENC  =        87.85150703
  PAW double counting   =      2525.00929214    -2738.05686521
  entropy T*S    EENTRO =        -0.00000000
  eigenvalues    EBANDS =      -113.31737701
  atomic energy  EATOM  =      2781.95410799
  ---------------------------------------------------
  free energy    TOTEN  =        -2.74491697 eV

  energy without entropy =       -2.74491697  energy(sigma->0) =       -2.74491697


--------------------------------------------------------------------------------------------------------




--------------------------------------- Iteration      1(  17)  ---------------------------------------


    POTLOK:  cpu time      0.2451: real time      0.2447
    SETDIJ:  cpu time      0.7428: real time      0.7434
    TRIAL :  cpu time      0.2083: real time      0.2082
    CORREC:  cpu time      3.1492: real time      3.1498
    CHARGE:  cpu time      1.9989: real time      1.9993
    --------------------------------------------
      LOOP:  cpu time      6.3546: real time      6.3642

 eigenvalue-minimisations  :     0
 total energy-change (2. order) :-0.5923157E-05  (-0.1223678E-05)
 number of electron      22.0000023 magnetization 
 augmentation part       14.2691941 magnetization 

 DIPCOR: dipole corrections for dipol
 direction  3 min pos     1,
 dipolmoment           0.000000      0.000000      0.000006 electrons x Angstroem
 Tr[quadrupol]     -3688.741771

 energy correction for charged system         0.000000 eV
 dipol+quadrupol energy correction           -0.000000 eV
 added-field ion interaction         -0.000006 eV  (added to PSCEN)


 Free energy of the ion-electron system (eV)
  ---------------------------------------------------
  alpha Z        PSCENC =         0.29602975
  Ewald energy   TEWEN  =       318.01082684
  -Hartree energ DENC   =     -2864.55140876
  -exchange      EXHF   =         0.00000000
  -V(xc)+E(xc)   XCENC  =        87.85355934
  PAW double counting   =      2525.07248945    -2738.13429198
  entropy T*S    EENTRO =        -0.00000000
  eigenvalues    EBANDS =      -113.24623551
  atomic energy  EATOM  =      2781.95410799
  ---------------------------------------------------
  free energy    TOTEN  =        -2.74492289 eV

  energy without entropy =       -2.74492289  energy(sigma->0) =       -2.74492289


--------------------------------------------------------------------------------------------------------




--------------------------------------- Iteration      1(  18)  ---------------------------------------


    POTLOK:  cpu time      0.2435: real time      0.2430
    SETDIJ:  cpu time      0.7465: real time      0.7471
    TRIAL :  cpu time      0.1959: real time      0.1958
    CORREC:  cpu time      3.1467: real time      3.1475
    CHARGE:  cpu time      2.0064: real time      2.0068
    --------------------------------------------
      LOOP:  cpu time      6.3526: real time      6.3541

 eigenvalue-minimisations  :     0
 total energy-change (2. order) :-0.1233866E-05  (-0.8694161E-06)
 number of electron      22.0000023 magnetization 
 augmentation part       14.2693244 magnetization 

 DIPCOR: dipole corrections for dipol
 direction  3 min pos     1,
 dipolmoment           0.000000      0.000000      0.000006 electrons x Angstroem
 Tr[quadrupol]     -3688.741855

 energy correction for charged system         0.000000 eV
 dipol+quadrupol energy correction           -0.000000 eV
 added-field ion interaction         -0.000006 eV  (added to PSCEN)


 Free energy of the ion-electron system (eV)
  ---------------------------------------------------
  alpha Z        PSCENC =         0.29602974
  Ewald energy   TEWEN  =       318.01082684
  -Hartree energ DENC   =     -2864.49578739
  -exchange      EXHF   =         0.00000000
  -V(xc)+E(xc)   XCENC  =        87.85130912
  PAW double counting   =      2525.03167350    -2738.07921829
  entropy T*S    EENTRO =        -0.00000000
  eigenvalues    EBANDS =      -113.31386563
  atomic energy  EATOM  =      2781.95410799
  ---------------------------------------------------
  free energy    TOTEN  =        -2.74492412 eV

  energy without entropy =       -2.74492412  energy(sigma->0) =       -2.74492412


--------------------------------------------------------------------------------------------------------




--------------------------------------- Iteration      1(  19)  ---------------------------------------


    POTLOK:  cpu time      0.2445: real time      0.2441
    SETDIJ:  cpu time      0.7415: real time      0.7421
    TRIAL :  cpu time      0.2300: real time      0.2300
    CORREC:  cpu time      3.3099: real time      3.3112
    EDDIAG:  cpu time      0.1774: real time      0.1745
    CHARGE:  cpu time      2.0067: real time      2.0072
    --------------------------------------------
      LOOP:  cpu time      6.7238: real time      6.7232

 eigenvalue-minimisations  :     0
 total energy-change (2. order) :-0.8721072E-06  (-0.2556445E-06)
 number of electron      22.0000023 magnetization 
 augmentation part       14.2692921 magnetization 

 DIPCOR: dipole corrections for dipol
 direction  3 min pos     1,
 dipolmoment           0.000000      0.000000      0.000006 electrons x Angstroem
 Tr[quadrupol]     -3688.741815

 energy correction for charged system         0.000000 eV
 dipol+quadrupol energy correction           -0.000000 eV
 added-field ion interaction         -0.000006 eV  (added to PSCEN)


 Free energy of the ion-electron system (eV)
  ---------------------------------------------------
  alpha Z        PSCENC =         0.29602974
  Ewald energy   TEWEN  =       318.01082684
  -Hartree energ DENC   =     -2864.50118390
  -exchange      EXHF   =         0.00000000
  -V(xc)+E(xc)   XCENC  =        87.85174892
  PAW double counting   =      2525.02151738    -2738.07492538
  entropy T*S    EENTRO =        -0.00000000
  eigenvalues    EBANDS =      -113.30304658
  atomic energy  EATOM  =      2781.95410799
  ---------------------------------------------------
  free energy    TOTEN  =        -2.74492500 eV

  energy without entropy =       -2.74492500  energy(sigma->0) =       -2.74492500


--------------------------------------------------------------------------------------------------------


  average scaling for gradient   1.0008


 average (electrostatic) potential at core
  the test charge radii are     0.9430
  (the norm of the test charge is              1.0000)
       1 -73.6073       2 -73.6073
 
 
 
 E-fermi :  -4.4333     XC(G=0):  -0.1396     alpha+bet : -0.0321

 Fermi energy:        -4.4333225859

 k-point     1 :       0.0000    0.0000    0.0000
  band No.  band energies     occupation 
      1      -6.4089      2.00000
      2      -5.5881      2.00000
      3      -5.5881      2.00000
      4      -5.1418      2.00000
      5      -5.0758      2.00000
      6      -5.0758      2.00000
      7      -4.8584      2.00000
      8      -4.8584      2.00000
      9      -4.6941      2.00000
     10      -4.6941      2.00000
     11      -4.6686      2.00000
     12      -3.1464      0.00000
     13      -1.1264      0.00000
     14      -1.1263      0.00000
     15      -0.5949      0.00000
     16       0.0335      0.00000
     17       0.2887      0.00000
     18       0.2892      0.00000
     19       0.3215      0.00000
     20       0.3259      0.00000
     21       0.3525      0.00000
     22       0.3619      0.00000
     23       0.4334      0.00000
     24       0.5452      0.00000
     25       0.5903      0.00000
     26       0.6129      0.00000
     27       0.6158      0.00000
     28       0.6505      0.00000
     29       0.6595      0.00000
     30       0.6671      0.00000
     31       0.6693      0.00000
     32       0.6760      0.00000
     33       0.6920      0.00000
     34       0.7360      0.00000
     35       0.7906      0.00000
     36       0.8010      0.00000
     37       0.9263      0.00000
     38       0.9533      0.00000
     39       0.9655      0.00000
     40       0.9659      0.00000
     41       0.9953      0.00000
     42       1.0055      0.00000
     43       1.0191      0.00000
     44       1.1256      0.00000
     45       1.1902      0.00000
     46       1.2399      0.00000
     47       1.3177      0.00000
     48       1.3262      0.00000


--------------------------------------------------------------------------------------------------------


 soft charge-density along one line, spin component           1
         0         1         2         3         4         5         6         7         8         9
 total charge-density along one line
 
 pseudopotential strength for first ion, spin component:           1
-10.054   0.000  -0.043  -0.000   0.000   0.638  -0.000   0.032
  0.000 -10.013   0.000   0.033  -0.000  -0.000   0.608  -0.000
 -0.043   0.000 -10.005  -0.000   0.000   0.032  -0.000   0.601
 -0.000   0.033  -0.000 -10.013  -0.000   0.000  -0.025   0.000
  0.000  -0.000   0.000  -0.000 -10.046  -0.000   0.000   0.000
  0.638  -0.000   0.032   0.000  -0.000   6.589  -0.000  -0.019
 -0.000   0.608  -0.000  -0.025   0.000  -0.000   6.607   0.000
  0.032  -0.000   0.601   0.000   0.000  -0.019   0.000   6.611
  0.000  -0.025   0.000   0.608   0.000   0.000   0.015  -0.000
 -0.000   0.000   0.000   0.000   0.632  -0.000  -0.000   0.000
 -0.010  -0.000  -0.006   0.000  -0.000  -0.003  -0.000  -0.002
 -0.018  -0.000  -0.010   0.000  -0.000  -0.008  -0.000  -0.005
  0.021  -0.000   0.012   0.000   0.022  -0.010  -0.000  -0.006
  0.000  -0.022   0.000   0.022   0.000   0.000   0.010   0.000
 -0.021   0.000  -0.012  -0.000   0.022   0.010   0.000   0.006
  0.023  -0.000   0.013  -0.000   0.023  -0.007  -0.000  -0.004
 -0.000  -0.023  -0.000   0.023  -0.000   0.000   0.007   0.000
 -0.023  -0.000  -0.013  -0.000   0.023   0.007   0.000   0.004
 total augmentation occupancy for first ion, spin component:           1
  1.972   0.000  -0.010   0.000   0.000   0.007   0.000   0.013   0.000  -0.000   0.107   0.003  -0.077   0.000   0.077   0.032
  0.000   1.984   0.000   0.005   0.000   0.000  -0.010   0.000  -0.007   0.000   0.000   0.000   0.000   0.037   0.000   0.000
 -0.010   0.000   1.983   0.000  -0.000   0.013   0.000  -0.009   0.000   0.000   0.062   0.002  -0.044   0.000   0.044   0.018
  0.000   0.005   0.000   1.984   0.000   0.000  -0.007   0.000  -0.010   0.000   0.000   0.000   0.000  -0.037   0.000   0.000
  0.000   0.000  -0.000   0.000   1.979  -0.000   0.000   0.000   0.000  -0.003  -0.000  -0.000  -0.037   0.000  -0.037   0.032
  0.007   0.000   0.013   0.000  -0.000   0.006   0.000   0.004   0.000  -0.000  -0.074   0.004  -0.013   0.000   0.013   0.001
  0.000  -0.010   0.000  -0.007   0.000   0.000   0.002   0.000  -0.001   0.000   0.000   0.000   0.000   0.004   0.000   0.000
  0.013   0.000  -0.009   0.000   0.000   0.004   0.000   0.002   0.000  -0.000  -0.043   0.002  -0.008   0.000   0.008   0.001
  0.000  -0.007   0.000  -0.010   0.000   0.000  -0.001   0.000   0.002   0.000   0.000   0.000   0.000  -0.004   0.000   0.000
 -0.000   0.000   0.000   0.000  -0.003  -0.000   0.000  -0.000   0.000   0.003   0.000  -0.000  -0.004   0.000  -0.004   0.000
  0.107   0.000   0.062   0.000  -0.000  -0.074   0.000  -0.043   0.000   0.000   1.460  -0.060   0.176   0.000  -0.176  -0.016
  0.003   0.000   0.002   0.000  -0.000   0.004   0.000   0.002   0.000  -0.000  -0.060   0.003  -0.008   0.000   0.008   0.001
 -0.077   0.000  -0.044   0.000  -0.037  -0.013   0.000  -0.008   0.000  -0.004   0.176  -0.008   0.038   0.000  -0.024  -0.005
  0.000   0.037   0.000  -0.037   0.000   0.000   0.004   0.000  -0.004   0.000   0.000   0.000   0.000   0.013   0.000   0.000
  0.077   0.000   0.044   0.000  -0.037   0.013   0.000   0.008   0.000  -0.004  -0.176   0.008  -0.024   0.000   0.038   0.003
  0.032   0.000   0.018   0.000   0.032   0.001   0.000   0.001   0.000   0.000  -0.016   0.001  -0.005   0.000   0.003   0.001
  0.000  -0.032   0.000   0.032   0.000   0.000  -0.000   0.000   0.000   0.000   0.000   0.000   0.000  -0.002   0.000   0.000
 -0.032   0.000  -0.018   0.000   0.032  -0.001   0.000  -0.001   0.000   0.000   0.016  -0.001   0.003   0.000  -0.005  -0.000


------------------------ aborting loop because EDIFF is reached ----------------------------------------


    FORLOC:  cpu time      0.0096: real time      0.0096
    FORNL :  cpu time      0.0507: real time      0.0507
    STRESS:  cpu time      0.1293: real time      0.1294
    FORCOR:  cpu time      0.2266: real time      0.2271
    OFIELD:  cpu time      0.0002: real time      0.0002

 ---------------------------------------------------------------------------------------------

         DFTD3 V3.0 Rev 1        
 IVDW         = 11
 DF pbe       
 parameters
 VDW_S6       =    1.0000
 VDW_S8       =    0.7220
 VDW_SR       =    1.2170
 rs18     =    1.0000
 alpha6   =   14.0000
 alpha8   =   16.0000
 k1-k3    =   16.0000    1.3333   -4.0000
 VDW_RADIUS   =   50.2022 A
 VDW_CNRADIUS =   21.1671 A
 Edisp (eV)   -0.00101

 E6    (eV) :    -0.0001
 E8    (eV) :    -0.0010
 % E8        : 94.23
    FORVDW:  cpu time      0.0147: real time      0.0149

  FORCE on cell =-STRESS in cart. coord.  units (eV):
  Direction    XX          YY          ZZ          XY          YZ          ZX
  --------------------------------------------------------------------------------------
  Alpha Z     0.29604     0.29604     0.29604
  Ewald     243.19286   243.19286  -168.37490  -385.27896    -0.00000    -0.00000
  Hartree  1058.63865  1058.63865   747.22042  -285.57351    -0.00000    -0.00000
  E(xc)    -128.23756  -128.23756  -128.51036    -0.27272     0.00000     0.00000
  Local   -1484.39191 -1484.39191  -768.32425   663.93425     0.00000     0.00000
  n-local   -55.20854   -55.20854   -53.36032     1.84852    -0.00000    -0.00000
  augment   184.10149   184.10149   186.84070     2.74036     0.00000    -0.00000
  Kinetic   181.35300   181.35300   184.19487     2.84131     0.00000     0.00000
  Fock        0.00000     0.00000     0.00000     0.00000     0.00000     0.00000
  vdW         0.00397     0.00397    -0.00003    -0.00401    -0.00000     0.00000
  -------------------------------------------------------------------------------------
  Total      -0.25200    -0.25200    -0.01783     0.23524     0.00000     0.00000
  in kB      -0.04086    -0.04086    -0.00289     0.03814     0.00000     0.00000
  external pressure =       -0.03 kB  Pullay stress =        0.00 kB


 VOLUME and BASIS-vectors are now :
 -----------------------------------------------------------------------------
  energy-cutoff  :      520.00
  volume of cell :     9881.61
      direct lattice vectors                 reciprocal lattice vectors
    21.138852197  0.000000000  0.000000000     0.047306258  0.000000000  0.000000000
     0.000000000 21.138852197  0.000000000     0.000000000  0.047306258  0.000000000
     0.000000000  0.000000000 22.113885220     0.000000000  0.000000000  0.045220457

  length of vectors
    21.138852197 21.138852197 22.113885220     0.047306258  0.047306258  0.045220457


 FORCES acting on ions:
    Electron-Ion                     Ewald-Force                    Non-Local-Force
 -----------------------------------------------------------------------------------------------
   -.253E+03 0.253E+03 0.282E-04   0.243E+03 -.243E+03 -.168E-16   0.948E+01 -.948E+01 -.158E-20
   0.253E+03 -.253E+03 0.282E-04   -.243E+03 0.243E+03 0.413E-16   -.948E+01 0.948E+01 0.132E-20
 -----------------------------------------------------------------------------------------------
   0.485E-06 0.625E-07 0.548E-04   0.000E+00 0.000E+00 0.245E-16   0.000E+00 0.000E+00 -.266E-21
 
 
 POSITION                                       TOTAL-FORCE (eV/Angst)
 -----------------------------------------------------------------------------------
     11.36279     11.88995     13.59669        -0.150490      0.150490     -0.000000
      9.77606     13.47667     13.59669         0.150490     -0.150490      0.000000
 -----------------------------------------------------------------------------------
    total drift:                                0.000000      0.000000      0.000055


--------------------------------------------------------------------------------------------------------



  FREE ENERGIE OF THE ION-ELECTRON SYSTEM (eV)
  ---------------------------------------------------
  free  energy   TOTEN  =        -2.74593462 eV

  energy  without entropy=       -2.74593462  energy(sigma->0) =       -2.74593462
 


--------------------------------------------------------------------------------------------------------


    POTLOK:  cpu time      1.0082: real time      1.0082


--------------------------------------------------------------------------------------------------------


     LOOP+:  cpu time     97.0473: real time     97.2973
    4ORBIT:  cpu time      0.0000: real time      0.0000

 total amount of memory used by VASP MPI-rank0    58507. kBytes
=======================================================================

   base      :      30000. kBytes
   nonlr-proj:        364. kBytes
   fftplans  :      11368. kBytes
   grid      :      15959. kBytes
   one-center:         15. kBytes
   wavefun   :        801. kBytes
 
  
  
 General timing and accounting informations for this job:
 ========================================================
  
                  Total CPU time used (sec):      112.925
                            User time (sec):      111.473
                          System time (sec):        1.453
                         Elapsed time (sec):      114.473
  
                   Maximum memory used (kb):      822016.
                   Average memory used (kb):          N/A
  
                          Minor page faults:        35133
                          Major page faults:            0
                 Voluntary context switches:         6198
