 vasp.6.3.0 20Jan22 (build Apr  1 2022 16:44:48) complex                         
 executed on        HPECrayEX_GCC date 2023.01.10  04:08:17
 running  512 mpi-ranks, with    1 threads/rank
 distrk:  each k-point on  256 cores,    2 groups
 distr:  one band on NCORE=   4 cores,   64 groups


--------------------------------------------------------------------------------------------------------


 INCAR:
   SYSTEM = MgO-rocksalt
   ISMEAR = 0
   SIGMA = 0.05
   EDIFF = 1E-6
   ALGO = ALL
   ISTART = 0
   IBRION = -1
   NSW = 0
   ISYM = 2
   LHFCALC = .TRUE.
   GGA = B5
   AEXX = 0.2
   AGGAX = 0.72
   AGGAC = 0.81
   ALDAC = 0.19
   IVDW = 1
   VDW_S6 = 1.05
   ENCUT = 520
   PREC = Accurate
   LASPH = .TRUE.
   LREAL = Auto
   ISPIN = 1
   NELM = 200
   NELMIN = 8
   NCORE = 4
   KPAR = 2
   LWAVE = .FALSE.
   LCHARG = .FALSE.

 POTCAR:    PAW_PBE Ag 02Apr2005                  
 -----------------------------------------------------------------------------
|                                                                             |
|           W    W    AA    RRRRR   N    N  II  N    N   GGGG   !!!           |
|           W    W   A  A   R    R  NN   N  II  NN   N  G    G  !!!           |
|           W    W  A    A  R    R  N N  N  II  N N  N  G       !!!           |
|           W WW W  AAAAAA  RRRRR   N  N N  II  N  N N  G  GGG   !            |
|           WW  WW  A    A  R   R   N   NN  II  N   NN  G    G                |
|           W    W  A    A  R    R  N    N  II  N    N   GGGG   !!!           |
|                                                                             |
|     You have selected ISYM=2 for a HF type calculation. This will           |
|     symmetrize the charge density but not the exchange potential. I         |
|     suggest to use ISYM=3 instead. This uses symmetry to obtain the         |
|     orbitals at all k-points in the Brillouin zone, but does not apply      |
|     symmetry to the Hartree potential directly. The resultant charge        |
|     might have lower symmetry than the crystal but, at least, Hartree       |
|     and exchange are fully compatible.                                      |
|                                                                             |
 -----------------------------------------------------------------------------

 POTCAR:    PAW_PBE Ag 02Apr2005                  
   SHA256 =  6550cfa3543261e132c169e1b98a529204624d72be14e2da2e0242bcb74a174d Ag/POTCAR             
   COPYR  = (c) Copyright 02Apr2005 Georg Kresse                                                    
   COPYR  = This file is part of the software VASP. Any use, copying, and all other rights are regul
   COPYR  = If you do not have a valid VASP license, you may not use, copy or distribute this file. 
   VRHFIN =Ag : s1 d10                                                                              
   LEXCH  = PE                                                                                      
   EATOM  =  1037.2675 eV,   76.2370 Ry                                                             
                                                                                                    
   TITEL  = PAW_PBE Ag 02Apr2005                                                                    
   LULTRA =        F    use ultrasoft PP ?                                                          
   IUNSCR =        1    unscreen: 0-lin 1-nonlin 2-no                                               
   RPACOR =    2.000    partial core radius                                                         
   POMASS =  107.868; ZVAL   =   11.000    mass and valenz                                          
   RCORE  =    2.500    outmost cutoff radius                                                       
   RWIGS  =    2.840; RWIGS  =    1.503    wigner-seitz radius (au A)                               
   ENMAX  =  249.844; ENMIN  =  187.383 eV                                                          
   ICORE  =        3    local potential                                                             
   LCOR   =        T    correct aug charges                                                         
   LPAW   =        T    paw PP                                                                      
   EAUG   =  412.496                                                                                
   DEXC   =    0.000                                                                                
   RMAX   =    2.560    core radius for proj-oper                                                   
   RAUG   =    1.300    factor for augmentation sphere                                              
   RDEP   =    2.576    radius for radial grids                                                     
   RDEPT  =    2.072    core radius for aug-charge                                                  
                                                                                                    
   Atomic configuration                                                                             
   12 entries                                                                                       
     n  l   j            E        occ.                                                              
     1  0  0.50    -25324.9161   2.0000                                                             
     2  0  0.50     -3728.5341   2.0000                                                             
     2  1  1.50     -3344.0404   6.0000                                                             
     3  0  0.50      -683.5581   2.0000                                                             
     3  1  1.50      -557.3225   6.0000                                                             
     3  2  2.50      -358.3853  10.0000                                                             
     4  0  0.50       -95.0341   2.0000                                                             
     4  1  1.50       -58.5511   6.0000                                                             
     4  2  2.50        -7.4440  10.0000                                                             
     5  0  0.50        -4.4045   1.0000                                                             
     5  1  0.50        -1.3606   0.0000                                                             
     4  3  2.50        -1.3606   0.0000                                                             
   Description                                                                                      
     l       E           TYP  RCUT    TYP  RCUT                                                     
     2     -7.4439781     23  2.400                                                                 
     2     -8.8045607     23  2.400                                                                 
     0     -4.4044681     23  2.400                                                                 
     0      1.9520038     23  2.400                                                                 
     1     -1.3605826     23  2.500                                                                 
     1     27.2116520     23  2.500                                                                 
     3     -4.0817478     23  2.400                                                                 
  local pseudopotential read in
  partial core-charges read in
  partial kinetic energy density read in
  atomic valenz-charges read in
  non local Contribution for L=           2  read in
    real space projection operators read in
  non local Contribution for L=           2  read in
    real space projection operators read in
  non local Contribution for L=           0  read in
    real space projection operators read in
  non local Contribution for L=           0  read in
    real space projection operators read in
  non local Contribution for L=           1  read in
    real space projection operators read in
  non local Contribution for L=           1  read in
    real space projection operators read in
    PAW grid and wavefunctions read in

   number of l-projection  operators is LMAX  =           6
   number of lm-projection operators is LMMAX =          18

 -----------------------------------------------------------------------------
|                                                                             |
|               ----> ADVICE to this user running VASP <----                  |
|                                                                             |
|     You have a (more or less) 'small supercell' and for smaller cells       |
|     it is recommended to use the reciprocal-space projection scheme!        |
|     The real-space optimization is not efficient for small cells and it     |
|     is also less accurate ...                                               |
|     Therefore, set LREAL=.FALSE. in the INCAR file.                         |
|                                                                             |
 -----------------------------------------------------------------------------

 Optimization of the real space projectors (new method)

 maximal supplied QI-value         = 15.12
 optimisation between [QCUT,QGAM] = [ 11.64, 23.28] = [ 37.95,151.78] Ry 
 Optimized for a Real-space Cutoff    1.45 Angstroem

   l    n(q)    QCUT    max X(q) W(low)/X(q) W(high)/X(q)  e(spline) 
   2      9    11.641    53.897    0.22E-03    0.42E-04    0.28E-06
   2      9    11.641    52.416    0.23E-03    0.44E-04    0.29E-06
   0     10    11.641   122.045    0.51E-04    0.25E-04    0.16E-06
   0     10    11.641    73.629    0.49E-04    0.24E-04    0.16E-06
   1     10    11.641    15.255    0.99E-04    0.55E-04    0.11E-06
   1     10    11.641     9.562    0.81E-04    0.47E-04    0.95E-07
 -----------------------------------------------------------------------------
|                                                                             |
|               ----> ADVICE to this user running VASP <----                  |
|                                                                             |
|     You enforced a specific xc type in the INCAR file but a different       |
|     type was found in the POTCAR file.                                      |
|     I HOPE YOU KNOW WHAT YOU ARE DOING!                                     |
|                                                                             |
 -----------------------------------------------------------------------------

  PAW_PBE Ag 02Apr2005                  :
 energy of atom  1       EATOM=-1037.2675
 kinetic energy error for atom=    0.0047 (will be added to EATOM!!)


 POSCAR: Ag Mg  O
  positions in direct lattice
  No initial velocities read in
 exchange correlation table for  LEXCH =       12
   RHO(1)=    0.500       N(1)  =     2000
   RHO(2)=  100.500       N(2)  =     4000



--------------------------------------------------------------------------------------------------------


 ion  position               nearest neighbor table
   1  0.400  0.429  0.610-   2 2.60   4 3.42
   2  0.400  0.512  0.697-   1 2.60   4 2.64   3 2.77
   3  0.401  0.641  0.713-   4 2.63   2 2.77
   4  0.400  0.590  0.604-   3 2.63   2 2.64   1 3.42

  LATTYP: Found a simple tetragonal cell.
 ALAT       =    21.1388521970
 C/A-ratio  =     1.0461251639
  
  Lattice vectors:
  
 A1 = (  21.1388521970,   0.0000000000,   0.0000000000)
 A2 = (   0.0000000000,  21.1388521970,   0.0000000000)
 A3 = (   0.0000000000,   0.0000000000,  22.1138852197)


Analysis of symmetry for initial positions (statically):
=====================================================================
 Subroutine PRICEL returns:
 Original cell was already a primitive cell.
 

 Routine SETGRP: Setting up the symmetry group for a 
 simple tetragonal supercell.


 Subroutine GETGRP returns: Found  1 space group operations
 (whereof  1 operations were pure point group operations)
 out of a pool of 16 trial point group operations.


The static configuration has the point symmetry C_1 .


Analysis of symmetry for dynamics (positions and initial velocities):
=====================================================================
 Subroutine PRICEL returns:
 Original cell was already a primitive cell.
 

 Routine SETGRP: Setting up the symmetry group for a 
 simple tetragonal supercell.


 Subroutine GETGRP returns: Found  1 space group operations
 (whereof  1 operations were pure point group operations)
 out of a pool of 16 trial point group operations.


The dynamic configuration has the point symmetry C_1 .


Analysis of constrained symmetry for selective dynamics:
=====================================================================
 Subroutine PRICEL returns:
 Original cell was already a primitive cell.
 

 Routine SETGRP: Setting up the symmetry group for a 
 simple tetragonal supercell.


 Subroutine GETGRP returns: Found  1 space group operations
 (whereof  1 operations were pure point group operations)
 out of a pool of 16 trial point group operations.


The constrained configuration has the point symmetry C_1 .


 Subroutine INISYM returns: Found  1 space group operations
 (whereof  1 operations are pure point group operations),
 and found     1 'primitive' translations


----------------------------------------------------------------------------------------

                                     Primitive cell                                     

  volume of cell :    9881.6133

  direct lattice vectors                    reciprocal lattice vectors
    21.138852197  0.000000000  0.000000000     0.047306258  0.000000000  0.000000000
     0.000000000 21.138852197  0.000000000     0.000000000  0.047306258  0.000000000
     0.000000000  0.000000000 22.113885220     0.000000000  0.000000000  0.045220457

  length of vectors
    21.138852197 21.138852197 22.113885220     0.047306258  0.047306258  0.045220457

  position of ions in fractional coordinates (direct lattice)
     0.400075541  0.428539559  0.610367047
     0.400239325  0.511504721  0.697317580
     0.400574317  0.641329452  0.712924298
     0.400203530  0.589975707  0.604409927

  ion indices of the primitive-cell ions
   primitive index   ion index
                 1           1
                 2           2
                 3           3
                 4           4

----------------------------------------------------------------------------------------



 KPOINTS: KPOINTS created by Atomic Simulation Env

Automatic generation of k-mesh.
 Grid dimensions read from file:
 generate k-points for:    1    1    1

 Generating k-lattice:

  Cartesian coordinates                     Fractional coordinates (reciprocal lattice)
     0.047306258  0.000000000  0.000000000     1.000000000  0.000000000  0.000000000
     0.000000000  0.047306258  0.000000000     0.000000000  1.000000000  0.000000000
     0.000000000  0.000000000  0.045220457     0.000000000  0.000000000  1.000000000

  Length of vectors
     0.047306258  0.047306258  0.045220457

  Shift w.r.t. Gamma in fractional coordinates (k-lattice)
     0.000000000  0.000000000  0.000000000

 
 Subroutine IBZKPT returns following result:
 ===========================================
 
 Found      1 irreducible k-points:
 
 Following reciprocal coordinates:
            Coordinates               Weight
  0.000000  0.000000  0.000000      1.000000
 
 Following cartesian coordinates:
            Coordinates               Weight
  0.000000  0.000000  0.000000      1.000000
 
 
 Subroutine IBZKPT_HF returns following result:
 ==============================================
 
 Found      1 k-points in 1st BZ
 the following      1 k-points will be used (e.g. in the exchange kernel)
 Following reciprocal coordinates:   # in IRBZ
  0.000000  0.000000  0.000000    1.00000000   1 t-inv F


--------------------------------------------------------------------------------------------------------




 Dimension of arrays:
   k-points           NKPTS =      1   k-points in BZ     NKDIM =      1   number of bands    NBANDS=     64
   number of dos      NEDOS =    301   number of ions     NIONS =      4
   non local maximal  LDIM  =      6   non local SUM 2l+1 LMDIM =     18
   total plane-waves  NPLWV = ******
   max r-space proj   IRMAX =   5559   max aug-charges    IRDMAX=  21597
   dimension x,y,z NGX =   160 NGY =  160 NGZ =  168
   dimension x,y,z NGXF=   320 NGYF=  320 NGZF=  336
   support grid    NGXF=   320 NGYF=  320 NGZF=  336
   ions per type =               4
   NGX,Y,Z   is equivalent  to a cutoff of  12.58, 12.58, 12.63 a.u.
   NGXF,Y,Z  is equivalent  to a cutoff of  25.17, 25.17, 25.26 a.u.

 SYSTEM =  MgO-rocksalt                            
 POSCAR =  Ag Mg  O                                

 Startparameter for this run:
   NWRITE =      2    write-flag & timer
   PREC   = accura    normal or accurate (medium, high low for compatibility)
   ISTART =      0    job   : 0-new  1-cont  2-samecut
   ICHARG =      2    charge: 1-file 2-atom 10-const
   ISPIN  =      1    spin polarized calculation?
   LNONCOLLINEAR =      F non collinear calculations
   LSORBIT =      F    spin-orbit coupling
   INIWAV =      1    electr: 0-lowe 1-rand  2-diag
   LASPH  =      T    aspherical Exc in radial PAW
 Electronic Relaxation 1
   ENCUT  =  520.0 eV  38.22 Ry    6.18 a.u.  39.30 39.30 41.12*2*pi/ulx,y,z
   ENINI  =  520.0     initial cutoff
   ENAUG  =  412.5 eV  augmentation charge cutoff
   NELM   =    200;   NELMIN=  8; NELMDL= -5     # of ELM steps 
   EDIFF  = 0.1E-05   stopping-criterion for ELM
   LREAL  =      T    real-space projection
   NLSPLINE    = F    spline interpolate recip. space projectors
   LCOMPAT=      F    compatible to vasp.4.4
   GGA_COMPAT  = T    GGA compatible to vasp.4.4-vasp.4.6
   LMAXPAW     = -100 max onsite density
   LMAXMIX     =    2 max onsite mixed and CHGCAR
   VOSKOWN=      0    Vosko Wilk Nusair interpolation
   ROPT   =   -0.00025
 Ionic relaxation
   EDIFFG = 0.1E-04   stopping-criterion for IOM
   NSW    =      0    number of steps for IOM
   NBLOCK =      1;   KBLOCK =      1    inner block; outer block 
   IBRION =     -1    ionic relax: 0-MD 1-quasi-New 2-CG
   NFREE  =      0    steps in history (QN), initial steepest desc. (CG)
   ISIF   =      0    stress and relaxation
   IWAVPR =     10    prediction:  0-non 1-charg 2-wave 3-comb
   ISYM   =      2    0-nonsym 1-usesym 2-fastsym
   LCORR  =      T    Harris-Foulkes like correction to forces

   POTIM  = 0.5000    time-step for ionic-motion
   TEIN   =    0.0    initial temperature
   TEBEG  =    0.0;   TEEND  =   0.0 temperature during run
   SMASS  =  -3.00    Nose mass-parameter (am)
   estimated Nose-frequenzy (Omega)   =  0.10E-29 period in steps = 0.13E+47 mass=  -0.102E-25a.u.
   SCALEE = 1.0000    scale energy and forces
   NPACO  =    256;   APACO  = 10.0  distance and # of slots for P.C.
   PSTRESS=    0.0 pullay stress

  Mass of Ions in am
   POMASS = 107.87
  Ionic Valenz
   ZVAL   =  11.00
  Atomic Wigner-Seitz radii
   RWIGS  =  -1.00
  virtual crystal weights 
   VCA    =   1.00
   NELECT =      44.0000    total number of electrons
   NUPDOWN=      -1.0000    fix difference up-down

 DOS related values:
   EMIN   =  10.00;   EMAX   =-10.00  energy-range for DOS
   EFERMI =   0.00
   ISMEAR =     0;   SIGMA  =   0.05  broadening in eV -4-tet -1-fermi 0-gaus

 Electronic relaxation 2 (details)
   IALGO  =     58    algorithm
   LDIAG  =      T    sub-space diagonalisation (order eigenvalues)
   LSUBROT=      F    optimize rotation matrix (better conditioning)
   TURBO    =      0    0=normal 1=particle mesh
   IRESTART =      0    0=no restart 2=restart with 2 vectors
   NREBOOT  =      0    no. of reboots
   NMIN     =      0    reboot dimension
   EREF     =   0.00    reference energy to select bands
   IMIX   =      4    mixing-type and parameters
     AMIX     =   0.40;   BMIX     =  1.00
     AMIX_MAG =   1.60;   BMIX_MAG =  1.00
     AMIN     =   0.10
     WC   =   100.;   INIMIX=   1;  MIXPRE=   1;  MAXMIX= -45

 Intra band minimization:
   WEIMIN = 0.0000     energy-eigenvalue tresh-hold
   EBREAK =  0.39E-08  absolut break condition
   DEPER  =   0.30     relativ break condition  

   TIME   =   0.40     timestep for ELM

  volume/ion in A,a.u.               =    2470.40     16671.10
  Fermi-wavevector in a.u.,A,eV,Ry     =   0.269329  0.508958  0.986941  0.072538
  Thomas-Fermi vector in A             =   1.106612

 Write flags
   LWAVE        =      F    write WAVECAR
   LDOWNSAMPLE  =      F    k-point downsampling of WAVECAR
   LCHARG       =      F    write CHGCAR
   LVTOT        =      F    write LOCPOT, total local potential
   LVHAR        =      F    write LOCPOT, Hartree potential only
   LELF         =      F    write electronic localiz. function (ELF)
   LORBIT       =      0    0 simple, 1 ext, 2 COOP (PROOUT), +10 PAW based schemes


 Dipole corrections
   LMONO  =      F    monopole corrections only (constant potential shift)
   LDIPOL =      F    correct potential (dipole corrections)
   IDIPOL =      0    1-x, 2-y, 3-z, 4-all directions 
   EPSILON=  1.0000000 bulk dielectric constant

 Exchange correlation treatment:
   GGA     =    B5    GGA type
   LEXCH   =    12    internal setting for exchange type
   LIBXC   =     F    Libxc                    
   VOSKOWN =     0    Vosko Wilk Nusair interpolation
   EXXOEP  =     0    0=HF, 1=EXX-LHF (local Hartree Fock) 2=EXX OEP
   LHFCALC =     T    Hartree Fock is set to
   LSYMGRAD=     F    symmetrize gradient (conserves proper symmetry)
   PRECFOCK=normal    Normal, Fast or Accurate (Low or Medium for compatibility)
   LRHFCALC=     F    long range Hartree Fock
   LRSCOR  =     F    long range correlation only (use DFT for short range part)
   LTHOMAS =     F    Thomas Fermi screening in HF
   LMODELHF=     F    short range full HF, long range fraction AEXX
   LFOCKACE=     T    use Adeptively-Compressed-Exchange operator
   ENCUT4O =  -1.0   cutoff for four orbital integrals eV
   LMAXFOCK=     4    L truncation for augmentation on plane wave grid
   LMAXFOCKAE=  -1    L truncation for all-electron charge restoration on plane wave grid
   NMAXFOCKAE=   1    number of basis functions for all-electron charge restoration
   LFOCKAEDFT=     F  apply the AE augmentation even for DFT
   NKREDX  =     1    reduce k-point grid by
   NKREDY  =     1    reduce k-point grid by
   NKREDZ  =     1    reduce k-point grid by
   SHIFTRED=     F    shift reduced grid of Gamma
   HFKIDENT=     F    idential grid for each k-point
   ODDONLY =     F    use only odd q-grid points
   EVENONLY=     F    use only even q-grid points
   HFALPHA =   -1.0000 decay constant for conv. correction
   MCALPHA =    0.0000 extent of test-charge in conv. correction in multipole expansion
   AEXX    =    0.2000 exact exchange contribution
   HFSCREEN=    0.0000 screening length (either q_TF or 0.3 A-1)
   HFSCREENC=   0.0000 screening length for correlation (either q_TF or 0.3 A-1)
   HFRCUT  =    0.0000 spherical cutoff for potential kernel
   ALDAX   =    0.8000 LDA exchange part
   AGGAX   =    0.7200 GGA exchange part
   ALDAC   =    0.1900 LDA correlation
   AGGAC   =    0.8100 GGA correlation
   ENCUTFOCK=  -1.0 apply spherical cutoff to Coloumb kernel
   NBANDSGWLOW=     1    first orbital included in HF term
   NBLOCK_FOCK=    64    blocking factor in FOCK_ACC

 Linear response parameters
   LEPSILON=     F    determine dielectric tensor
   LRPA    =     F    only Hartree local field effects (RPA)
   LNABLA  =     F    use nabla operator in PAW spheres
   LVEL    =     F    velocity operator in full k-point grid
   CSHIFT  =0.1000    complex shift for real part using Kramers Kronig
   OMEGAMAX=  -1.0    maximum frequency
   DEG_THRESHOLD= 0.2000000E-02 threshold for treating states as degnerate
   RTIME   =   -0.100 relaxation time in fs
  (WPLASMAI=    0.000 imaginary part of plasma frequency in eV, 0.658/RTIME)
   DFIELD  = 0.0000000 0.0000000 0.0000000 field for delta impulse in time

  Optional k-point grid parameters
   LKPOINTS_OPT  =     F    use optional k-point grid
   KPOINTS_OPT_MODE=     1    mode for optional k-point grid

 Orbital magnetization related:
   ORBITALMAG=     F  switch on orbital magnetization
   LCHIMAG   =     F  perturbation theory with respect to B field
   DQ        =  0.001000  dq finite difference perturbation B field
   LLRAUG    =     F  two centre corrections for induced B field



--------------------------------------------------------------------------------------------------------


 Static calculation
 charge density and potential will be updated during run
 non-spin polarized calculation
 Conjugate gradient for all bands (Freysoldt, et al. PRB 79, 241103 (2009))
 preconditioned conjugated gradient                                        
 perform sub-space diagonalisation
    before iterative eigenvector-optimisation
 modified Broyden-mixing scheme, WC =      100.0
 initial mixing is a Kerker type mixing with AMIX =  0.4000 and BMIX =      1.0000
 Hartree-type preconditioning will be used
 using additional bands           42
 real space projection scheme for non local part
 use partial core corrections
 no Harris-corrections to forces 
 use gradient corrections 
 use of overlap-Matrix (Vanderbilt PP)
 Gauss-broadening in eV      SIGMA  =   0.05


--------------------------------------------------------------------------------------------------------


  energy-cutoff  :      520.00
  volume of cell :     9881.61
      direct lattice vectors                 reciprocal lattice vectors
    21.138852197  0.000000000  0.000000000     0.047306258  0.000000000  0.000000000
     0.000000000 21.138852197  0.000000000     0.000000000  0.047306258  0.000000000
     0.000000000  0.000000000 22.113885220     0.000000000  0.000000000  0.045220457

  length of vectors
    21.138852197 21.138852197 22.113885220     0.047306258  0.047306258  0.045220457



 k-points in units of 2pi/SCALE and weight: KPOINTS created by Atomic Simulation Env
   0.00000000  0.00000000  0.00000000       1.000

 k-points in reciprocal lattice and weights: KPOINTS created by Atomic Simulation Env
   0.00000000  0.00000000  0.00000000       1.000

 position of ions in fractional coordinates (direct lattice) 
   0.40007554  0.42853956  0.61036705
   0.40023932  0.51150472  0.69731758
   0.40057432  0.64132945  0.71292430
   0.40020353  0.58997571  0.60440993

 position of ions in cartesian coordinates  (Angst):
   8.45713774  9.05883440 13.49758682
   8.46059993 10.81262269 15.42040092
   8.46768128 13.55696849 15.76552609
   8.45984327 12.47140927 13.36585174



--------------------------------------------------------------------------------------------------------


 k-point   1 :   0.0000 0.0000 0.0000  plane waves:  265979

 maximum and minimum number of plane-waves per node :     66495    66494

 maximum number of plane-waves:    265979
 maximum index in each direction: 
   IXMAX=   39   IYMAX=   39   IZMAX=   41
   IXMIN=  -39   IYMIN=  -39   IZMIN=  -41


 real space projection operators:
  total allocation   :       3005.30 KBytes
  max/ min on nodes  :        758.53        746.86


 parallel 3D FFT for wavefunctions:
    minimum data exchange during FFTs selected (reduces bandwidth)
 parallel 3D FFT for charge:
    minimum data exchange during FFTs selected (reduces bandwidth)


 FFT grid for exact exchange (Hartree Fock) 
  NGX =120; NGY =120; NGZ =126


 Radii for the augmentation spheres in the non-local exchange
 for species   1 augmentation radius   1.406 (default was   1.125)
       energy cutoff for augmentation   2080.0

 real space projection operators:
  total allocation   :       1663.28 KBytes
  max/ min on nodes  :        430.08        391.80

 Maximum index for augmentation-charges in exchange          505
  SETUP_FOCK is finished

 total amount of memory used by VASP MPI-rank0   153721. kBytes
=======================================================================

   base      :      30000. kBytes
   nonlr-proj:       1939. kBytes
   fftplans  :      65038. kBytes
   grid      :      53473. kBytes
   one-center:         15. kBytes
   HF        :         64. kBytes
   wavefun   :       3192. kBytes

     INWAV:  cpu time      0.0001: real time      0.0001
 Broyden mixing: mesh for mixing (old mesh)
   NGX = 79   NGY = 79   NGZ = 83
  (NGX  =320   NGY  =320   NGZ  =336)
  gives a total of 518003 points

 initial charge density was supplied:
 charge density of overlapping atoms calculated
 number of electron      44.0000000 magnetization 
 keeping initial charge density in first step


--------------------------------------------------------------------------------------------------------


 Maximum index for non-local projection operator         1351
 Maximum index for augmentation-charges            0 (set IRDMAX)


--------------------------------------------------------------------------------------------------------


    FEWALD:  cpu time      0.0004: real time      0.0004


--------------------------------------- Iteration      1(   1)  ---------------------------------------


    POTLOK:  cpu time      0.1894: real time      0.1897
    SETDIJ:  cpu time      0.1809: real time      0.1810
    TRIAL :  cpu time      0.4570: real time      0.4572
    CORREC:  cpu time      0.0009: real time      0.0009
    --------------------------------------------
      LOOP:  cpu time      0.8303: real time      0.8309

 eigenvalue-minimisations  :   128
 total energy-change (2. order) :-0.3241480E+04  (-0.7353612E+03)
 number of electron      44.0000000 magnetization 
 augmentation part       44.0000000 magnetization 

 Free energy of the ion-electron system (eV)
  ---------------------------------------------------
  alpha Z        PSCENC =         1.37722947
  Ewald energy   TEWEN  =      1659.89755665
  -Hartree energ DENC   =     -5621.30238949
  -exchange      EXHF   =         0.00000000
  -V(xc)+E(xc)   XCENC  =       -46.66342666
  PAW double counting   =      4013.84859731    -7392.08731607
  entropy T*S    EENTRO =        -0.03401600
  eigenvalues    EBANDS =         4.34518416
  atomic energy  EATOM  =      4139.13879565
  ---------------------------------------------------
  free energy    TOTEN  =     -3241.47978498 eV

  energy without entropy =    -3241.44576898  energy(sigma->0) =    -3241.46277698
  exchange ACFDT corr.  =         0.00000000  see jH, gK, PRB 81, 115126


--------------------------------------------------------------------------------------------------------




--------------------------------------- Iteration      1(   2)  ---------------------------------------


    TRIAL :  cpu time      1.0986: real time      1.0987
    CORREC:  cpu time      0.0003: real time      0.0003
    --------------------------------------------
      LOOP:  cpu time      1.1034: real time      1.1060

 eigenvalue-minimisations  :   256
 total energy-change (2. order) :-0.4136635E+03  (-0.4132242E+03)
 number of electron      44.0000000 magnetization 
 augmentation part       44.0000000 magnetization 

 Free energy of the ion-electron system (eV)
  ---------------------------------------------------
  alpha Z        PSCENC =         1.37722947
  Ewald energy   TEWEN  =      1659.89755665
  -Hartree energ DENC   =     -5621.30238949
  -exchange      EXHF   =         0.00000000
  -V(xc)+E(xc)   XCENC  =       -46.66342666
  PAW double counting   =      4013.84859731    -7392.08731607
  entropy T*S    EENTRO =        -0.00000000
  eigenvalues    EBANDS =      -409.35236630
  atomic energy  EATOM  =      4139.13879565
  ---------------------------------------------------
  free energy    TOTEN  =     -3655.14331944 eV

  energy without entropy =    -3655.14331944  energy(sigma->0) =    -3655.14331944
  exchange ACFDT corr.  =         0.00000000  see jH, gK, PRB 81, 115126


--------------------------------------------------------------------------------------------------------




--------------------------------------- Iteration      1(   3)  ---------------------------------------


    TRIAL :  cpu time      0.4557: real time      0.4559
    CORREC:  cpu time      0.0003: real time      0.0003
    --------------------------------------------
      LOOP:  cpu time      0.4623: real time      0.4628

 eigenvalue-minimisations  :   128
 total energy-change (2. order) :-0.2971086E+02  (-0.2971062E+02)
 number of electron      44.0000000 magnetization 
 augmentation part       44.0000000 magnetization 

 Free energy of the ion-electron system (eV)
  ---------------------------------------------------
  alpha Z        PSCENC =         1.37722947
  Ewald energy   TEWEN  =      1659.89755665
  -Hartree energ DENC   =     -5621.30238949
  -exchange      EXHF   =         0.00000000
  -V(xc)+E(xc)   XCENC  =       -46.66342666
  PAW double counting   =      4013.84859731    -7392.08731607
  entropy T*S    EENTRO =        -0.00000000
  eigenvalues    EBANDS =      -439.06322258
  atomic energy  EATOM  =      4139.13879565
  ---------------------------------------------------
  free energy    TOTEN  =     -3684.85417572 eV

  energy without entropy =    -3684.85417572  energy(sigma->0) =    -3684.85417572
  exchange ACFDT corr.  =         0.00000000  see jH, gK, PRB 81, 115126


--------------------------------------------------------------------------------------------------------




--------------------------------------- Iteration      1(   4)  ---------------------------------------


    TRIAL :  cpu time      0.4535: real time      0.4535
    CORREC:  cpu time      0.0003: real time      0.0003
    --------------------------------------------
      LOOP:  cpu time      0.4600: real time      0.4602

 eigenvalue-minimisations  :   128
 total energy-change (2. order) :-0.1583823E+00  (-0.1583816E+00)
 number of electron      44.0000000 magnetization 
 augmentation part       44.0000000 magnetization 

 Free energy of the ion-electron system (eV)
  ---------------------------------------------------
  alpha Z        PSCENC =         1.37722947
  Ewald energy   TEWEN  =      1659.89755665
  -Hartree energ DENC   =     -5621.30238949
  -exchange      EXHF   =         0.00000000
  -V(xc)+E(xc)   XCENC  =       -46.66342666
  PAW double counting   =      4013.84859731    -7392.08731607
  entropy T*S    EENTRO =        -0.00000000
  eigenvalues    EBANDS =      -439.22160489
  atomic energy  EATOM  =      4139.13879565
  ---------------------------------------------------
  free energy    TOTEN  =     -3685.01255802 eV

  energy without entropy =    -3685.01255802  energy(sigma->0) =    -3685.01255802
  exchange ACFDT corr.  =         0.00000000  see jH, gK, PRB 81, 115126


--------------------------------------------------------------------------------------------------------




--------------------------------------- Iteration      1(   5)  ---------------------------------------


    POTLOK:  cpu time      0.2213: real time      0.2213
    SETDIJ:  cpu time      0.5937: real time      0.5938
    TRIAL :  cpu time      7.5930: real time      7.5966
    CORREC:  cpu time      0.0003: real time      0.0003
    CHARGE:  cpu time      0.1153: real time      0.1158
    --------------------------------------------
      LOOP:  cpu time      8.5296: real time      8.5341

 eigenvalue-minimisations  :   192
 total energy-change (2. order) : 0.3678989E+04  (-0.2770480E+01)
 number of electron      44.0000006 magnetization 
 augmentation part       21.4266397 magnetization 

 Free energy of the ion-electron system (eV)
  ---------------------------------------------------
  alpha Z        PSCENC =         1.37722947
  Ewald energy   TEWEN  =      1659.89755665
  -Hartree energ DENC   =     -5621.30238949
  -exchange      EXHF   =        90.01479534
  -V(xc)+E(xc)   XCENC  =       -40.11508398
  PAW double counting   =      4006.65197587    -3847.73344547
  entropy T*S    EENTRO =        -0.00000000
  eigenvalues    EBANDS =      -393.95281629
  atomic energy  EATOM  =      4139.13879565
  ---------------------------------------------------
  free energy    TOTEN  =        -6.02338224 eV

  energy without entropy =       -6.02338224  energy(sigma->0) =       -6.02338224
  exchange ACFDT corr.  =        -0.00000000  see jH, gK, PRB 81, 115126


--------------------------------------------------------------------------------------------------------




--------------------------------------- Iteration      1(   6)  ---------------------------------------


    POTLOK:  cpu time      0.2096: real time      0.2100
    SETDIJ:  cpu time      0.5990: real time      0.5990
    TRIAL :  cpu time      7.6079: real time      7.7924
    CORREC:  cpu time      7.9309: real time      7.9347
    CHARGE:  cpu time      0.1136: real time      0.1136
    --------------------------------------------
      LOOP:  cpu time     16.4675: real time     16.6566

 eigenvalue-minimisations  :     0
 total energy-change (2. order) : 0.1111732E+01  (-0.6949456E+00)
 number of electron      44.0000006 magnetization 
 augmentation part       21.2745630 magnetization 

 Free energy of the ion-electron system (eV)
  ---------------------------------------------------
  alpha Z        PSCENC =         1.37722947
  Ewald energy   TEWEN  =      1659.89755665
  -Hartree energ DENC   =     -5686.52338524
  -exchange      EXHF   =        86.87451973
  -V(xc)+E(xc)   XCENC  =       -39.56452602
  PAW double counting   =      4544.67741406    -4389.66155729
  entropy T*S    EENTRO =        -0.00000000
  eigenvalues    EBANDS =      -321.12769710
  atomic energy  EATOM  =      4139.13879565
  ---------------------------------------------------
  free energy    TOTEN  =        -4.91165009 eV

  energy without entropy =       -4.91165009  energy(sigma->0) =       -4.91165009
  exchange ACFDT corr.  =        -0.00000000  see jH, gK, PRB 81, 115126


--------------------------------------------------------------------------------------------------------




--------------------------------------- Iteration      1(   7)  ---------------------------------------


    POTLOK:  cpu time      0.2093: real time      0.2093
    SETDIJ:  cpu time      0.5970: real time      0.5971
    TRIAL :  cpu time      7.2193: real time      7.2238
    CORREC:  cpu time      7.8850: real time      7.8881
    CHARGE:  cpu time      0.1138: real time      0.1138
    --------------------------------------------
      LOOP:  cpu time     16.0316: real time     16.0394

 eigenvalue-minimisations  :     0
 total energy-change (2. order) :-0.6964747E+00  (-0.9278736E-01)
 number of electron      44.0000006 magnetization 
 augmentation part       21.3769314 magnetization 

 Free energy of the ion-electron system (eV)
  ---------------------------------------------------
  alpha Z        PSCENC =         1.37722947
  Ewald energy   TEWEN  =      1659.89755665
  -Hartree energ DENC   =     -5633.03937968
  -exchange      EXHF   =        86.20000175
  -V(xc)+E(xc)   XCENC  =       -40.40764226
  PAW double counting   =      4488.56471390    -4332.91789538
  entropy T*S    EENTRO =        -0.00000000
  eigenvalues    EBANDS =      -374.42150492
  atomic energy  EATOM  =      4139.13879565
  ---------------------------------------------------
  free energy    TOTEN  =        -5.60812482 eV

  energy without entropy =       -5.60812482  energy(sigma->0) =       -5.60812482
  exchange ACFDT corr.  =        -0.00000000  see jH, gK, PRB 81, 115126


--------------------------------------------------------------------------------------------------------




--------------------------------------- Iteration      1(   8)  ---------------------------------------


    POTLOK:  cpu time      0.2202: real time      0.2202
    SETDIJ:  cpu time      0.5892: real time      0.5892
    TRIAL :  cpu time      7.4308: real time      7.4351
    CORREC:  cpu time      7.9434: real time      7.9463
    CHARGE:  cpu time      0.1140: real time      0.1140
    --------------------------------------------
      LOOP:  cpu time     16.3042: real time     16.3117

 eigenvalue-minimisations  :     0
 total energy-change (2. order) :-0.9295268E-01  (-0.4717204E-01)
 number of electron      44.0000006 magnetization 
 augmentation part       21.3461928 magnetization 

 Free energy of the ion-electron system (eV)
  ---------------------------------------------------
  alpha Z        PSCENC =         1.37722947
  Ewald energy   TEWEN  =      1659.89755665
  -Hartree energ DENC   =     -5641.61783679
  -exchange      EXHF   =        86.44679554
  -V(xc)+E(xc)   XCENC  =       -40.10063262
  PAW double counting   =      4480.27347070    -4324.66459757
  entropy T*S    EENTRO =        -0.00000000
  eigenvalues    EBANDS =      -366.45185853
  atomic energy  EATOM  =      4139.13879565
  ---------------------------------------------------
  free energy    TOTEN  =        -5.70107750 eV

  energy without entropy =       -5.70107750  energy(sigma->0) =       -5.70107750
  exchange ACFDT corr.  =        -0.00000000  see jH, gK, PRB 81, 115126


--------------------------------------------------------------------------------------------------------




--------------------------------------- Iteration      1(   9)  ---------------------------------------


    POTLOK:  cpu time      0.2195: real time      0.2195
    SETDIJ:  cpu time      0.5914: real time      0.5914
    TRIAL :  cpu time      7.6001: real time      7.6044
    CORREC:  cpu time      7.7873: real time      7.7907
    CHARGE:  cpu time      0.1143: real time      0.1143
    --------------------------------------------
      LOOP:  cpu time     16.3191: real time     16.3273

 eigenvalue-minimisations  :     0
 total energy-change (2. order) :-0.4702427E-01  (-0.1349301E-01)
 number of electron      44.0000006 magnetization 
 augmentation part       21.3420584 magnetization 

 Free energy of the ion-electron system (eV)
  ---------------------------------------------------
  alpha Z        PSCENC =         1.37722947
  Ewald energy   TEWEN  =      1659.89755665
  -Hartree energ DENC   =     -5636.63922825
  -exchange      EXHF   =        86.34406665
  -V(xc)+E(xc)   XCENC  =       -40.21772376
  PAW double counting   =      4461.85070970    -4306.14641020
  entropy T*S    EENTRO =        -0.00000000
  eigenvalues    EBANDS =      -371.35309769
  atomic energy  EATOM  =      4139.13879565
  ---------------------------------------------------
  free energy    TOTEN  =        -5.74810177 eV

  energy without entropy =       -5.74810177  energy(sigma->0) =       -5.74810177
  exchange ACFDT corr.  =        -0.00000000  see jH, gK, PRB 81, 115126


--------------------------------------------------------------------------------------------------------




--------------------------------------- Iteration      1(  10)  ---------------------------------------


    POTLOK:  cpu time      0.2138: real time      0.2139
    SETDIJ:  cpu time      0.5977: real time      0.5977
    TRIAL :  cpu time      7.4353: real time      7.4398
    CORREC:  cpu time      7.8327: real time      7.8356
    CHARGE:  cpu time      0.1151: real time      0.1151
    --------------------------------------------
      LOOP:  cpu time     16.2016: real time     16.2093

 eigenvalue-minimisations  :     0
 total energy-change (2. order) :-0.1350215E-01  (-0.4407425E-02)
 number of electron      44.0000006 magnetization 
 augmentation part       21.3552114 magnetization 

 Free energy of the ion-electron system (eV)
  ---------------------------------------------------
  alpha Z        PSCENC =         1.37722947
  Ewald energy   TEWEN  =      1659.89755665
  -Hartree energ DENC   =     -5633.46252056
  -exchange      EXHF   =        86.31108206
  -V(xc)+E(xc)   XCENC  =       -40.25885444
  PAW double counting   =      4455.65848910    -4299.89517858
  entropy T*S    EENTRO =        -0.00000000
  eigenvalues    EBANDS =      -374.52820327
  atomic energy  EATOM  =      4139.13879565
  ---------------------------------------------------
  free energy    TOTEN  =        -5.76160393 eV

  energy without entropy =       -5.76160393  energy(sigma->0) =       -5.76160393
  exchange ACFDT corr.  =        -0.00000000  see jH, gK, PRB 81, 115126


--------------------------------------------------------------------------------------------------------




--------------------------------------- Iteration      1(  11)  ---------------------------------------


    POTLOK:  cpu time      0.2141: real time      0.2141
    SETDIJ:  cpu time      0.5982: real time      0.5983
    TRIAL :  cpu time      7.5568: real time      7.5612
    CORREC:  cpu time      7.7901: real time      7.7931
    CHARGE:  cpu time      0.1139: real time      0.1140
    --------------------------------------------
      LOOP:  cpu time     16.2798: real time     16.2877

 eigenvalue-minimisations  :     0
 total energy-change (2. order) :-0.4409399E-02  (-0.1432003E-02)
 number of electron      44.0000006 magnetization 
 augmentation part       21.3509655 magnetization 

 Free energy of the ion-electron system (eV)
  ---------------------------------------------------
  alpha Z        PSCENC =         1.37722947
  Ewald energy   TEWEN  =      1659.89755665
  -Hartree energ DENC   =     -5634.56340687
  -exchange      EXHF   =        86.33654215
  -V(xc)+E(xc)   XCENC  =       -40.22797469
  PAW double counting   =      4455.63584697    -4299.86032151
  entropy T*S    EENTRO =        -0.00000000
  eigenvalues    EBANDS =      -373.50028115
  atomic energy  EATOM  =      4139.13879565
  ---------------------------------------------------
  free energy    TOTEN  =        -5.76601332 eV

  energy without entropy =       -5.76601332  energy(sigma->0) =       -5.76601332
  exchange ACFDT corr.  =        -0.00000000  see jH, gK, PRB 81, 115126


--------------------------------------------------------------------------------------------------------




--------------------------------------- Iteration      1(  12)  ---------------------------------------


    POTLOK:  cpu time      0.2115: real time      0.2115
    SETDIJ:  cpu time      0.5992: real time      0.5992
    TRIAL :  cpu time      7.5552: real time      7.5593
    CORREC:  cpu time      7.8112: real time      7.8142
    CHARGE:  cpu time      0.1141: real time      0.1141
    --------------------------------------------
      LOOP:  cpu time     16.2987: real time     16.3060

 eigenvalue-minimisations  :     0
 total energy-change (2. order) :-0.1435484E-02  (-0.3403150E-03)
 number of electron      44.0000006 magnetization 
 augmentation part       21.3514448 magnetization 

 Free energy of the ion-electron system (eV)
  ---------------------------------------------------
  alpha Z        PSCENC =         1.37722947
  Ewald energy   TEWEN  =      1659.89755665
  -Hartree energ DENC   =     -5633.82987333
  -exchange      EXHF   =        86.32151146
  -V(xc)+E(xc)   XCENC  =       -40.24511704
  PAW double counting   =      4453.94284186    -4298.15869691
  entropy T*S    EENTRO =        -0.00000000
  eigenvalues    EBANDS =      -374.21169662
  atomic energy  EATOM  =      4139.13879565
  ---------------------------------------------------
  free energy    TOTEN  =        -5.76744881 eV

  energy without entropy =       -5.76744881  energy(sigma->0) =       -5.76744881
  exchange ACFDT corr.  =        -0.00000000  see jH, gK, PRB 81, 115126


--------------------------------------------------------------------------------------------------------




--------------------------------------- Iteration      1(  13)  ---------------------------------------


    POTLOK:  cpu time      0.2230: real time      0.2230
    SETDIJ:  cpu time      0.5885: real time      0.5886
    TRIAL :  cpu time      7.3500: real time      7.3542
    CORREC:  cpu time      7.8050: real time      7.8085
    CHARGE:  cpu time      0.1138: real time      0.1138
    --------------------------------------------
      LOOP:  cpu time     16.0871: real time     16.0953

 eigenvalue-minimisations  :     0
 total energy-change (2. order) :-0.3422573E-03  (-0.7438529E-04)
 number of electron      44.0000006 magnetization 
 augmentation part       21.3514171 magnetization 

 Free energy of the ion-electron system (eV)
  ---------------------------------------------------
  alpha Z        PSCENC =         1.37722947
  Ewald energy   TEWEN  =      1659.89755665
  -Hartree energ DENC   =     -5633.85840123
  -exchange      EXHF   =        86.32160010
  -V(xc)+E(xc)   XCENC  =       -40.24427154
  PAW double counting   =      4453.59965737    -4297.81676317
  entropy T*S    EENTRO =        -0.00000000
  eigenvalues    EBANDS =      -374.18319437
  atomic energy  EATOM  =      4139.13879565
  ---------------------------------------------------
  free energy    TOTEN  =        -5.76779107 eV

  energy without entropy =       -5.76779107  energy(sigma->0) =       -5.76779107
  exchange ACFDT corr.  =        -0.00000000  see jH, gK, PRB 81, 115126


--------------------------------------------------------------------------------------------------------




--------------------------------------- Iteration      1(  14)  ---------------------------------------


    POTLOK:  cpu time      0.2131: real time      0.2131
    SETDIJ:  cpu time      0.5982: real time      0.5983
    TRIAL :  cpu time      7.5240: real time      7.5282
    CORREC:  cpu time      7.7889: real time      7.7923
    CHARGE:  cpu time      0.1129: real time      0.1129
    --------------------------------------------
      LOOP:  cpu time     16.2448: real time     16.2527

 eigenvalue-minimisations  :     0
 total energy-change (2. order) :-0.7481036E-04  (-0.2434202E-04)
 number of electron      44.0000006 magnetization 
 augmentation part       21.3513868 magnetization 

 Free energy of the ion-electron system (eV)
  ---------------------------------------------------
  alpha Z        PSCENC =         1.37722947
  Ewald energy   TEWEN  =      1659.89755665
  -Hartree energ DENC   =     -5633.84205836
  -exchange      EXHF   =        86.32106407
  -V(xc)+E(xc)   XCENC  =       -40.24443194
  PAW double counting   =      4453.63447978    -4297.85194828
  entropy T*S    EENTRO =        -0.00000000
  eigenvalues    EBANDS =      -374.19855291
  atomic energy  EATOM  =      4139.13879565
  ---------------------------------------------------
  free energy    TOTEN  =        -5.76786588 eV

  energy without entropy =       -5.76786588  energy(sigma->0) =       -5.76786588
  exchange ACFDT corr.  =        -0.00000000  see jH, gK, PRB 81, 115126


--------------------------------------------------------------------------------------------------------




--------------------------------------- Iteration      1(  15)  ---------------------------------------


    POTLOK:  cpu time      0.2135: real time      0.2135
    SETDIJ:  cpu time      0.5978: real time      0.5978
    TRIAL :  cpu time      7.4177: real time      7.4221
    CORREC:  cpu time      7.8245: real time      7.8281
    CHARGE:  cpu time      0.1135: real time      0.1135
    --------------------------------------------
      LOOP:  cpu time     16.1744: real time     16.1827

 eigenvalue-minimisations  :     0
 total energy-change (2. order) :-0.2479117E-04  (-0.5325388E-05)
 number of electron      44.0000006 magnetization 
 augmentation part       21.3513643 magnetization 

 Free energy of the ion-electron system (eV)
  ---------------------------------------------------
  alpha Z        PSCENC =         1.37722947
  Ewald energy   TEWEN  =      1659.89755665
  -Hartree energ DENC   =     -5633.84996399
  -exchange      EXHF   =        86.32092004
  -V(xc)+E(xc)   XCENC  =       -40.24447769
  PAW double counting   =      4453.71530756    -4297.93327784
  entropy T*S    EENTRO =        -0.00000000
  eigenvalues    EBANDS =      -374.18998053
  atomic energy  EATOM  =      4139.13879565
  ---------------------------------------------------
  free energy    TOTEN  =        -5.76789067 eV

  energy without entropy =       -5.76789067  energy(sigma->0) =       -5.76789067
  exchange ACFDT corr.  =        -0.00000000  see jH, gK, PRB 81, 115126


--------------------------------------------------------------------------------------------------------




--------------------------------------- Iteration      1(  16)  ---------------------------------------


    POTLOK:  cpu time      0.2113: real time      0.2113
    SETDIJ:  cpu time      0.5997: real time      0.5997
    TRIAL :  cpu time      7.5896: real time      7.5941
    CORREC:  cpu time      7.9237: real time      7.9266
    CHARGE:  cpu time      0.1137: real time      0.1137
    --------------------------------------------
      LOOP:  cpu time     16.4447: real time     16.4525

 eigenvalue-minimisations  :     0
 total energy-change (2. order) :-0.5215789E-05  (-0.3079663E-05)
 number of electron      44.0000006 magnetization 
 augmentation part       21.3513429 magnetization 

 Free energy of the ion-electron system (eV)
  ---------------------------------------------------
  alpha Z        PSCENC =         1.37722947
  Ewald energy   TEWEN  =      1659.89755665
  -Hartree energ DENC   =     -5633.85532719
  -exchange      EXHF   =        86.32089631
  -V(xc)+E(xc)   XCENC  =       -40.24452320
  PAW double counting   =      4453.77444518    -4297.99260532
  entropy T*S    EENTRO =        -0.00000000
  eigenvalues    EBANDS =      -374.18436343
  atomic energy  EATOM  =      4139.13879565
  ---------------------------------------------------
  free energy    TOTEN  =        -5.76789588 eV

  energy without entropy =       -5.76789588  energy(sigma->0) =       -5.76789588
  exchange ACFDT corr.  =        -0.00000000  see jH, gK, PRB 81, 115126


--------------------------------------------------------------------------------------------------------




--------------------------------------- Iteration      1(  17)  ---------------------------------------


    POTLOK:  cpu time      0.2133: real time      0.2133
    SETDIJ:  cpu time      0.5978: real time      0.5978
    TRIAL :  cpu time      7.4433: real time      7.4474
    CORREC:  cpu time      7.7746: real time      7.7781
    CHARGE:  cpu time      0.1150: real time      0.1150
    --------------------------------------------
      LOOP:  cpu time     16.1510: real time     16.1590

 eigenvalue-minimisations  :     0
 total energy-change (2. order) :-0.3503273E-05  (-0.1107955E-05)
 number of electron      44.0000006 magnetization 
 augmentation part       21.3513624 magnetization 

 Free energy of the ion-electron system (eV)
  ---------------------------------------------------
  alpha Z        PSCENC =         1.37722947
  Ewald energy   TEWEN  =      1659.89755665
  -Hartree energ DENC   =     -5633.86031762
  -exchange      EXHF   =        86.32090688
  -V(xc)+E(xc)   XCENC  =       -40.24440282
  PAW double counting   =      4453.83254680    -4298.05095615
  entropy T*S    EENTRO =        -0.00000000
  eigenvalues    EBANDS =      -374.17925826
  atomic energy  EATOM  =      4139.13879565
  ---------------------------------------------------
  free energy    TOTEN  =        -5.76789939 eV

  energy without entropy =       -5.76789939  energy(sigma->0) =       -5.76789939
  exchange ACFDT corr.  =        -0.00000000  see jH, gK, PRB 81, 115126


--------------------------------------------------------------------------------------------------------




--------------------------------------- Iteration      1(  18)  ---------------------------------------


    POTLOK:  cpu time      0.2152: real time      0.2152
    SETDIJ:  cpu time      0.5958: real time      0.5959
    TRIAL :  cpu time      7.4871: real time      7.4914
    CORREC:  cpu time      7.8217: real time      7.8246
    EDDIAG:  cpu time      6.9785: real time      6.9820
    CHARGE:  cpu time      0.1133: real time      0.1133
    --------------------------------------------
      LOOP:  cpu time     23.2188: real time     23.2299

 eigenvalue-minimisations  :     0
 total energy-change (2. order) :-0.8755546E-06  (-0.5681958E-06)
 number of electron      44.0000006 magnetization 
 augmentation part       21.3513672 magnetization 

 Free energy of the ion-electron system (eV)
  ---------------------------------------------------
  alpha Z        PSCENC =         1.37722947
  Ewald energy   TEWEN  =      1659.89755665
  -Hartree energ DENC   =     -5633.86802955
  -exchange      EXHF   =        86.32104515
  -V(xc)+E(xc)   XCENC  =       -40.24430122
  PAW double counting   =      4453.87040062    -4298.08906330
  entropy T*S    EENTRO =        -0.00000000
  eigenvalues    EBANDS =      -374.17149323
  atomic energy  EATOM  =      4139.13879565
  ---------------------------------------------------
  free energy    TOTEN  =        -5.76790026 eV

  energy without entropy =       -5.76790026  energy(sigma->0) =       -5.76790026
  exchange ACFDT corr.  =        -0.00000000  see jH, gK, PRB 81, 115126


--------------------------------------------------------------------------------------------------------


  average scaling for gradient   1.0507


 average (electrostatic) potential at core
  the test charge radii are     1.1249
  (the norm of the test charge is              1.0000)
       1 -76.3340       2 -77.1330       3 -76.8471       4 -77.3598



 E-fermi :  -4.4156     XC(G=0):  -0.1894     alpha+bet : -0.0929

 Fermi energy:        -4.4156014212

 k-point     1 :       0.0000    0.0000    0.0000
  band No.  band energies     occupation 
      1     -10.2513      2.00000
      2      -9.9747      2.00000
      3      -9.7298      2.00000
      4      -9.6816      2.00000
      5      -9.5679      2.00000
      6      -9.3691      2.00000
      7      -9.1544      2.00000
      8      -8.9263      2.00000
      9      -8.6432      2.00000
     10      -8.5995      2.00000
     11      -8.5157      2.00000
     12      -8.4876      2.00000
     13      -8.4702      2.00000
     14      -8.3974      2.00000
     15      -8.2500      2.00000
     16      -8.0659      2.00000
     17      -8.0539      2.00000
     18      -7.9214      2.00000
     19      -7.9143      2.00000
     20      -7.6595      2.00000
     21      -6.7745      2.00000
     22      -4.6750      2.00000
     23      -2.9175      0.00000
     24      -1.9141      0.00000
     25      -1.2390      0.00000
     26      -0.5839      0.00000
     27      -0.3773      0.00000
     28      -0.0639      0.00000
     29       0.1144      0.00000
     30       0.1204      0.00000
     31       0.3593      0.00000
     32       0.3806      0.00000
     33       0.4059      0.00000
     34       0.4186      0.00000
     35       0.4624      0.00000
     36       0.5148      0.00000
     37       0.5221      0.00000
     38       0.6600      0.00000
     39       0.7008      0.00000
     40       0.7034      0.00000
     41       0.7099      0.00000
     42       0.7117      0.00000
     43       0.7212      0.00000
     44       0.7368      0.00000
     45       0.7801      0.00000
     46       0.8108      0.00000
     47       0.8391      0.00000
     48       0.8683      0.00000
     49       0.9031      0.00000
     50       0.9795      0.00000
     51       0.9994      0.00000
     52       1.0372      0.00000
     53       1.0506      0.00000
     54       1.0891      0.00000
     55       1.1326      0.00000
     56       1.1422      0.00000
     57       1.1941      0.00000
     58       1.2414      0.00000
     59       1.3018      0.00000
     60       1.3325      0.00000
     61       1.3612      0.00000
     62       1.4111      0.00000
     63       1.4481      0.00000
     64       1.5023      0.00000


--------------------------------------------------------------------------------------------------------


 soft charge-density along one line, spin component           1
         0         1         2         3         4         5         6         7         8         9
 total charge-density along one line

 pseudopotential strength for first ion, spin component:           1
 -8.620  -0.000   0.000  -0.015   0.000  -8.684  -0.000   0.000
 -0.000  -8.652  -0.013  -0.000   0.017  -0.000  -8.715  -0.013
  0.000  -0.013  -8.639  -0.000  -0.012   0.000  -0.013  -8.702
 -0.015  -0.000  -0.000  -8.621  -0.000  -0.014  -0.000  -0.000
  0.000   0.017  -0.012  -0.000  -8.622   0.000   0.016  -0.012
 -8.684  -0.000   0.000  -0.014   0.000  -8.720  -0.000   0.000
 -0.000  -8.715  -0.013  -0.000   0.016  -0.000  -8.750  -0.012
  0.000  -0.013  -8.702  -0.000  -0.012   0.000  -0.012  -8.738
 -0.014  -0.000  -0.000  -8.685  -0.000  -0.014  -0.000  -0.000
  0.000   0.016  -0.012  -0.000  -8.686   0.000   0.015  -0.011
  0.000   0.010   0.005   0.000  -0.007   0.000   0.010   0.005
  0.000   0.016   0.007   0.000  -0.012   0.000   0.016   0.007
 -0.000  -0.020   0.014   0.000   0.023  -0.000  -0.019   0.013
  0.000  -0.022  -0.025  -0.000  -0.001   0.000  -0.021  -0.024
 -0.023   0.000   0.000  -0.021  -0.000  -0.022   0.000   0.000
 -0.000  -0.024   0.016   0.000   0.027  -0.000  -0.023   0.015
  0.000  -0.027  -0.030  -0.000  -0.001   0.000  -0.026  -0.029
 -0.028   0.000   0.000  -0.026  -0.000  -0.027   0.000   0.000
 total augmentation occupancy for first ion, spin component:           1
  2.055   0.000  -0.000   0.034  -0.000  -0.081  -0.001   0.000  -0.067   0.000  -0.002   0.000  -0.000  -0.000  -0.001   0.000
  0.000   2.239   0.034   0.000  -0.188  -0.001  -0.396  -0.103  -0.001   0.234  -0.830   0.218  -0.085  -0.063  -0.000  -0.004
 -0.000   0.034   2.104   0.000  -0.010   0.000  -0.103  -0.179  -0.000  -0.009  -0.356   0.084  -0.011  -0.024  -0.000   0.010
  0.034   0.000   0.000   2.071  -0.000  -0.067  -0.001  -0.000  -0.094   0.000  -0.002   0.000  -0.000  -0.000  -0.006   0.000
 -0.000  -0.188  -0.010  -0.000   2.169   0.000   0.234  -0.009   0.000  -0.210   0.560  -0.150   0.061   0.042   0.000   0.008
 -0.081  -0.001   0.000  -0.067   0.000   0.104   0.001  -0.000   0.098  -0.000   0.001  -0.000   0.000   0.000   0.021  -0.000
 -0.001  -0.396  -0.103  -0.001   0.234   0.001   0.536   0.163   0.001  -0.277   0.727  -0.188   0.106   0.101   0.000  -0.010
  0.000  -0.103  -0.179  -0.000  -0.009  -0.000   0.163   0.245   0.000   0.025   0.306  -0.069   0.005   0.053   0.000  -0.000
 -0.067  -0.001  -0.000  -0.094   0.000   0.098   0.001   0.000   0.115  -0.000   0.002  -0.000   0.000   0.000   0.022  -0.000
  0.000   0.234  -0.009   0.000  -0.210  -0.000  -0.277   0.025  -0.000   0.246  -0.476   0.125  -0.084  -0.044  -0.000   0.007
 -0.002  -0.830  -0.356  -0.002   0.560   0.001   0.727   0.306   0.002  -0.476   3.051  -0.668   0.217   0.193   0.000  -0.016
  0.000   0.218   0.084   0.000  -0.150  -0.000  -0.188  -0.069  -0.000   0.125  -0.668   0.150  -0.054  -0.046  -0.000   0.004
 -0.000  -0.085  -0.011  -0.000   0.061   0.000   0.106   0.005   0.000  -0.084   0.217  -0.054   0.031   0.020   0.000  -0.003
 -0.000  -0.063  -0.024  -0.000   0.042   0.000   0.101   0.053   0.000  -0.044   0.193  -0.046   0.020   0.023   0.000  -0.002
 -0.001  -0.000  -0.000  -0.006   0.000   0.021   0.000   0.000   0.022  -0.000   0.000  -0.000   0.000   0.000   0.005  -0.000
  0.000  -0.004   0.010   0.000   0.008  -0.000  -0.010  -0.000  -0.000   0.007  -0.016   0.004  -0.003  -0.002  -0.000   0.000
  0.000  -0.005  -0.011   0.000  -0.004  -0.000  -0.010  -0.005  -0.000   0.004  -0.013   0.003  -0.002  -0.002  -0.000   0.000
 -0.014   0.000   0.000  -0.012  -0.000  -0.002  -0.000  -0.000  -0.002   0.000  -0.000   0.000  -0.000  -0.000  -0.001   0.000


------------------------ aborting loop because EDIFF is reached ----------------------------------------


    FORLOC:  cpu time      0.0042: real time      0.0042
    FORHF :  cpu time      1.9945: real time      1.9955
    FORNL :  cpu time      0.1261: real time      0.1263
    FORCOR:  cpu time      0.7746: real time      0.7746
    OFIELD:  cpu time      0.0006: real time      0.0006

  DFT-D2 method for vdW energy calculation
  -------------------------------------------------------------------

  Parameters of vdW forcefield:
         C6(Jnm^6/mol)     R0(A)
   -----------------------------
   Ag      24.670          1.639

  vdW correction parametrized for the method          

  IVDW =   1
  VDW_RADIUS =    50.000 A
  VDW_S6 =     1.050
  VDW_SR =     1.000
  VDW_D =    20.000
  LVDW_EWALD = F

  Number of pair interactions contributing to vdW energy:     554
  Edisp (eV):   -0.20512
    FORVDW:  cpu time      0.0004: real time      0.0004

 VOLUME and BASIS-vectors are now :
 -----------------------------------------------------------------------------
  energy-cutoff  :      520.00
  volume of cell :     9881.61
      direct lattice vectors                 reciprocal lattice vectors
    21.138852197  0.000000000  0.000000000     0.047306258  0.000000000  0.000000000
     0.000000000 21.138852197  0.000000000     0.000000000  0.047306258  0.000000000
     0.000000000  0.000000000 22.113885220     0.000000000  0.000000000  0.045220457

  length of vectors
    21.138852197 21.138852197 22.113885220     0.047306258  0.047306258  0.045220457


 FORCES acting on ions:
    Electron-Ion                     Ewald-Force                    Non-Local-Force
 -----------------------------------------------------------------------------------------------
   0.599E+00 0.381E+03 0.217E+03   -.594E+00 -.376E+03 -.213E+03   -.596E-02 -.475E+01 -.437E+01
   0.162E+00 0.207E+03 -.360E+03   -.167E+00 -.207E+03 0.354E+03   0.576E-02 -.273E+00 0.666E+01
   -.148E+01 -.388E+03 -.290E+03   0.146E+01 0.384E+03 0.285E+03   0.259E-01 0.451E+01 0.488E+01
   0.713E+00 -.200E+03 0.434E+03   -.696E+00 0.199E+03 -.426E+03   -.147E-01 0.284E+00 -.797E+01
 -----------------------------------------------------------------------------------------------
   -.534E-02 0.188E+00 0.883E+00   0.111E-15 0.284E-13 0.284E-13   0.110E-01 -.227E+00 -.794E+00


 POSITION                                       TOTAL-FORCE (eV/Angst)
 -----------------------------------------------------------------------------------
      8.45714      9.05883     13.49759        -0.001425     -0.126498     -0.284327
      8.46060     10.81262     15.42040        -0.000121     -0.210094      0.341286
      8.46768     13.55697     15.76553         0.001781      0.501634      0.325279
      8.45984     12.47141     13.36585        -0.000235     -0.165041     -0.382238
 -----------------------------------------------------------------------------------
    total drift:                                0.003708      0.004401      0.000905


--------------------------------------------------------------------------------------------------------



  FREE ENERGIE OF THE ION-ELECTRON SYSTEM (eV)
  ---------------------------------------------------
  free  energy   TOTEN  =        -5.97302156 eV

  energy  without entropy=       -5.97302156  energy(sigma->0) =       -5.97302156



--------------------------------------------------------------------------------------------------------


    POTLOK:  cpu time      0.8175: real time      0.8179


--------------------------------------------------------------------------------------------------------


     LOOP+:  cpu time    233.3349: real time    233.6376
    4ORBIT:  cpu time      0.0000: real time      0.0000

 total amount of memory used by VASP MPI-rank0  1219459. kBytes
=======================================================================

   base      :      30000. kBytes
   nonlr-proj:       2389. kBytes
   fftplans  :      65038. kBytes
   grid      :      53473. kBytes
   one-center:         15. kBytes
   HF        :         64. kBytes
   wavefun   :       3192. kBytes
   fock_wrk  :    1065288. kBytes

  
  
 General timing and accounting informations for this job:
 ========================================================
  
                  Total CPU time used (sec):      255.319
                            User time (sec):      240.136
                          System time (sec):       15.182
                         Elapsed time (sec):      258.102
  
                   Maximum memory used (kb):     1671556.
                   Average memory used (kb):          N/A
  
                          Minor page faults:      1432123
                          Major page faults:           52
                 Voluntary context switches:        11212
