 **********************************************************************
                          MRCC program system
 **********************************************************************
 
                              Written by
     Mihaly Kallay, Peter R. Nagy, David Mester, Laszlo Gyevi-Nagy,
        Jozsef Csoka, P. Bernat Szabo, Zoltan Rolik, Gyula Samu,
     Jozsef Csontos, Bence Hegely, Adam Ganyecz, Istvan Ladjanszki,
       Lorant Szegedy, Bence Ladoczki, Klara Petrov, Mate Farkas,
                    Pal D. Mezei, and Reka A. Horvath
 
        Department of Physical Chemistry and Materials Science
            Budapest University of Technology and Economics
                  Budapest P.O.Box 91, H-1521 Hungary
 
                              www.mrcc.hu
 
                      Release date: March 18, 2022

 ************************ 2022-08-19 01:57:16 *************************
 Executing minp...

 Reading input from MINP...
 
 Input file:
 
calc=LNO-CCSD(T)
scftype=rhf
verbosity=3
mem=190GB
symm=off
unit=angs
scfiguess=small
scfmaxit=1000
scfalg=locfit1


lcorthr=tight
ccmaxit=400
usedisk=0
ccsdalg=dfdirect
ccsdthreads=4
ccsdmkl=thr
ptthreads=4

charge=-32
core=78

basis=special
aug-cc-pVDZ-PP
aug-cc-pVDZ-PP
aug-cc-pVDZ
cc-pVDZ
cc-pVDZ
cc-pVDZ
cc-pVDZ
aug-cc-pVDZ
aug-cc-pVDZ
aug-cc-pVDZ
aug-cc-pVDZ
aug-cc-pVDZ
aug-cc-pVDZ
aug-cc-pVDZ
aug-cc-pVDZ
aug-cc-pVDZ
aug-cc-pVDZ
aug-cc-pVDZ
aug-cc-pVDZ
cc-pVDZ
cc-pVDZ
cc-pVDZ
cc-pVDZ
aug-cc-pVDZ
aug-cc-pVDZ
aug-cc-pVDZ
aug-cc-pVDZ
aug-cc-pVDZ
aug-cc-pVDZ
cc-pVDZ
aug-cc-pVDZ
aug-cc-pVDZ
aug-cc-pVDZ
aug-cc-pVDZ
aug-cc-pVDZ
aug-cc-pVDZ
nothing
nothing
nothing
nothing
nothing
nothing
nothing
nothing
nothing
nothing
nothing
nothing
nothing
nothing
nothing
nothing
nothing
nothing
nothing
nothing
nothing
nothing
nothing
nothing
nothing
nothing
nothing
nothing
nothing
nothing
nothing
nothing
nothing
nothing
nothing
nothing
nothing
nothing
nothing
nothing
nothing
nothing
nothing
nothing
nothing
nothing
nothing
nothing

basis_sm=special
def2-SVP
def2-SVP
def2-SVP
def2-SVP
def2-SVP
def2-SVP
def2-SVP
def2-SVP
def2-SVP
def2-SVP
def2-SVP
def2-SVP
def2-SVP
def2-SVP
def2-SVP
def2-SVP
def2-SVP
def2-SVP
def2-SVP
def2-SVP
def2-SVP
def2-SVP
def2-SVP
def2-SVP
def2-SVP
def2-SVP
def2-SVP
def2-SVP
def2-SVP
def2-SVP
def2-SVP
def2-SVP
def2-SVP
def2-SVP
def2-SVP
def2-SVP
nothing
nothing
nothing
nothing
nothing
nothing
nothing
nothing
nothing
nothing
nothing
nothing
nothing
nothing
nothing
nothing
nothing
nothing
nothing
nothing
nothing
nothing
nothing
nothing
nothing
nothing
nothing
nothing
nothing
nothing
nothing
nothing
nothing
nothing
nothing
nothing
nothing
nothing
nothing
nothing
nothing
nothing
nothing
nothing
nothing
nothing
nothing
nothing

dfbasis_scf=special
def2-QZVPP-RI-JK
def2-QZVPP-RI-JK
def2-QZVPP-RI-JK
def2-QZVPP-RI-JK
def2-QZVPP-RI-JK
def2-QZVPP-RI-JK
def2-QZVPP-RI-JK
def2-QZVPP-RI-JK
def2-QZVPP-RI-JK
def2-QZVPP-RI-JK
def2-QZVPP-RI-JK
def2-QZVPP-RI-JK
def2-QZVPP-RI-JK
def2-QZVPP-RI-JK
def2-QZVPP-RI-JK
def2-QZVPP-RI-JK
def2-QZVPP-RI-JK
def2-QZVPP-RI-JK
def2-QZVPP-RI-JK
def2-QZVPP-RI-JK
def2-QZVPP-RI-JK
def2-QZVPP-RI-JK
def2-QZVPP-RI-JK
def2-QZVPP-RI-JK
def2-QZVPP-RI-JK
def2-QZVPP-RI-JK
def2-QZVPP-RI-JK
def2-QZVPP-RI-JK
def2-QZVPP-RI-JK
def2-QZVPP-RI-JK
def2-QZVPP-RI-JK
def2-QZVPP-RI-JK
def2-QZVPP-RI-JK
def2-QZVPP-RI-JK
def2-QZVPP-RI-JK
def2-QZVPP-RI-JK
nothing
nothing
nothing
nothing
nothing
nothing
nothing
nothing
nothing
nothing
nothing
nothing
nothing
nothing
nothing
nothing
nothing
nothing
nothing
nothing
nothing
nothing
nothing
nothing
nothing
nothing
nothing
nothing
nothing
nothing
nothing
nothing
nothing
nothing
nothing
nothing
nothing
nothing
nothing
nothing
nothing
nothing
nothing
nothing
nothing
nothing
nothing
nothing

dfbasis_cor=special
aug-cc-pVDZ-PP-RI
aug-cc-pVDZ-PP-RI
aug-cc-pVDZ-RI
cc-pVDZ-RI
cc-pVDZ-RI
cc-pVDZ-RI
cc-pVDZ-RI
aug-cc-pVDZ-RI
aug-cc-pVDZ-RI
aug-cc-pVDZ-RI
aug-cc-pVDZ-RI
aug-cc-pVDZ-RI
aug-cc-pVDZ-RI
aug-cc-pVDZ-RI
aug-cc-pVDZ-RI
aug-cc-pVDZ-RI
aug-cc-pVDZ-RI
aug-cc-pVDZ-RI
aug-cc-pVDZ-RI
cc-pVDZ-RI
cc-pVDZ-RI
cc-pVDZ-RI
cc-pVDZ-RI
aug-cc-pVDZ-RI
aug-cc-pVDZ-RI
aug-cc-pVDZ-RI
aug-cc-pVDZ-RI
aug-cc-pVDZ-RI
aug-cc-pVDZ-RI
cc-pVDZ-RI
aug-cc-pVDZ-RI
aug-cc-pVDZ-RI
aug-cc-pVDZ-RI
aug-cc-pVDZ-RI
aug-cc-pVDZ-RI
aug-cc-pVDZ-RI
nothing
nothing
nothing
nothing
nothing
nothing
nothing
nothing
nothing
nothing
nothing
nothing
nothing
nothing
nothing
nothing
nothing
nothing
nothing
nothing
nothing
nothing
nothing
nothing
nothing
nothing
nothing
nothing
nothing
nothing
nothing
nothing
nothing
nothing
nothing
nothing
nothing
nothing
nothing
nothing
nothing
nothing
nothing
nothing
nothing
nothing
nothing
nothing

ecp=special
MCDHF-ECP-60
MCDHF-ECP-60
none
none
none
none
none
none
none
none
none
none
none
none
none
none
none
none
none
none
none
none
none
none
none
none
none
none
none
none
none
none
none
none
none
none
ECP-12
ECP-12
ECP-12
ECP-12
ECP-12
ECP-12
ECP-12
ECP-12
ECP-12
ECP-12
ECP-12
ECP-12
ECP-12
ECP-12
ECP-12
ECP-12
ECP-12
ECP-12
ECP-12
ECP-12
ECP-12
ECP-12
ECP-12
ECP-12
ECP-12
ECP-12
ECP-12
ECP-12
ECP-12
ECP-12
ECP-12
ECP-12
ECP-12
ECP-12
ECP-12
ECP-12
ECP-12
ECP-12
ECP-12
ECP-12
ECP-12
ECP-12
ECP-12
ECP-12
ECP-12
ECP-12
ECP-12
ECP-12

unit=angs
geom=xyz
84
Au2 Mg9 O25 ECP48
Au   -0.83009204525    0.00000000397    2.45471686107
Au   -3.39767989836    0.00000000397    2.45471686107
O     0.00000000000    0.00000000000    0.00000000000
Mg   -2.11388582115    0.00000000000    0.00000000000
Mg    0.00000000000    2.11388582115    0.00000000000
Mg    2.11388582115    0.00000000000    0.00000000000
Mg    0.00000000000   -2.11388582115    0.00000000000
O    -2.11388582115    2.11388582115    0.00000000000
O     2.11388582115    2.11388582115    0.00000000000
O     2.11388582115   -2.11388582115    0.00000000000
O    -2.11388582115   -2.11388582115    0.00000000000
O    -2.11388582115    0.00000000000   -2.11388582115
O     0.00000000000    2.11388582115   -2.11388582115
O     2.11388582115    0.00000000000   -2.11388582115
O     0.00000000000   -2.11388582115   -2.11388582115
O    -4.22777164231    0.00000000000    0.00000000000
O     0.00000000000    4.22777164231    0.00000000000
O     4.22777164231    0.00000000000    0.00000000000
O     0.00000000000   -4.22777164231    0.00000000000
Mg   -4.22777164231    2.11388582115    0.00000000000
Mg   -2.11388582115    4.22777164231    0.00000000000
Mg   -2.11388582115   -4.22777164231    0.00000000000
Mg   -4.22777164231   -2.11388582115    0.00000000000
O    -4.22777164231    2.11388582115   -2.11388582115
O    -2.11388582115    4.22777164231   -2.11388582115
O    -2.11388582115   -4.22777164231   -2.11388582115
O    -4.22777164231   -2.11388582115   -2.11388582115
O    -4.22777164231    4.22777164231    0.00000000000
O    -4.22777164231   -4.22777164231    0.00000000000
Mg   -6.34165746346    0.00000000000    0.00000000000
O    -6.34165746346    2.11388582115    0.00000000000
O    -2.11388582115    6.34165746346    0.00000000000
O    -2.11388582115   -6.34165746346    0.00000000000
O    -6.34165746346   -2.11388582115    0.00000000000
O    -6.34165746346    0.00000000000   -2.11388582115
O    -8.45554328461    0.00000000000    0.00000000000
Mg    0.00000000000    0.00000000000   -2.11388582115
Mg   -2.11388582115    2.11388582115   -2.11388582115
Mg    2.11388582115    2.11388582115   -2.11388582115
Mg    2.11388582115   -2.11388582115   -2.11388582115
Mg   -2.11388582115   -2.11388582115   -2.11388582115
Mg    2.11388582115    4.22777164231    0.00000000000
Mg    4.22777164231    2.11388582115    0.00000000000
Mg    4.22777164231   -2.11388582115    0.00000000000
Mg    2.11388582115   -4.22777164231    0.00000000000
Mg   -4.22777164231    0.00000000000   -2.11388582115
Mg    0.00000000000    4.22777164231   -2.11388582115
Mg    4.22777164231    0.00000000000   -2.11388582115
Mg    0.00000000000   -4.22777164231   -2.11388582115
Mg    0.00000000000    6.34165746346    0.00000000000
Mg    6.34165746346    0.00000000000    0.00000000000
Mg    0.00000000000   -6.34165746346    0.00000000000
Mg   -4.22777164231    4.22777164231   -2.11388582115
Mg    4.22777164231    4.22777164231   -2.11388582115
Mg    4.22777164231   -4.22777164231   -2.11388582115
Mg   -4.22777164231   -4.22777164231   -2.11388582115
Mg   -6.34165746346    2.11388582115   -2.11388582115
Mg   -2.11388582115    6.34165746346   -2.11388582115
Mg    2.11388582115    6.34165746346   -2.11388582115
Mg    6.34165746346    2.11388582115   -2.11388582115
Mg    6.34165746346   -2.11388582115   -2.11388582115
Mg    2.11388582115   -6.34165746346   -2.11388582115
Mg   -2.11388582115   -6.34165746346   -2.11388582115
Mg   -6.34165746346   -2.11388582115   -2.11388582115
Mg   -6.34165746346    4.22777164231    0.00000000000
Mg   -4.22777164231    6.34165746346    0.00000000000
Mg   -4.22777164231   -6.34165746346    0.00000000000
Mg   -6.34165746346   -4.22777164231    0.00000000000
Mg   -8.45554328461    2.11388582115    0.00000000000
Mg   -2.11388582115    8.45554328461    0.00000000000
Mg   -2.11388582115   -8.45554328461    0.00000000000
Mg   -8.45554328461   -2.11388582115    0.00000000000
Mg   -8.45554328461    0.00000000000   -2.11388582115
Mg    0.00000000000    8.45554328461   -2.11388582115
Mg    0.00000000000   -8.45554328461   -2.11388582115
Mg   -6.34165746346    6.34165746346   -2.11388582115
Mg   -6.34165746346   -6.34165746346   -2.11388582115
Mg   -8.45554328461    4.22777164231   -2.11388582115
Mg   -4.22777164231    8.45554328461   -2.11388582115
Mg   -4.22777164231   -8.45554328461   -2.11388582115
Mg   -8.45554328461   -4.22777164231   -2.11388582115
Mg  -10.56942910577    0.00000000000    0.00000000000
Mg  -10.56942910577    2.11388582115   -2.11388582115
Mg  -10.56942910577   -2.11388582115   -2.11388582115

qmmm=Amber
pointcharges
9015
      0.00000000000    0.00000000000   -2.11388582115    2.00000000000
     -2.11388582115    2.11388582115   -2.11388582115    2.00000000000
      2.11388582115    2.11388582115   -2.11388582115    2.00000000000
      2.11388582115   -2.11388582115   -2.11388582115    2.00000000000
     -2.11388582115   -2.11388582115   -2.11388582115    2.00000000000
      2.11388582115    4.22777164231    0.00000000000    2.00000000000
      4.22777164231    2.11388582115    0.00000000000    2.00000000000
      4.22777164231   -2.11388582115    0.00000000000    2.00000000000
      2.11388582115   -4.22777164231    0.00000000000    2.00000000000
     -4.22777164231    0.00000000000   -2.11388582115    2.00000000000
      0.00000000000    4.22777164231   -2.11388582115    2.00000000000
      4.22777164231    0.00000000000   -2.11388582115    2.00000000000
      0.00000000000   -4.22777164231   -2.11388582115    2.00000000000
      2.11388582115    4.22777164231   -2.11388582115   -2.00000000000
      4.22777164231    2.11388582115   -2.11388582115   -2.00000000000
      4.22777164231   -2.11388582115   -2.11388582115   -2.00000000000
      2.11388582115   -4.22777164231   -2.11388582115   -2.00000000000
      4.22777164231    4.22777164231    0.00000000000   -2.00000000000
      4.22777164231   -4.22777164231    0.00000000000   -2.00000000000
      0.00000000000    6.34165746346    0.00000000000    2.00000000000
      6.34165746346    0.00000000000    0.00000000000    2.00000000000
      0.00000000000   -6.34165746346    0.00000000000    2.00000000000
     -4.22777164231    4.22777164231   -2.11388582115    2.00000000000
      4.22777164231    4.22777164231   -2.11388582115    2.00000000000
      4.22777164231   -4.22777164231   -2.11388582115    2.00000000000
     -4.22777164231   -4.22777164231   -2.11388582115    2.00000000000
      2.11388582115    6.34165746346    0.00000000000   -2.00000000000
      6.34165746346    2.11388582115    0.00000000000   -2.00000000000
      6.34165746346   -2.11388582115    0.00000000000   -2.00000000000
      2.11388582115   -6.34165746346    0.00000000000   -2.00000000000
      0.00000000000    6.34165746346   -2.11388582115   -2.00000000000
      6.34165746346    0.00000000000   -2.11388582115   -2.00000000000
      0.00000000000   -6.34165746346   -2.11388582115   -2.00000000000
     -6.34165746346    2.11388582115   -2.11388582115    2.00000000000
     -2.11388582115    6.34165746346   -2.11388582115    2.00000000000
      2.11388582115    6.34165746346   -2.11388582115    2.00000000000
      6.34165746346    2.11388582115   -2.11388582115    2.00000000000
      6.34165746346   -2.11388582115   -2.11388582115    2.00000000000
      2.11388582115   -6.34165746346   -2.11388582115    2.00000000000
     -2.11388582115   -6.34165746346   -2.11388582115    2.00000000000
     -6.34165746346   -2.11388582115   -2.11388582115    2.00000000000
     -6.34165746346    4.22777164231    0.00000000000    2.00000000000
     -4.22777164231    6.34165746346    0.00000000000    2.00000000000
     -4.22777164231   -6.34165746346    0.00000000000    2.00000000000
     -6.34165746346   -4.22777164231    0.00000000000    2.00000000000
     -6.34165746346    4.22777164231   -2.11388582115   -2.00000000000
     -4.22777164231    6.34165746346   -2.11388582115   -2.00000000000
     -4.22777164231   -6.34165746346   -2.11388582115   -2.00000000000
     -6.34165746346   -4.22777164231   -2.11388582115   -2.00000000000
      0.00000000000    8.45554328461    0.00000000000   -2.00000000000
      0.00000000000   -8.45554328461    0.00000000000   -2.00000000000
     -8.45554328461    2.11388582115    0.00000000000    2.00000000000
     -2.11388582115    8.45554328461    0.00000000000    2.00000000000
     -2.11388582115   -8.45554328461    0.00000000000    2.00000000000
     -8.45554328461   -2.11388582115    0.00000000000    2.00000000000
     -8.45554328461    0.00000000000   -2.11388582115    2.00000000000
      0.00000000000    8.45554328461   -2.11388582115    2.00000000000
      0.00000000000   -8.45554328461   -2.11388582115    2.00000000000
     -6.34165746346    6.34165746346    0.00000000000   -2.00000000000
     -6.34165746346   -6.34165746346    0.00000000000   -2.00000000000
     -8.45554328461    2.11388582115   -2.11388582115   -2.00000000000
     -2.11388582115    8.45554328461   -2.11388582115   -2.00000000000
     -2.11388582115   -8.45554328461   -2.11388582115   -2.00000000000
     -8.45554328461   -2.11388582115   -2.11388582115   -2.00000000000
     -6.34165746346    6.34165746346   -2.11388582115    2.00000000000
     -6.34165746346   -6.34165746346   -2.11388582115    2.00000000000
     -8.45554328461    4.22777164231    0.00000000000   -2.00000000000
     -4.22777164231    8.45554328461    0.00000000000   -2.00000000000
     -4.22777164231   -8.45554328461    0.00000000000   -2.00000000000
     -8.45554328461   -4.22777164231    0.00000000000   -2.00000000000
     -8.45554328461    4.22777164231   -2.11388582115    2.00000000000
     -4.22777164231    8.45554328461   -2.11388582115    2.00000000000
     -4.22777164231   -8.45554328461   -2.11388582115    2.00000000000
     -8.45554328461   -4.22777164231   -2.11388582115    2.00000000000
    -10.56942910577    0.00000000000    0.00000000000    2.00000000000
    -10.56942910577    2.11388582115    0.00000000000   -2.00000000000
    -10.56942910577   -2.11388582115    0.00000000000   -2.00000000000
    -10.56942910577    0.00000000000   -2.11388582115   -2.00000000000
    -10.56942910577    2.11388582115   -2.11388582115    2.00000000000
    -10.56942910577   -2.11388582115   -2.11388582115    2.00000000000
      4.22777164231    6.34165746346    0.00000000000    2.00000000000
      6.34165746346    4.22777164231    0.00000000000    2.00000000000
      6.34165746346   -4.22777164231    0.00000000000    2.00000000000
      4.22777164231   -6.34165746346    0.00000000000    2.00000000000
      4.22777164231    6.34165746346   -2.11388582115   -2.00000000000
      6.34165746346    4.22777164231   -2.11388582115   -2.00000000000
      6.34165746346   -4.22777164231   -2.11388582115   -2.00000000000
      4.22777164231   -6.34165746346   -2.11388582115   -2.00000000000
      8.45554328461    0.00000000000    0.00000000000   -2.00000000000
      2.11388582115    8.45554328461    0.00000000000    2.00000000000
      8.45554328461    2.11388582115    0.00000000000    2.00000000000
      8.45554328461   -2.11388582115    0.00000000000    2.00000000000
      2.11388582115   -8.45554328461    0.00000000000    2.00000000000
      8.45554328461    0.00000000000   -2.11388582115    2.00000000000
      6.34165746346    6.34165746346    0.00000000000   -2.00000000000
      6.34165746346   -6.34165746346    0.00000000000   -2.00000000000
      2.11388582115    8.45554328461   -2.11388582115   -2.00000000000
      8.45554328461    2.11388582115   -2.11388582115   -2.00000000000
      8.45554328461   -2.11388582115   -2.11388582115   -2.00000000000
      2.11388582115   -8.45554328461   -2.11388582115   -2.00000000000
      6.34165746346    6.34165746346   -2.11388582115    2.00000000000
      6.34165746346   -6.34165746346   -2.11388582115    2.00000000000
      4.22777164231    8.45554328461    0.00000000000   -2.00000000000
      8.45554328461    4.22777164231    0.00000000000   -2.00000000000
      8.45554328461   -4.22777164231    0.00000000000   -2.00000000000
      4.22777164231   -8.45554328461    0.00000000000   -2.00000000000
      4.22777164231    8.45554328461   -2.11388582115    2.00000000000
      8.45554328461    4.22777164231   -2.11388582115    2.00000000000
      8.45554328461   -4.22777164231   -2.11388582115    2.00000000000
      4.22777164231   -8.45554328461   -2.11388582115    2.00000000000
     -8.45554328461    6.34165746346    0.00000000000    2.00000000000
     -6.34165746346    8.45554328461    0.00000000000    2.00000000000
      0.00000000000   10.56942910577    0.00000000000    2.00000000000
      6.34165746346    8.45554328461    0.00000000000    2.00000000000
      8.45554328461    6.34165746346    0.00000000000    2.00000000000
     10.56942910577    0.00000000000    0.00000000000    2.00000000000
      8.45554328461   -6.34165746346    0.00000000000    2.00000000000
      6.34165746346   -8.45554328461    0.00000000000    2.00000000000
      0.00000000000  -10.56942910577    0.00000000000    2.00000000000
     -6.34165746346   -8.45554328461    0.00000000000    2.00000000000
     -8.45554328461   -6.34165746346    0.00000000000    2.00000000000
     -2.11388582115   10.56942910577    0.00000000000   -2.00000000000
      2.11388582115   10.56942910577    0.00000000000   -2.00000000000
     10.56942910577    2.11388582115    0.00000000000   -2.00000000000
     10.56942910577   -2.11388582115    0.00000000000   -2.00000000000
      2.11388582115  -10.56942910577    0.00000000000   -2.00000000000
     -2.11388582115  -10.56942910577    0.00000000000   -2.00000000000
     -8.45554328461    6.34165746346   -2.11388582115   -2.00000000000
     -6.34165746346    8.45554328461   -2.11388582115   -2.00000000000
      0.00000000000   10.56942910577   -2.11388582115   -2.00000000000
      6.34165746346    8.45554328461   -2.11388582115   -2.00000000000
      8.45554328461    6.34165746346   -2.11388582115   -2.00000000000
     10.56942910577    0.00000000000   -2.11388582115   -2.00000000000
      8.45554328461   -6.34165746346   -2.11388582115   -2.00000000000
      6.34165746346   -8.45554328461   -2.11388582115   -2.00000000000
      0.00000000000  -10.56942910577   -2.11388582115   -2.00000000000
     -6.34165746346   -8.45554328461   -2.11388582115   -2.00000000000
     -8.45554328461   -6.34165746346   -2.11388582115   -2.00000000000
     -2.11388582115   10.56942910577   -2.11388582115    2.00000000000
      2.11388582115   10.56942910577   -2.11388582115    2.00000000000
     10.56942910577    2.11388582115   -2.11388582115    2.00000000000
     10.56942910577   -2.11388582115   -2.11388582115    2.00000000000
      2.11388582115  -10.56942910577   -2.11388582115    2.00000000000
     -2.11388582115  -10.56942910577   -2.11388582115    2.00000000000
    -10.56942910577    4.22777164231    0.00000000000    2.00000000000
     -4.22777164231   10.56942910577    0.00000000000    2.00000000000
      4.22777164231   10.56942910577    0.00000000000    2.00000000000
     10.56942910577    4.22777164231    0.00000000000    2.00000000000
     10.56942910577   -4.22777164231    0.00000000000    2.00000000000
      4.22777164231  -10.56942910577    0.00000000000    2.00000000000
     -4.22777164231  -10.56942910577    0.00000000000    2.00000000000
    -10.56942910577   -4.22777164231    0.00000000000    2.00000000000
    -10.56942910577    4.22777164231   -2.11388582115   -2.00000000000
     -4.22777164231   10.56942910577   -2.11388582115   -2.00000000000
      4.22777164231   10.56942910577   -2.11388582115   -2.00000000000
     10.56942910577    4.22777164231   -2.11388582115   -2.00000000000
     10.56942910577   -4.22777164231   -2.11388582115   -2.00000000000
      4.22777164231  -10.56942910577   -2.11388582115   -2.00000000000
     -4.22777164231  -10.56942910577   -2.11388582115   -2.00000000000
    -10.56942910577   -4.22777164231   -2.11388582115   -2.00000000000
     -8.45554328461    8.45554328461    0.00000000000   -2.00000000000
      8.45554328461    8.45554328461    0.00000000000   -2.00000000000
      8.45554328461   -8.45554328461    0.00000000000   -2.00000000000
     -8.45554328461   -8.45554328461    0.00000000000   -2.00000000000
     -8.45554328461    8.45554328461   -2.11388582115    2.00000000000
      8.45554328461    8.45554328461   -2.11388582115    2.00000000000
      8.45554328461   -8.45554328461   -2.11388582115    2.00000000000
     -8.45554328461   -8.45554328461   -2.11388582115    2.00000000000
    -10.56942910577    6.34165746346    0.00000000000   -2.00000000000
     -6.34165746346   10.56942910577    0.00000000000   -2.00000000000
      6.34165746346   10.56942910577    0.00000000000   -2.00000000000
     10.56942910577    6.34165746346    0.00000000000   -2.00000000000
     10.56942910577   -6.34165746346    0.00000000000   -2.00000000000
      6.34165746346  -10.56942910577    0.00000000000   -2.00000000000
     -6.34165746346  -10.56942910577    0.00000000000   -2.00000000000
    -10.56942910577   -6.34165746346    0.00000000000   -2.00000000000
    -10.56942910577    6.34165746346   -2.11388582115    2.00000000000
     -6.34165746346   10.56942910577   -2.11388582115    2.00000000000
      6.34165746346   10.56942910577   -2.11388582115    2.00000000000
     10.56942910577    6.34165746346   -2.11388582115    2.00000000000
     10.56942910577   -6.34165746346   -2.11388582115    2.00000000000
      6.34165746346  -10.56942910577   -2.11388582115    2.00000000000
     -6.34165746346  -10.56942910577   -2.11388582115    2.00000000000
    -10.56942910577   -6.34165746346   -2.11388582115    2.00000000000
    -12.68331492692    0.00000000000    0.00000000000   -2.00000000000
      0.00000000000   12.68331492692    0.00000000000   -2.00000000000
     12.68331492692    0.00000000000    0.00000000000   -2.00000000000
      0.00000000000  -12.68331492692    0.00000000000   -2.00000000000
    -12.68331492692    2.11388582115    0.00000000000    2.00000000000
     -2.11388582115   12.68331492692    0.00000000000    2.00000000000
      2.11388582115   12.68331492692    0.00000000000    2.00000000000
     12.68331492692    2.11388582115    0.00000000000    2.00000000000
     12.68331492692   -2.11388582115    0.00000000000    2.00000000000
      2.11388582115  -12.68331492692    0.00000000000    2.00000000000
     -2.11388582115  -12.68331492692    0.00000000000    2.00000000000
    -12.68331492692   -2.11388582115    0.00000000000    2.00000000000
    -12.68331492692    0.00000000000   -2.11388582115    2.00000000000
      0.00000000000   12.68331492692   -2.11388582115    2.00000000000
     12.68331492692    0.00000000000   -2.11388582115    2.00000000000
      0.00000000000  -12.68331492692   -2.11388582115    2.00000000000
    -12.68331492692    2.11388582115   -2.11388582115   -2.00000000000
     -2.11388582115   12.68331492692   -2.11388582115   -2.00000000000
      2.11388582115   12.68331492692   -2.11388582115   -2.00000000000
     12.68331492692    2.11388582115   -2.11388582115   -2.00000000000
     12.68331492692   -2.11388582115   -2.11388582115   -2.00000000000
      2.11388582115  -12.68331492692   -2.11388582115   -2.00000000000
     -2.11388582115  -12.68331492692   -2.11388582115   -2.00000000000
    -12.68331492692   -2.11388582115   -2.11388582115   -2.00000000000
    -12.68331492692    4.22777164231    0.00000000000   -2.00000000000
     -4.22777164231   12.68331492692    0.00000000000   -2.00000000000
      4.22777164231   12.68331492692    0.00000000000   -2.00000000000
     12.68331492692    4.22777164231    0.00000000000   -2.00000000000
     12.68331492692   -4.22777164231    0.00000000000   -2.00000000000
      4.22777164231  -12.68331492692    0.00000000000   -2.00000000000
     -4.22777164231  -12.68331492692    0.00000000000   -2.00000000000
    -12.68331492692   -4.22777164231    0.00000000000   -2.00000000000
    -10.56942910577    8.45554328461    0.00000000000    2.00000000000
     -8.45554328461   10.56942910577    0.00000000000    2.00000000000
      8.45554328461   10.56942910577    0.00000000000    2.00000000000
     10.56942910577    8.45554328461    0.00000000000    2.00000000000
     10.56942910577   -8.45554328461    0.00000000000    2.00000000000
      8.45554328461  -10.56942910577    0.00000000000    2.00000000000
     -8.45554328461  -10.56942910577    0.00000000000    2.00000000000
    -10.56942910577   -8.45554328461    0.00000000000    2.00000000000
    -12.68331492692    4.22777164231   -2.11388582115    2.00000000000
     -4.22777164231   12.68331492692   -2.11388582115    2.00000000000
      4.22777164231   12.68331492692   -2.11388582115    2.00000000000
     12.68331492692    4.22777164231   -2.11388582115    2.00000000000
     12.68331492692   -4.22777164231   -2.11388582115    2.00000000000
      4.22777164231  -12.68331492692   -2.11388582115    2.00000000000
     -4.22777164231  -12.68331492692   -2.11388582115    2.00000000000
    -12.68331492692   -4.22777164231   -2.11388582115    2.00000000000
    -10.56942910577    8.45554328461   -2.11388582115   -2.00000000000
     -8.45554328461   10.56942910577   -2.11388582115   -2.00000000000
      8.45554328461   10.56942910577   -2.11388582115   -2.00000000000
     10.56942910577    8.45554328461   -2.11388582115   -2.00000000000
     10.56942910577   -8.45554328461   -2.11388582115   -2.00000000000
      8.45554328461  -10.56942910577   -2.11388582115   -2.00000000000
     -8.45554328461  -10.56942910577   -2.11388582115   -2.00000000000
    -10.56942910577   -8.45554328461   -2.11388582115   -2.00000000000
    -12.68331492692    6.34165746346    0.00000000000    2.00000000000
     -6.34165746346   12.68331492692    0.00000000000    2.00000000000
      6.34165746346   12.68331492692    0.00000000000    2.00000000000
     12.68331492692    6.34165746346    0.00000000000    2.00000000000
     12.68331492692   -6.34165746346    0.00000000000    2.00000000000
      6.34165746346  -12.68331492692    0.00000000000    2.00000000000
     -6.34165746346  -12.68331492692    0.00000000000    2.00000000000
    -12.68331492692   -6.34165746346    0.00000000000    2.00000000000
    -12.68331492692    6.34165746346   -2.11388582115   -2.00000000000
     -6.34165746346   12.68331492692   -2.11388582115   -2.00000000000
      6.34165746346   12.68331492692   -2.11388582115   -2.00000000000
     12.68331492692    6.34165746346   -2.11388582115   -2.00000000000
     12.68331492692   -6.34165746346   -2.11388582115   -2.00000000000
      6.34165746346  -12.68331492692   -2.11388582115   -2.00000000000
     -6.34165746346  -12.68331492692   -2.11388582115   -2.00000000000
    -12.68331492692   -6.34165746346   -2.11388582115   -2.00000000000
    -14.79720074808    0.00000000000    0.00000000000    2.00000000000
      0.00000000000   14.79720074808    0.00000000000    2.00000000000
     14.79720074808    0.00000000000    0.00000000000    2.00000000000
      0.00000000000  -14.79720074808    0.00000000000    2.00000000000
    -14.79720074808    2.11388582115    0.00000000000   -2.00000000000
    -10.56942910577   10.56942910577    0.00000000000   -2.00000000000
     -2.11388582115   14.79720074808    0.00000000000   -2.00000000000
      2.11388582115   14.79720074808    0.00000000000   -2.00000000000
     10.56942910577   10.56942910577    0.00000000000   -2.00000000000
     14.79720074808    2.11388582115    0.00000000000   -2.00000000000
     14.79720074808   -2.11388582115    0.00000000000   -2.00000000000
     10.56942910577  -10.56942910577    0.00000000000   -2.00000000000
      2.11388582115  -14.79720074808    0.00000000000   -2.00000000000
     -2.11388582115  -14.79720074808    0.00000000000   -2.00000000000
    -10.56942910577  -10.56942910577    0.00000000000   -2.00000000000
    -14.79720074808   -2.11388582115    0.00000000000   -2.00000000000
    -14.79720074808    0.00000000000   -2.11388582115   -2.00000000000
      0.00000000000   14.79720074808   -2.11388582115   -2.00000000000
     14.79720074808    0.00000000000   -2.11388582115   -2.00000000000
      0.00000000000  -14.79720074808   -2.11388582115   -2.00000000000
    -14.79720074808    2.11388582115   -2.11388582115    2.00000000000
    -10.56942910577   10.56942910577   -2.11388582115    2.00000000000
     -2.11388582115   14.79720074808   -2.11388582115    2.00000000000
      2.11388582115   14.79720074808   -2.11388582115    2.00000000000
     10.56942910577   10.56942910577   -2.11388582115    2.00000000000
     14.79720074808    2.11388582115   -2.11388582115    2.00000000000
     14.79720074808   -2.11388582115   -2.11388582115    2.00000000000
     10.56942910577  -10.56942910577   -2.11388582115    2.00000000000
      2.11388582115  -14.79720074808   -2.11388582115    2.00000000000
     -2.11388582115  -14.79720074808   -2.11388582115    2.00000000000
    -10.56942910577  -10.56942910577   -2.11388582115    2.00000000000
    -14.79720074808   -2.11388582115   -2.11388582115    2.00000000000
    -12.68331492692    8.45554328461    0.00000000000   -2.00000000000
     -8.45554328461   12.68331492692    0.00000000000   -2.00000000000
      8.45554328461   12.68331492692    0.00000000000   -2.00000000000
     12.68331492692    8.45554328461    0.00000000000   -2.00000000000
     12.68331492692   -8.45554328461    0.00000000000   -2.00000000000
      8.45554328461  -12.68331492692    0.00000000000   -2.00000000000
     -8.45554328461  -12.68331492692    0.00000000000   -2.00000000000
    -12.68331492692   -8.45554328461    0.00000000000   -2.00000000000
    -14.79720074808    4.22777164231    0.00000000000    2.00000000000
     -4.22777164231   14.79720074808    0.00000000000    2.00000000000
      4.22777164231   14.79720074808    0.00000000000    2.00000000000
     14.79720074808    4.22777164231    0.00000000000    2.00000000000
     14.79720074808   -4.22777164231    0.00000000000    2.00000000000
      4.22777164231  -14.79720074808    0.00000000000    2.00000000000
     -4.22777164231  -14.79720074808    0.00000000000    2.00000000000
    -14.79720074808   -4.22777164231    0.00000000000    2.00000000000
    -12.68331492692    8.45554328461   -2.11388582115    2.00000000000
     -8.45554328461   12.68331492692   -2.11388582115    2.00000000000
      8.45554328461   12.68331492692   -2.11388582115    2.00000000000
     12.68331492692    8.45554328461   -2.11388582115    2.00000000000
     12.68331492692   -8.45554328461   -2.11388582115    2.00000000000
      8.45554328461  -12.68331492692   -2.11388582115    2.00000000000
     -8.45554328461  -12.68331492692   -2.11388582115    2.00000000000
    -12.68331492692   -8.45554328461   -2.11388582115    2.00000000000
    -14.79720074808    4.22777164231   -2.11388582115   -2.00000000000
     -4.22777164231   14.79720074808   -2.11388582115   -2.00000000000
      4.22777164231   14.79720074808   -2.11388582115   -2.00000000000
     14.79720074808    4.22777164231   -2.11388582115   -2.00000000000
     14.79720074808   -4.22777164231   -2.11388582115   -2.00000000000
      4.22777164231  -14.79720074808   -2.11388582115   -2.00000000000
     -4.22777164231  -14.79720074808   -2.11388582115   -2.00000000000
    -14.79720074808   -4.22777164231   -2.11388582115   -2.00000000000
    -14.79720074808    6.34165746346    0.00000000000   -2.00000000000
     -6.34165746346   14.79720074808    0.00000000000   -2.00000000000
      6.34165746346   14.79720074808    0.00000000000   -2.00000000000
     14.79720074808    6.34165746346    0.00000000000   -2.00000000000
     14.79720074808   -6.34165746346    0.00000000000   -2.00000000000
      6.34165746346  -14.79720074808    0.00000000000   -2.00000000000
     -6.34165746346  -14.79720074808    0.00000000000   -2.00000000000
    -14.79720074808   -6.34165746346    0.00000000000   -2.00000000000
    -14.79720074808    6.34165746346   -2.11388582115    2.00000000000
     -6.34165746346   14.79720074808   -2.11388582115    2.00000000000
      6.34165746346   14.79720074808   -2.11388582115    2.00000000000
     14.79720074808    6.34165746346   -2.11388582115    2.00000000000
     14.79720074808   -6.34165746346   -2.11388582115    2.00000000000
      6.34165746346  -14.79720074808   -2.11388582115    2.00000000000
     -6.34165746346  -14.79720074808   -2.11388582115    2.00000000000
    -14.79720074808   -6.34165746346   -2.11388582115    2.00000000000
    -12.68331492692   10.56942910577    0.00000000000    2.00000000000
    -10.56942910577   12.68331492692    0.00000000000    2.00000000000
     10.56942910577   12.68331492692    0.00000000000    2.00000000000
     12.68331492692   10.56942910577    0.00000000000    2.00000000000
     12.68331492692  -10.56942910577    0.00000000000    2.00000000000
     10.56942910577  -12.68331492692    0.00000000000    2.00000000000
    -10.56942910577  -12.68331492692    0.00000000000    2.00000000000
    -12.68331492692  -10.56942910577    0.00000000000    2.00000000000
    -12.68331492692   10.56942910577   -2.11388582115   -2.00000000000
    -10.56942910577   12.68331492692   -2.11388582115   -2.00000000000
     10.56942910577   12.68331492692   -2.11388582115   -2.00000000000
     12.68331492692   10.56942910577   -2.11388582115   -2.00000000000
     12.68331492692  -10.56942910577   -2.11388582115   -2.00000000000
     10.56942910577  -12.68331492692   -2.11388582115   -2.00000000000
    -10.56942910577  -12.68331492692   -2.11388582115   -2.00000000000
    -12.68331492692  -10.56942910577   -2.11388582115   -2.00000000000
    -16.91108656923    0.00000000000    0.00000000000   -2.00000000000
      0.00000000000   16.91108656923    0.00000000000   -2.00000000000
     16.91108656923    0.00000000000    0.00000000000   -2.00000000000
      0.00000000000  -16.91108656923    0.00000000000   -2.00000000000
    -16.91108656923    2.11388582115    0.00000000000    2.00000000000
    -14.79720074808    8.45554328461    0.00000000000    2.00000000000
     -8.45554328461   14.79720074808    0.00000000000    2.00000000000
     -2.11388582115   16.91108656923    0.00000000000    2.00000000000
      2.11388582115   16.91108656923    0.00000000000    2.00000000000
      8.45554328461   14.79720074808    0.00000000000    2.00000000000
     14.79720074808    8.45554328461    0.00000000000    2.00000000000
     16.91108656923    2.11388582115    0.00000000000    2.00000000000
     16.91108656923   -2.11388582115    0.00000000000    2.00000000000
     14.79720074808   -8.45554328461    0.00000000000    2.00000000000
      8.45554328461  -14.79720074808    0.00000000000    2.00000000000
      2.11388582115  -16.91108656923    0.00000000000    2.00000000000
     -2.11388582115  -16.91108656923    0.00000000000    2.00000000000
     -8.45554328461  -14.79720074808    0.00000000000    2.00000000000
    -14.79720074808   -8.45554328461    0.00000000000    2.00000000000
    -16.91108656923   -2.11388582115    0.00000000000    2.00000000000
    -16.91108656923    0.00000000000   -2.11388582115    2.00000000000
      0.00000000000   16.91108656923   -2.11388582115    2.00000000000
     16.91108656923    0.00000000000   -2.11388582115    2.00000000000
      0.00000000000  -16.91108656923   -2.11388582115    2.00000000000
    -16.91108656923    2.11388582115   -2.11388582115   -2.00000000000
    -14.79720074808    8.45554328461   -2.11388582115   -2.00000000000
     -8.45554328461   14.79720074808   -2.11388582115   -2.00000000000
     -2.11388582115   16.91108656923   -2.11388582115   -2.00000000000
      2.11388582115   16.91108656923   -2.11388582115   -2.00000000000
      8.45554328461   14.79720074808   -2.11388582115   -2.00000000000
     14.79720074808    8.45554328461   -2.11388582115   -2.00000000000
     16.91108656923    2.11388582115   -2.11388582115   -2.00000000000
     16.91108656923   -2.11388582115   -2.11388582115   -2.00000000000
     14.79720074808   -8.45554328461   -2.11388582115   -2.00000000000
      8.45554328461  -14.79720074808   -2.11388582115   -2.00000000000
      2.11388582115  -16.91108656923   -2.11388582115   -2.00000000000
     -2.11388582115  -16.91108656923   -2.11388582115   -2.00000000000
     -8.45554328461  -14.79720074808   -2.11388582115   -2.00000000000
    -14.79720074808   -8.45554328461   -2.11388582115   -2.00000000000
    -16.91108656923   -2.11388582115   -2.11388582115   -2.00000000000
    -16.91108656923    4.22777164231    0.00000000000   -2.00000000000
     -4.22777164231   16.91108656923    0.00000000000   -2.00000000000
      4.22777164231   16.91108656923    0.00000000000   -2.00000000000
     16.91108656923    4.22777164231    0.00000000000   -2.00000000000
     16.91108656923   -4.22777164231    0.00000000000   -2.00000000000
      4.22777164231  -16.91108656923    0.00000000000   -2.00000000000
     -4.22777164231  -16.91108656923    0.00000000000   -2.00000000000
    -16.91108656923   -4.22777164231    0.00000000000   -2.00000000000
    -16.91108656923    4.22777164231   -2.11388582115    2.00000000000
     -4.22777164231   16.91108656923   -2.11388582115    2.00000000000
      4.22777164231   16.91108656923   -2.11388582115    2.00000000000
     16.91108656923    4.22777164231   -2.11388582115    2.00000000000
     16.91108656923   -4.22777164231   -2.11388582115    2.00000000000
      4.22777164231  -16.91108656923   -2.11388582115    2.00000000000
     -4.22777164231  -16.91108656923   -2.11388582115    2.00000000000
    -16.91108656923   -4.22777164231   -2.11388582115    2.00000000000
    -12.68331492692   12.68331492692    0.00000000000   -2.00000000000
     12.68331492692   12.68331492692    0.00000000000   -2.00000000000
     12.68331492692  -12.68331492692    0.00000000000   -2.00000000000
    -12.68331492692  -12.68331492692    0.00000000000   -2.00000000000
    -16.91108656923    6.34165746346    0.00000000000    2.00000000000
     -6.34165746346   16.91108656923    0.00000000000    2.00000000000
      6.34165746346   16.91108656923    0.00000000000    2.00000000000
     16.91108656923    6.34165746346    0.00000000000    2.00000000000
     16.91108656923   -6.34165746346    0.00000000000    2.00000000000
      6.34165746346  -16.91108656923    0.00000000000    2.00000000000
     -6.34165746346  -16.91108656923    0.00000000000    2.00000000000
    -16.91108656923   -6.34165746346    0.00000000000    2.00000000000
    -12.68331492692   12.68331492692   -2.11388582115    2.00000000000
     12.68331492692   12.68331492692   -2.11388582115    2.00000000000
     12.68331492692  -12.68331492692   -2.11388582115    2.00000000000
    -12.68331492692  -12.68331492692   -2.11388582115    2.00000000000
    -14.79720074808   10.56942910577    0.00000000000   -2.00000000000
    -10.56942910577   14.79720074808    0.00000000000   -2.00000000000
     10.56942910577   14.79720074808    0.00000000000   -2.00000000000
     14.79720074808   10.56942910577    0.00000000000   -2.00000000000
     14.79720074808  -10.56942910577    0.00000000000   -2.00000000000
     10.56942910577  -14.79720074808    0.00000000000   -2.00000000000
    -10.56942910577  -14.79720074808    0.00000000000   -2.00000000000
    -14.79720074808  -10.56942910577    0.00000000000   -2.00000000000
    -16.91108656923    6.34165746346   -2.11388582115   -2.00000000000
     -6.34165746346   16.91108656923   -2.11388582115   -2.00000000000
      6.34165746346   16.91108656923   -2.11388582115   -2.00000000000
     16.91108656923    6.34165746346   -2.11388582115   -2.00000000000
     16.91108656923   -6.34165746346   -2.11388582115   -2.00000000000
      6.34165746346  -16.91108656923   -2.11388582115   -2.00000000000
     -6.34165746346  -16.91108656923   -2.11388582115   -2.00000000000
    -16.91108656923   -6.34165746346   -2.11388582115   -2.00000000000
    -14.79720074808   10.56942910577   -2.11388582115    2.00000000000
    -10.56942910577   14.79720074808   -2.11388582115    2.00000000000
     10.56942910577   14.79720074808   -2.11388582115    2.00000000000
     14.79720074808   10.56942910577   -2.11388582115    2.00000000000
     14.79720074808  -10.56942910577   -2.11388582115    2.00000000000
     10.56942910577  -14.79720074808   -2.11388582115    2.00000000000
    -10.56942910577  -14.79720074808   -2.11388582115    2.00000000000
    -14.79720074808  -10.56942910577   -2.11388582115    2.00000000000
    -16.91108656923    8.45554328461    0.00000000000   -2.00000000000
     -8.45554328461   16.91108656923    0.00000000000   -2.00000000000
      8.45554328461   16.91108656923    0.00000000000   -2.00000000000
     16.91108656923    8.45554328461    0.00000000000   -2.00000000000
     16.91108656923   -8.45554328461    0.00000000000   -2.00000000000
      8.45554328461  -16.91108656923    0.00000000000   -2.00000000000
     -8.45554328461  -16.91108656923    0.00000000000   -2.00000000000
    -16.91108656923   -8.45554328461    0.00000000000   -2.00000000000
    -19.02497239038    0.00000000000    0.00000000000    2.00000000000
      0.00000000000   19.02497239038    0.00000000000    2.00000000000
     19.02497239038    0.00000000000    0.00000000000    2.00000000000
      0.00000000000  -19.02497239038    0.00000000000    2.00000000000
    -16.91108656923    8.45554328461   -2.11388582115    2.00000000000
     -8.45554328461   16.91108656923   -2.11388582115    2.00000000000
      8.45554328461   16.91108656923   -2.11388582115    2.00000000000
     16.91108656923    8.45554328461   -2.11388582115    2.00000000000
     16.91108656923   -8.45554328461   -2.11388582115    2.00000000000
      8.45554328461  -16.91108656923   -2.11388582115    2.00000000000
     -8.45554328461  -16.91108656923   -2.11388582115    2.00000000000
    -16.91108656923   -8.45554328461   -2.11388582115    2.00000000000
    -19.02497239038    2.11388582115    0.00000000000   -2.00000000000
     -2.11388582115   19.02497239038    0.00000000000   -2.00000000000
      2.11388582115   19.02497239038    0.00000000000   -2.00000000000
     19.02497239038    2.11388582115    0.00000000000   -2.00000000000
     19.02497239038   -2.11388582115    0.00000000000   -2.00000000000
      2.11388582115  -19.02497239038    0.00000000000   -2.00000000000
     -2.11388582115  -19.02497239038    0.00000000000   -2.00000000000
    -19.02497239038   -2.11388582115    0.00000000000   -2.00000000000
    -19.02497239038    0.00000000000   -2.11388582115   -2.00000000000
      0.00000000000   19.02497239038   -2.11388582115   -2.00000000000
     19.02497239038    0.00000000000   -2.11388582115   -2.00000000000
      0.00000000000  -19.02497239038   -2.11388582115   -2.00000000000
    -19.02497239038    2.11388582115   -2.11388582115    2.00000000000
     -2.11388582115   19.02497239038   -2.11388582115    2.00000000000
      2.11388582115   19.02497239038   -2.11388582115    2.00000000000
     19.02497239038    2.11388582115   -2.11388582115    2.00000000000
     19.02497239038   -2.11388582115   -2.11388582115    2.00000000000
      2.11388582115  -19.02497239038   -2.11388582115    2.00000000000
     -2.11388582115  -19.02497239038   -2.11388582115    2.00000000000
    -19.02497239038   -2.11388582115   -2.11388582115    2.00000000000
    -19.02497239038    4.22777164231    0.00000000000    2.00000000000
    -14.79720074808   12.68331492692    0.00000000000    2.00000000000
    -12.68331492692   14.79720074808    0.00000000000    2.00000000000
     -4.22777164231   19.02497239038    0.00000000000    2.00000000000
      4.22777164231   19.02497239038    0.00000000000    2.00000000000
     12.68331492692   14.79720074808    0.00000000000    2.00000000000
     14.79720074808   12.68331492692    0.00000000000    2.00000000000
     19.02497239038    4.22777164231    0.00000000000    2.00000000000
     19.02497239038   -4.22777164231    0.00000000000    2.00000000000
     14.79720074808  -12.68331492692    0.00000000000    2.00000000000
     12.68331492692  -14.79720074808    0.00000000000    2.00000000000
      4.22777164231  -19.02497239038    0.00000000000    2.00000000000
     -4.22777164231  -19.02497239038    0.00000000000    2.00000000000
    -12.68331492692  -14.79720074808    0.00000000000    2.00000000000
    -14.79720074808  -12.68331492692    0.00000000000    2.00000000000
    -19.02497239038   -4.22777164231    0.00000000000    2.00000000000
    -19.02497239038    4.22777164231   -2.11388582115   -2.00000000000
    -14.79720074808   12.68331492692   -2.11388582115   -2.00000000000
    -12.68331492692   14.79720074808   -2.11388582115   -2.00000000000
     -4.22777164231   19.02497239038   -2.11388582115   -2.00000000000
      4.22777164231   19.02497239038   -2.11388582115   -2.00000000000
     12.68331492692   14.79720074808   -2.11388582115   -2.00000000000
     14.79720074808   12.68331492692   -2.11388582115   -2.00000000000
     19.02497239038    4.22777164231   -2.11388582115   -2.00000000000
     19.02497239038   -4.22777164231   -2.11388582115   -2.00000000000
     14.79720074808  -12.68331492692   -2.11388582115   -2.00000000000
     12.68331492692  -14.79720074808   -2.11388582115   -2.00000000000
      4.22777164231  -19.02497239038   -2.11388582115   -2.00000000000
     -4.22777164231  -19.02497239038   -2.11388582115   -2.00000000000
    -12.68331492692  -14.79720074808   -2.11388582115   -2.00000000000
    -14.79720074808  -12.68331492692   -2.11388582115   -2.00000000000
    -19.02497239038   -4.22777164231   -2.11388582115   -2.00000000000
    -16.91108656923   10.56942910577    0.00000000000    2.00000000000
    -10.56942910577   16.91108656923    0.00000000000    2.00000000000
     10.56942910577   16.91108656923    0.00000000000    2.00000000000
     16.91108656923   10.56942910577    0.00000000000    2.00000000000
     16.91108656923  -10.56942910577    0.00000000000    2.00000000000
     10.56942910577  -16.91108656923    0.00000000000    2.00000000000
    -10.56942910577  -16.91108656923    0.00000000000    2.00000000000
    -16.91108656923  -10.56942910577    0.00000000000    2.00000000000
    -19.02497239038    6.34165746346    0.00000000000   -2.00000000000
     -6.34165746346   19.02497239038    0.00000000000   -2.00000000000
      6.34165746346   19.02497239038    0.00000000000   -2.00000000000
     19.02497239038    6.34165746346    0.00000000000   -2.00000000000
     19.02497239038   -6.34165746346    0.00000000000   -2.00000000000
      6.34165746346  -19.02497239038    0.00000000000   -2.00000000000
     -6.34165746346  -19.02497239038    0.00000000000   -2.00000000000
    -19.02497239038   -6.34165746346    0.00000000000   -2.00000000000
    -16.91108656923   10.56942910577   -2.11388582115   -2.00000000000
    -10.56942910577   16.91108656923   -2.11388582115   -2.00000000000
     10.56942910577   16.91108656923   -2.11388582115   -2.00000000000
     16.91108656923   10.56942910577   -2.11388582115   -2.00000000000
     16.91108656923  -10.56942910577   -2.11388582115   -2.00000000000
     10.56942910577  -16.91108656923   -2.11388582115   -2.00000000000
    -10.56942910577  -16.91108656923   -2.11388582115   -2.00000000000
    -16.91108656923  -10.56942910577   -2.11388582115   -2.00000000000
    -19.02497239038    6.34165746346   -2.11388582115    2.00000000000
     -6.34165746346   19.02497239038   -2.11388582115    2.00000000000
      6.34165746346   19.02497239038   -2.11388582115    2.00000000000
     19.02497239038    6.34165746346   -2.11388582115    2.00000000000
     19.02497239038   -6.34165746346   -2.11388582115    2.00000000000
      6.34165746346  -19.02497239038   -2.11388582115    2.00000000000
     -6.34165746346  -19.02497239038   -2.11388582115    2.00000000000
    -19.02497239038   -6.34165746346   -2.11388582115    2.00000000000
    -19.02497239038    8.45554328461    0.00000000000    2.00000000000
     -8.45554328461   19.02497239038    0.00000000000    2.00000000000
      8.45554328461   19.02497239038    0.00000000000    2.00000000000
     19.02497239038    8.45554328461    0.00000000000    2.00000000000
     19.02497239038   -8.45554328461    0.00000000000    2.00000000000
      8.45554328461  -19.02497239038    0.00000000000    2.00000000000
     -8.45554328461  -19.02497239038    0.00000000000    2.00000000000
    -19.02497239038   -8.45554328461    0.00000000000    2.00000000000
    -14.79720074808   14.79720074808    0.00000000000   -2.00000000000
     14.79720074808   14.79720074808    0.00000000000   -2.00000000000
     14.79720074808  -14.79720074808    0.00000000000   -2.00000000000
    -14.79720074808  -14.79720074808    0.00000000000   -2.00000000000
    -19.02497239038    8.45554328461   -2.11388582115   -2.00000000000
     -8.45554328461   19.02497239038   -2.11388582115   -2.00000000000
      8.45554328461   19.02497239038   -2.11388582115   -2.00000000000
     19.02497239038    8.45554328461   -2.11388582115   -2.00000000000
     19.02497239038   -8.45554328461   -2.11388582115   -2.00000000000
      8.45554328461  -19.02497239038   -2.11388582115   -2.00000000000
     -8.45554328461  -19.02497239038   -2.11388582115   -2.00000000000
    -19.02497239038   -8.45554328461   -2.11388582115   -2.00000000000
    -14.79720074808   14.79720074808   -2.11388582115    2.00000000000
     14.79720074808   14.79720074808   -2.11388582115    2.00000000000
     14.79720074808  -14.79720074808   -2.11388582115    2.00000000000
    -14.79720074808  -14.79720074808   -2.11388582115    2.00000000000
    -21.13885821154    0.00000000000    0.00000000000   -2.00000000000
    -16.91108656923   12.68331492692    0.00000000000   -2.00000000000
    -12.68331492692   16.91108656923    0.00000000000   -2.00000000000
      0.00000000000   21.13885821154    0.00000000000   -2.00000000000
     12.68331492692   16.91108656923    0.00000000000   -2.00000000000
     16.91108656923   12.68331492692    0.00000000000   -2.00000000000
     21.13885821154    0.00000000000    0.00000000000   -2.00000000000
     16.91108656923  -12.68331492692    0.00000000000   -2.00000000000
     12.68331492692  -16.91108656923    0.00000000000   -2.00000000000
      0.00000000000  -21.13885821154    0.00000000000   -2.00000000000
    -12.68331492692  -16.91108656923    0.00000000000   -2.00000000000
    -16.91108656923  -12.68331492692    0.00000000000   -2.00000000000
    -21.13885821154    2.11388582115    0.00000000000    2.00000000000
     -2.11388582115   21.13885821154    0.00000000000    2.00000000000
      2.11388582115   21.13885821154    0.00000000000    2.00000000000
     21.13885821154    2.11388582115    0.00000000000    2.00000000000
     21.13885821154   -2.11388582115    0.00000000000    2.00000000000
      2.11388582115  -21.13885821154    0.00000000000    2.00000000000
     -2.11388582115  -21.13885821154    0.00000000000    2.00000000000
    -21.13885821154   -2.11388582115    0.00000000000    2.00000000000
    -21.13885821154    0.00000000000   -2.11388582115    2.00000000000
    -16.91108656923   12.68331492692   -2.11388582115    2.00000000000
    -12.68331492692   16.91108656923   -2.11388582115    2.00000000000
      0.00000000000   21.13885821154   -2.11388582115    2.00000000000
     12.68331492692   16.91108656923   -2.11388582115    2.00000000000
     16.91108656923   12.68331492692   -2.11388582115    2.00000000000
     21.13885821154    0.00000000000   -2.11388582115    2.00000000000
     16.91108656923  -12.68331492692   -2.11388582115    2.00000000000
     12.68331492692  -16.91108656923   -2.11388582115    2.00000000000
      0.00000000000  -21.13885821154   -2.11388582115    2.00000000000
    -12.68331492692  -16.91108656923   -2.11388582115    2.00000000000
    -16.91108656923  -12.68331492692   -2.11388582115    2.00000000000
    -21.13885821154    2.11388582115   -2.11388582115   -2.00000000000
     -2.11388582115   21.13885821154   -2.11388582115   -2.00000000000
      2.11388582115   21.13885821154   -2.11388582115   -2.00000000000
     21.13885821154    2.11388582115   -2.11388582115   -2.00000000000
     21.13885821154   -2.11388582115   -2.11388582115   -2.00000000000
      2.11388582115  -21.13885821154   -2.11388582115   -2.00000000000
     -2.11388582115  -21.13885821154   -2.11388582115   -2.00000000000
    -21.13885821154   -2.11388582115   -2.11388582115   -2.00000000000
    -21.13885821154    4.22777164231    0.00000000000   -2.00000000000
     -4.22777164231   21.13885821154    0.00000000000   -2.00000000000
      4.22777164231   21.13885821154    0.00000000000   -2.00000000000
     21.13885821154    4.22777164231    0.00000000000   -2.00000000000
     21.13885821154   -4.22777164231    0.00000000000   -2.00000000000
      4.22777164231  -21.13885821154    0.00000000000   -2.00000000000
     -4.22777164231  -21.13885821154    0.00000000000   -2.00000000000
    -21.13885821154   -4.22777164231    0.00000000000   -2.00000000000
    -21.13885821154    4.22777164231   -2.11388582115    2.00000000000
     -4.22777164231   21.13885821154   -2.11388582115    2.00000000000
      4.22777164231   21.13885821154   -2.11388582115    2.00000000000
     21.13885821154    4.22777164231   -2.11388582115    2.00000000000
     21.13885821154   -4.22777164231   -2.11388582115    2.00000000000
      4.22777164231  -21.13885821154   -2.11388582115    2.00000000000
     -4.22777164231  -21.13885821154   -2.11388582115    2.00000000000
    -21.13885821154   -4.22777164231   -2.11388582115    2.00000000000
    -19.02497239038   10.56942910577    0.00000000000   -2.00000000000
    -10.56942910577   19.02497239038    0.00000000000   -2.00000000000
     10.56942910577   19.02497239038    0.00000000000   -2.00000000000
     19.02497239038   10.56942910577    0.00000000000   -2.00000000000
     19.02497239038  -10.56942910577    0.00000000000   -2.00000000000
     10.56942910577  -19.02497239038    0.00000000000   -2.00000000000
    -10.56942910577  -19.02497239038    0.00000000000   -2.00000000000
    -19.02497239038  -10.56942910577    0.00000000000   -2.00000000000
    -19.02497239038   10.56942910577   -2.11388582115    2.00000000000
    -10.56942910577   19.02497239038   -2.11388582115    2.00000000000
     10.56942910577   19.02497239038   -2.11388582115    2.00000000000
     19.02497239038   10.56942910577   -2.11388582115    2.00000000000
     19.02497239038  -10.56942910577   -2.11388582115    2.00000000000
     10.56942910577  -19.02497239038   -2.11388582115    2.00000000000
    -10.56942910577  -19.02497239038   -2.11388582115    2.00000000000
    -19.02497239038  -10.56942910577   -2.11388582115    2.00000000000
    -21.13885821154    6.34165746346    0.00000000000    2.00000000000
     -6.34165746346   21.13885821154    0.00000000000    2.00000000000
      6.34165746346   21.13885821154    0.00000000000    2.00000000000
     21.13885821154    6.34165746346    0.00000000000    2.00000000000
     21.13885821154   -6.34165746346    0.00000000000    2.00000000000
      6.34165746346  -21.13885821154    0.00000000000    2.00000000000
     -6.34165746346  -21.13885821154    0.00000000000    2.00000000000
    -21.13885821154   -6.34165746346    0.00000000000    2.00000000000
    -21.13885821154    6.34165746346   -2.11388582115   -2.00000000000
     -6.34165746346   21.13885821154   -2.11388582115   -2.00000000000
      6.34165746346   21.13885821154   -2.11388582115   -2.00000000000
     21.13885821154    6.34165746346   -2.11388582115   -2.00000000000
     21.13885821154   -6.34165746346   -2.11388582115   -2.00000000000
      6.34165746346  -21.13885821154   -2.11388582115   -2.00000000000
     -6.34165746346  -21.13885821154   -2.11388582115   -2.00000000000
    -21.13885821154   -6.34165746346   -2.11388582115   -2.00000000000
    -16.91108656923   14.79720074808    0.00000000000    2.00000000000
    -14.79720074808   16.91108656923    0.00000000000    2.00000000000
     14.79720074808   16.91108656923    0.00000000000    2.00000000000
     16.91108656923   14.79720074808    0.00000000000    2.00000000000
     16.91108656923  -14.79720074808    0.00000000000    2.00000000000
     14.79720074808  -16.91108656923    0.00000000000    2.00000000000
    -14.79720074808  -16.91108656923    0.00000000000    2.00000000000
    -16.91108656923  -14.79720074808    0.00000000000    2.00000000000
    -16.91108656923   14.79720074808   -2.11388582115   -2.00000000000
    -14.79720074808   16.91108656923   -2.11388582115   -2.00000000000
     14.79720074808   16.91108656923   -2.11388582115   -2.00000000000
     16.91108656923   14.79720074808   -2.11388582115   -2.00000000000
     16.91108656923  -14.79720074808   -2.11388582115   -2.00000000000
     14.79720074808  -16.91108656923   -2.11388582115   -2.00000000000
    -14.79720074808  -16.91108656923   -2.11388582115   -2.00000000000
    -16.91108656923  -14.79720074808   -2.11388582115   -2.00000000000
    -21.13885821154    8.45554328461    0.00000000000   -2.00000000000
     -8.45554328461   21.13885821154    0.00000000000   -2.00000000000
      8.45554328461   21.13885821154    0.00000000000   -2.00000000000
     21.13885821154    8.45554328461    0.00000000000   -2.00000000000
     21.13885821154   -8.45554328461    0.00000000000   -2.00000000000
      8.45554328461  -21.13885821154    0.00000000000   -2.00000000000
     -8.45554328461  -21.13885821154    0.00000000000   -2.00000000000
    -21.13885821154   -8.45554328461    0.00000000000   -2.00000000000
    -19.02497239038   12.68331492692    0.00000000000    2.00000000000
    -12.68331492692   19.02497239038    0.00000000000    2.00000000000
     12.68331492692   19.02497239038    0.00000000000    2.00000000000
     19.02497239038   12.68331492692    0.00000000000    2.00000000000
     19.02497239038  -12.68331492692    0.00000000000    2.00000000000
     12.68331492692  -19.02497239038    0.00000000000    2.00000000000
    -12.68331492692  -19.02497239038    0.00000000000    2.00000000000
    -19.02497239038  -12.68331492692    0.00000000000    2.00000000000
    -21.13885821154    8.45554328461   -2.11388582115    2.00000000000
     -8.45554328461   21.13885821154   -2.11388582115    2.00000000000
      8.45554328461   21.13885821154   -2.11388582115    2.00000000000
     21.13885821154    8.45554328461   -2.11388582115    2.00000000000
     21.13885821154   -8.45554328461   -2.11388582115    2.00000000000
      8.45554328461  -21.13885821154   -2.11388582115    2.00000000000
     -8.45554328461  -21.13885821154   -2.11388582115    2.00000000000
    -21.13885821154   -8.45554328461   -2.11388582115    2.00000000000
    -19.02497239038   12.68331492692   -2.11388582115   -2.00000000000
    -12.68331492692   19.02497239038   -2.11388582115   -2.00000000000
     12.68331492692   19.02497239038   -2.11388582115   -2.00000000000
     19.02497239038   12.68331492692   -2.11388582115   -2.00000000000
     19.02497239038  -12.68331492692   -2.11388582115   -2.00000000000
     12.68331492692  -19.02497239038   -2.11388582115   -2.00000000000
    -12.68331492692  -19.02497239038   -2.11388582115   -2.00000000000
    -19.02497239038  -12.68331492692   -2.11388582115   -2.00000000000
    -23.25274403269    0.00000000000    0.00000000000    2.00000000000
      0.00000000000   23.25274403269    0.00000000000    2.00000000000
     23.25274403269    0.00000000000    0.00000000000    2.00000000000
      0.00000000000  -23.25274403269    0.00000000000    2.00000000000
    -23.25274403269    2.11388582115    0.00000000000   -2.00000000000
     -2.11388582115   23.25274403269    0.00000000000   -2.00000000000
      2.11388582115   23.25274403269    0.00000000000   -2.00000000000
     23.25274403269    2.11388582115    0.00000000000   -2.00000000000
     23.25274403269   -2.11388582115    0.00000000000   -2.00000000000
      2.11388582115  -23.25274403269    0.00000000000   -2.00000000000
     -2.11388582115  -23.25274403269    0.00000000000   -2.00000000000
    -23.25274403269   -2.11388582115    0.00000000000   -2.00000000000
    -23.25274403269    0.00000000000   -2.11388582115   -2.00000000000
      0.00000000000   23.25274403269   -2.11388582115   -2.00000000000
     23.25274403269    0.00000000000   -2.11388582115   -2.00000000000
      0.00000000000  -23.25274403269   -2.11388582115   -2.00000000000
    -23.25274403269    2.11388582115   -2.11388582115    2.00000000000
     -2.11388582115   23.25274403269   -2.11388582115    2.00000000000
      2.11388582115   23.25274403269   -2.11388582115    2.00000000000
     23.25274403269    2.11388582115   -2.11388582115    2.00000000000
     23.25274403269   -2.11388582115   -2.11388582115    2.00000000000
      2.11388582115  -23.25274403269   -2.11388582115    2.00000000000
     -2.11388582115  -23.25274403269   -2.11388582115    2.00000000000
    -23.25274403269   -2.11388582115   -2.11388582115    2.00000000000
    -23.25274403269    4.22777164231    0.00000000000    2.00000000000
    -21.13885821154   10.56942910577    0.00000000000    2.00000000000
    -10.56942910577   21.13885821154    0.00000000000    2.00000000000
     -4.22777164231   23.25274403269    0.00000000000    2.00000000000
      4.22777164231   23.25274403269    0.00000000000    2.00000000000
     10.56942910577   21.13885821154    0.00000000000    2.00000000000
     21.13885821154   10.56942910577    0.00000000000    2.00000000000
     23.25274403269    4.22777164231    0.00000000000    2.00000000000
     23.25274403269   -4.22777164231    0.00000000000    2.00000000000
     21.13885821154  -10.56942910577    0.00000000000    2.00000000000
     10.56942910577  -21.13885821154    0.00000000000    2.00000000000
      4.22777164231  -23.25274403269    0.00000000000    2.00000000000
     -4.22777164231  -23.25274403269    0.00000000000    2.00000000000
    -10.56942910577  -21.13885821154    0.00000000000    2.00000000000
    -21.13885821154  -10.56942910577    0.00000000000    2.00000000000
    -23.25274403269   -4.22777164231    0.00000000000    2.00000000000
    -23.25274403269    4.22777164231   -2.11388582115   -2.00000000000
    -21.13885821154   10.56942910577   -2.11388582115   -2.00000000000
    -10.56942910577   21.13885821154   -2.11388582115   -2.00000000000
     -4.22777164231   23.25274403269   -2.11388582115   -2.00000000000
      4.22777164231   23.25274403269   -2.11388582115   -2.00000000000
     10.56942910577   21.13885821154   -2.11388582115   -2.00000000000
     21.13885821154   10.56942910577   -2.11388582115   -2.00000000000
     23.25274403269    4.22777164231   -2.11388582115   -2.00000000000
     23.25274403269   -4.22777164231   -2.11388582115   -2.00000000000
     21.13885821154  -10.56942910577   -2.11388582115   -2.00000000000
     10.56942910577  -21.13885821154   -2.11388582115   -2.00000000000
      4.22777164231  -23.25274403269   -2.11388582115   -2.00000000000
     -4.22777164231  -23.25274403269   -2.11388582115   -2.00000000000
    -10.56942910577  -21.13885821154   -2.11388582115   -2.00000000000
    -21.13885821154  -10.56942910577   -2.11388582115   -2.00000000000
    -23.25274403269   -4.22777164231   -2.11388582115   -2.00000000000
    -16.91108656923   16.91108656923    0.00000000000   -2.00000000000
     16.91108656923   16.91108656923    0.00000000000   -2.00000000000
     16.91108656923  -16.91108656923    0.00000000000   -2.00000000000
    -16.91108656923  -16.91108656923    0.00000000000   -2.00000000000
    -16.91108656923   16.91108656923   -2.11388582115    2.00000000000
     16.91108656923   16.91108656923   -2.11388582115    2.00000000000
     16.91108656923  -16.91108656923   -2.11388582115    2.00000000000
    -16.91108656923  -16.91108656923   -2.11388582115    2.00000000000
    -23.25274403269    6.34165746346    0.00000000000   -2.00000000000
    -19.02497239038   14.79720074808    0.00000000000   -2.00000000000
    -14.79720074808   19.02497239038    0.00000000000   -2.00000000000
     -6.34165746346   23.25274403269    0.00000000000   -2.00000000000
      6.34165746346   23.25274403269    0.00000000000   -2.00000000000
     14.79720074808   19.02497239038    0.00000000000   -2.00000000000
     19.02497239038   14.79720074808    0.00000000000   -2.00000000000
     23.25274403269    6.34165746346    0.00000000000   -2.00000000000
     23.25274403269   -6.34165746346    0.00000000000   -2.00000000000
     19.02497239038  -14.79720074808    0.00000000000   -2.00000000000
     14.79720074808  -19.02497239038    0.00000000000   -2.00000000000
      6.34165746346  -23.25274403269    0.00000000000   -2.00000000000
     -6.34165746346  -23.25274403269    0.00000000000   -2.00000000000
    -14.79720074808  -19.02497239038    0.00000000000   -2.00000000000
    -19.02497239038  -14.79720074808    0.00000000000   -2.00000000000
    -23.25274403269   -6.34165746346    0.00000000000   -2.00000000000
    -23.25274403269    6.34165746346   -2.11388582115    2.00000000000
    -19.02497239038   14.79720074808   -2.11388582115    2.00000000000
    -14.79720074808   19.02497239038   -2.11388582115    2.00000000000
     -6.34165746346   23.25274403269   -2.11388582115    2.00000000000
      6.34165746346   23.25274403269   -2.11388582115    2.00000000000
     14.79720074808   19.02497239038   -2.11388582115    2.00000000000
     19.02497239038   14.79720074808   -2.11388582115    2.00000000000
     23.25274403269    6.34165746346   -2.11388582115    2.00000000000
     23.25274403269   -6.34165746346   -2.11388582115    2.00000000000
     19.02497239038  -14.79720074808   -2.11388582115    2.00000000000
     14.79720074808  -19.02497239038   -2.11388582115    2.00000000000
      6.34165746346  -23.25274403269   -2.11388582115    2.00000000000
     -6.34165746346  -23.25274403269   -2.11388582115    2.00000000000
    -14.79720074808  -19.02497239038   -2.11388582115    2.00000000000
    -19.02497239038  -14.79720074808   -2.11388582115    2.00000000000
    -23.25274403269   -6.34165746346   -2.11388582115    2.00000000000
    -21.13885821154   12.68331492692    0.00000000000   -2.00000000000
    -12.68331492692   21.13885821154    0.00000000000   -2.00000000000
     12.68331492692   21.13885821154    0.00000000000   -2.00000000000
     21.13885821154   12.68331492692    0.00000000000   -2.00000000000
     21.13885821154  -12.68331492692    0.00000000000   -2.00000000000
     12.68331492692  -21.13885821154    0.00000000000   -2.00000000000
    -12.68331492692  -21.13885821154    0.00000000000   -2.00000000000
    -21.13885821154  -12.68331492692    0.00000000000   -2.00000000000
    -23.25274403269    8.45554328461    0.00000000000    2.00000000000
     -8.45554328461   23.25274403269    0.00000000000    2.00000000000
      8.45554328461   23.25274403269    0.00000000000    2.00000000000
     23.25274403269    8.45554328461    0.00000000000    2.00000000000
     23.25274403269   -8.45554328461    0.00000000000    2.00000000000
      8.45554328461  -23.25274403269    0.00000000000    2.00000000000
     -8.45554328461  -23.25274403269    0.00000000000    2.00000000000
    -23.25274403269   -8.45554328461    0.00000000000    2.00000000000
    -21.13885821154   12.68331492692   -2.11388582115    2.00000000000
    -12.68331492692   21.13885821154   -2.11388582115    2.00000000000
     12.68331492692   21.13885821154   -2.11388582115    2.00000000000
     21.13885821154   12.68331492692   -2.11388582115    2.00000000000
     21.13885821154  -12.68331492692   -2.11388582115    2.00000000000
     12.68331492692  -21.13885821154   -2.11388582115    2.00000000000
    -12.68331492692  -21.13885821154   -2.11388582115    2.00000000000
    -21.13885821154  -12.68331492692   -2.11388582115    2.00000000000
    -23.25274403269    8.45554328461   -2.11388582115   -2.00000000000
     -8.45554328461   23.25274403269   -2.11388582115   -2.00000000000
      8.45554328461   23.25274403269   -2.11388582115   -2.00000000000
     23.25274403269    8.45554328461   -2.11388582115   -2.00000000000
     23.25274403269   -8.45554328461   -2.11388582115   -2.00000000000
      8.45554328461  -23.25274403269   -2.11388582115   -2.00000000000
     -8.45554328461  -23.25274403269   -2.11388582115   -2.00000000000
    -23.25274403269   -8.45554328461   -2.11388582115   -2.00000000000
    -25.36662985384    0.00000000000    0.00000000000   -2.00000000000
      0.00000000000   25.36662985384    0.00000000000   -2.00000000000
     25.36662985384    0.00000000000    0.00000000000   -2.00000000000
      0.00000000000  -25.36662985384    0.00000000000   -2.00000000000
    -25.36662985384    2.11388582115    0.00000000000    2.00000000000
    -19.02497239038   16.91108656923    0.00000000000    2.00000000000
    -16.91108656923   19.02497239038    0.00000000000    2.00000000000
     -2.11388582115   25.36662985384    0.00000000000    2.00000000000
      2.11388582115   25.36662985384    0.00000000000    2.00000000000
     16.91108656923   19.02497239038    0.00000000000    2.00000000000
     19.02497239038   16.91108656923    0.00000000000    2.00000000000
     25.36662985384    2.11388582115    0.00000000000    2.00000000000
     25.36662985384   -2.11388582115    0.00000000000    2.00000000000
     19.02497239038  -16.91108656923    0.00000000000    2.00000000000
     16.91108656923  -19.02497239038    0.00000000000    2.00000000000
      2.11388582115  -25.36662985384    0.00000000000    2.00000000000
     -2.11388582115  -25.36662985384    0.00000000000    2.00000000000
    -16.91108656923  -19.02497239038    0.00000000000    2.00000000000
    -19.02497239038  -16.91108656923    0.00000000000    2.00000000000
    -25.36662985384   -2.11388582115    0.00000000000    2.00000000000
    -25.36662985384    0.00000000000   -2.11388582115    2.00000000000
      0.00000000000   25.36662985384   -2.11388582115    2.00000000000
     25.36662985384    0.00000000000   -2.11388582115    2.00000000000
      0.00000000000  -25.36662985384   -2.11388582115    2.00000000000
    -23.25274403269   10.56942910577    0.00000000000   -2.00000000000
    -10.56942910577   23.25274403269    0.00000000000   -2.00000000000
     10.56942910577   23.25274403269    0.00000000000   -2.00000000000
     23.25274403269   10.56942910577    0.00000000000   -2.00000000000
     23.25274403269  -10.56942910577    0.00000000000   -2.00000000000
     10.56942910577  -23.25274403269    0.00000000000   -2.00000000000
    -10.56942910577  -23.25274403269    0.00000000000   -2.00000000000
    -23.25274403269  -10.56942910577    0.00000000000   -2.00000000000
    -25.36662985384    2.11388582115   -2.11388582115   -2.00000000000
    -19.02497239038   16.91108656923   -2.11388582115   -2.00000000000
    -16.91108656923   19.02497239038   -2.11388582115   -2.00000000000
     -2.11388582115   25.36662985384   -2.11388582115   -2.00000000000
      2.11388582115   25.36662985384   -2.11388582115   -2.00000000000
     16.91108656923   19.02497239038   -2.11388582115   -2.00000000000
     19.02497239038   16.91108656923   -2.11388582115   -2.00000000000
     25.36662985384    2.11388582115   -2.11388582115   -2.00000000000
     25.36662985384   -2.11388582115   -2.11388582115   -2.00000000000
     19.02497239038  -16.91108656923   -2.11388582115   -2.00000000000
     16.91108656923  -19.02497239038   -2.11388582115   -2.00000000000
      2.11388582115  -25.36662985384   -2.11388582115   -2.00000000000
     -2.11388582115  -25.36662985384   -2.11388582115   -2.00000000000
    -16.91108656923  -19.02497239038   -2.11388582115   -2.00000000000
    -19.02497239038  -16.91108656923   -2.11388582115   -2.00000000000
    -25.36662985384   -2.11388582115   -2.11388582115   -2.00000000000
    -23.25274403269   10.56942910577   -2.11388582115    2.00000000000
    -10.56942910577   23.25274403269   -2.11388582115    2.00000000000
     10.56942910577   23.25274403269   -2.11388582115    2.00000000000
     23.25274403269   10.56942910577   -2.11388582115    2.00000000000
     23.25274403269  -10.56942910577   -2.11388582115    2.00000000000
     10.56942910577  -23.25274403269   -2.11388582115    2.00000000000
    -10.56942910577  -23.25274403269   -2.11388582115    2.00000000000
    -23.25274403269  -10.56942910577   -2.11388582115    2.00000000000
    -25.36662985384    4.22777164231    0.00000000000   -2.00000000000
     -4.22777164231   25.36662985384    0.00000000000   -2.00000000000
      4.22777164231   25.36662985384    0.00000000000   -2.00000000000
     25.36662985384    4.22777164231    0.00000000000   -2.00000000000
     25.36662985384   -4.22777164231    0.00000000000   -2.00000000000
      4.22777164231  -25.36662985384    0.00000000000   -2.00000000000
     -4.22777164231  -25.36662985384    0.00000000000   -2.00000000000
    -25.36662985384   -4.22777164231    0.00000000000   -2.00000000000
    -21.13885821154   14.79720074808    0.00000000000    2.00000000000
    -14.79720074808   21.13885821154    0.00000000000    2.00000000000
     14.79720074808   21.13885821154    0.00000000000    2.00000000000
     21.13885821154   14.79720074808    0.00000000000    2.00000000000
     21.13885821154  -14.79720074808    0.00000000000    2.00000000000
     14.79720074808  -21.13885821154    0.00000000000    2.00000000000
    -14.79720074808  -21.13885821154    0.00000000000    2.00000000000
    -21.13885821154  -14.79720074808    0.00000000000    2.00000000000
    -25.36662985384    4.22777164231   -2.11388582115    2.00000000000
     -4.22777164231   25.36662985384   -2.11388582115    2.00000000000
      4.22777164231   25.36662985384   -2.11388582115    2.00000000000
     25.36662985384    4.22777164231   -2.11388582115    2.00000000000
     25.36662985384   -4.22777164231   -2.11388582115    2.00000000000
      4.22777164231  -25.36662985384   -2.11388582115    2.00000000000
     -4.22777164231  -25.36662985384   -2.11388582115    2.00000000000
    -25.36662985384   -4.22777164231   -2.11388582115    2.00000000000
    -21.13885821154   14.79720074808   -2.11388582115   -2.00000000000
    -14.79720074808   21.13885821154   -2.11388582115   -2.00000000000
     14.79720074808   21.13885821154   -2.11388582115   -2.00000000000
     21.13885821154   14.79720074808   -2.11388582115   -2.00000000000
     21.13885821154  -14.79720074808   -2.11388582115   -2.00000000000
     14.79720074808  -21.13885821154   -2.11388582115   -2.00000000000
    -14.79720074808  -21.13885821154   -2.11388582115   -2.00000000000
    -21.13885821154  -14.79720074808   -2.11388582115   -2.00000000000
    -25.36662985384    6.34165746346    0.00000000000    2.00000000000
     -6.34165746346   25.36662985384    0.00000000000    2.00000000000
      6.34165746346   25.36662985384    0.00000000000    2.00000000000
     25.36662985384    6.34165746346    0.00000000000    2.00000000000
     25.36662985384   -6.34165746346    0.00000000000    2.00000000000
      6.34165746346  -25.36662985384    0.00000000000    2.00000000000
     -6.34165746346  -25.36662985384    0.00000000000    2.00000000000
    -25.36662985384   -6.34165746346    0.00000000000    2.00000000000
    -25.36662985384    6.34165746346   -2.11388582115   -2.00000000000
     -6.34165746346   25.36662985384   -2.11388582115   -2.00000000000
      6.34165746346   25.36662985384   -2.11388582115   -2.00000000000
     25.36662985384    6.34165746346   -2.11388582115   -2.00000000000
     25.36662985384   -6.34165746346   -2.11388582115   -2.00000000000
      6.34165746346  -25.36662985384   -2.11388582115   -2.00000000000
     -6.34165746346  -25.36662985384   -2.11388582115   -2.00000000000
    -25.36662985384   -6.34165746346   -2.11388582115   -2.00000000000
    -23.25274403269   12.68331492692    0.00000000000    2.00000000000
    -12.68331492692   23.25274403269    0.00000000000    2.00000000000
     12.68331492692   23.25274403269    0.00000000000    2.00000000000
     23.25274403269   12.68331492692    0.00000000000    2.00000000000
     23.25274403269  -12.68331492692    0.00000000000    2.00000000000
     12.68331492692  -23.25274403269    0.00000000000    2.00000000000
    -12.68331492692  -23.25274403269    0.00000000000    2.00000000000
    -23.25274403269  -12.68331492692    0.00000000000    2.00000000000
    -23.25274403269   12.68331492692   -2.11388582115   -2.00000000000
    -12.68331492692   23.25274403269   -2.11388582115   -2.00000000000
     12.68331492692   23.25274403269   -2.11388582115   -2.00000000000
     23.25274403269   12.68331492692   -2.11388582115   -2.00000000000
     23.25274403269  -12.68331492692   -2.11388582115   -2.00000000000
     12.68331492692  -23.25274403269   -2.11388582115   -2.00000000000
    -12.68331492692  -23.25274403269   -2.11388582115   -2.00000000000
    -23.25274403269  -12.68331492692   -2.11388582115   -2.00000000000
    -25.36662985384    8.45554328461    0.00000000000   -2.00000000000
     -8.45554328461   25.36662985384    0.00000000000   -2.00000000000
      8.45554328461   25.36662985384    0.00000000000   -2.00000000000
     25.36662985384    8.45554328461    0.00000000000   -2.00000000000
     25.36662985384   -8.45554328461    0.00000000000   -2.00000000000
      8.45554328461  -25.36662985384    0.00000000000   -2.00000000000
     -8.45554328461  -25.36662985384    0.00000000000   -2.00000000000
    -25.36662985384   -8.45554328461    0.00000000000   -2.00000000000
    -25.36662985384    8.45554328461   -2.11388582115    2.00000000000
     -8.45554328461   25.36662985384   -2.11388582115    2.00000000000
      8.45554328461   25.36662985384   -2.11388582115    2.00000000000
     25.36662985384    8.45554328461   -2.11388582115    2.00000000000
     25.36662985384   -8.45554328461   -2.11388582115    2.00000000000
      8.45554328461  -25.36662985384   -2.11388582115    2.00000000000
     -8.45554328461  -25.36662985384   -2.11388582115    2.00000000000
    -25.36662985384   -8.45554328461   -2.11388582115    2.00000000000
    -19.02497239038   19.02497239038    0.00000000000   -2.00000000000
     19.02497239038   19.02497239038    0.00000000000   -2.00000000000
     19.02497239038  -19.02497239038    0.00000000000   -2.00000000000
    -19.02497239038  -19.02497239038    0.00000000000   -2.00000000000
    -19.02497239038   19.02497239038   -2.11388582115    2.00000000000
     19.02497239038   19.02497239038   -2.11388582115    2.00000000000
     19.02497239038  -19.02497239038   -2.11388582115    2.00000000000
    -19.02497239038  -19.02497239038   -2.11388582115    2.00000000000
    -21.13885821154   16.91108656923    0.00000000000   -2.00000000000
    -16.91108656923   21.13885821154    0.00000000000   -2.00000000000
     16.91108656923   21.13885821154    0.00000000000   -2.00000000000
     21.13885821154   16.91108656923    0.00000000000   -2.00000000000
[...]
 Iteration  3        0.025059607539       -0.972547325129
 Iteration  4        0.006809132384       -0.972580357931
 Iteration  5        0.003205072797       -0.972352239710
 Iteration  6        0.001227479762       -0.972343936188
 Iteration  7        0.000542256573       -0.972340841399
 Iteration  8        0.000221718818       -0.972337497453
 Iteration  9        0.000103007327       -0.972340048891
 Iteration 10        0.000042149007       -0.972342156123
 
 CCSD iteration has converged in 10 steps.
      501.49 MB memory was utilized by CCSD
 
 T1 diagnostic:      1.732E-02            D1 diagnostic:      9.388E-02
 
 T1 contribution [au]:                         0.000000000000
 CCSD correlation energy [au]:                -0.057572989002
 
 CPU time [min]:  8659.175                   Wall time [min]:   566.586
 
 Calculation of (T) correction...
 
 Laplace threshold, nquadmin:  1.00E-03   4
 Number of quadrature points:    4
 
      535.97 MB memory is utilized for (T)

 0%       25%       50%       75%       100%
 |---------|---------|---------|---------| 
 
 (T) correction [au]:                   -0.001722717993
 CCSD(T) correlation energy [au]:       -0.059295706994
 
 CPU time [min]:  8664.186                   Wall time [min]:   566.857
 
 MO:   107
 Number of atoms in domain:      35
 Number of atomic orbitals:     822
 Number of atoms for local DF:   21
 Number of fitting functions:  1788  (63.68%)
 Number of occupied orbitals:    54
 Number of virtual  orbitals:   489
 Number of Cholesky vectors:      7
 MP2 energy in ED [au]:          -0.058589404658
 Number of occupied LNOs:        34  (62.96%)
 Number of virtual  LNOs:        98  (20.04%)
 Number of Cholesky vectors:      6
 MP2 energy in LIS [au]:         -0.058423121533
 Correction for frozen LNO [au]: -0.000166283125     (0.284%)
 Number of NAFs:                338  (18.90%)
 CPU time [min]:  8672.737                   Wall time [min]:   567.306
 

 Direct DF-CCSD(T) calculation
 
 Convergence criterion:  1.0E-05
 
 Number of occupied/virtual/auxiliary orbitals:    34    98   338
    332.15 MB is the minimal memory requirement for (T)
    249.39 MB is the minimal memory requirement for CCSD
 
 MP2 correlation energy [au]:       -1.085985805605
 
 LMP2 domain correlation energy contribution [au]:       -0.058446703891
 
 CPU time [min]:  8672.886                   Wall time [min]:   567.322
 
 
 Starting CCSD iterations...
 
                     Residual norm       Correlation Energy
 Iteration  1        0.217427487840       -1.068530191685
 Iteration  2        0.072640642335       -1.095327496916
 Iteration  3        0.027280082486       -1.101811278193
 Iteration  4        0.006880853258       -1.101872430928
 Iteration  5        0.003052898467       -1.101598240990
 Iteration  6        0.001028366528       -1.101601839784
 Iteration  7        0.000436040881       -1.101594649818
 Iteration  8        0.000156025394       -1.101588145863
 Iteration  9        0.000069519392       -1.101588941406
 
 CCSD iteration has converged in  9 steps.
      578.04 MB memory was utilized by CCSD
 
 T1 diagnostic:      1.615E-02            D1 diagnostic:      8.665E-02
 
 T1 contribution [au]:                         0.000000000000
 CCSD correlation energy [au]:                -0.058472371377
 
 CPU time [min]:  8680.548                   Wall time [min]:   567.903
 
 Calculation of (T) correction...
 
 Laplace threshold, nquadmin:  1.00E-03   4
 Number of quadrature points:    4
 
      611.94 MB memory is utilized for (T)

 0%       25%       50%       75%       100%
 |---------|---------|---------|---------| 
 
 (T) correction [au]:                   -0.001804744466
 CCSD(T) correlation energy [au]:       -0.060277115843
 
 CPU time [min]:  8686.969                   Wall time [min]:   568.245
 
 MO:   108
 Number of atoms in domain:      35
 Number of atomic orbitals:     822
 Number of atoms for local DF:   20
 Number of fitting functions:  1716  (61.11%)
 Number of occupied orbitals:    51
 Number of virtual  orbitals:   469
 Number of Cholesky vectors:      7
 MP2 energy in ED [au]:          -0.057770184999
 Number of occupied LNOs:        33  (64.71%)
 Number of virtual  LNOs:        94  (20.04%)
 Number of Cholesky vectors:      6
 MP2 energy in LIS [au]:         -0.057623024013
 Correction for frozen LNO [au]: -0.000147160986     (0.255%)
 Number of NAFs:                322  (18.76%)
 CPU time [min]:  8694.968                   Wall time [min]:   568.667
 

 Direct DF-CCSD(T) calculation
 
 Convergence criterion:  1.0E-05
 
 Number of occupied/virtual/auxiliary orbitals:    33    94   322
    296.69 MB is the minimal memory requirement for (T)
    224.75 MB is the minimal memory requirement for CCSD
 
 MP2 correlation energy [au]:       -0.944713711055
 
 LMP2 domain correlation energy contribution [au]:       -0.057643508653
 
 CPU time [min]:  8695.123                   Wall time [min]:   568.682
 
 
 Starting CCSD iterations...
 
                     Residual norm       Correlation Energy
 Iteration  1        0.207478909641       -0.941905844941
 Iteration  2        0.066543495467       -0.967199750701
 Iteration  3        0.025057417348       -0.972593870152
 Iteration  4        0.006809277098       -0.972627018739
 Iteration  5        0.003205481375       -0.972398912421
 Iteration  6        0.001227601799       -0.972390604043
 Iteration  7        0.000542212758       -0.972387512812
 Iteration  8        0.000221631800       -0.972384173897
 Iteration  9        0.000102937079       -0.972386728892
 Iteration 10        0.000042109282       -0.972388832564
 
 CCSD iteration has converged in 10 steps.
      501.49 MB memory was utilized by CCSD
 
 T1 diagnostic:      1.732E-02            D1 diagnostic:      9.389E-02
 
 T1 contribution [au]:                         0.000000000000
 CCSD correlation energy [au]:                -0.057572800078
 
 CPU time [min]:  8702.530                   Wall time [min]:   569.287
 
 Calculation of (T) correction...
 
 Laplace threshold, nquadmin:  1.00E-03   4
 Number of quadrature points:    4
 
      535.97 MB memory is utilized for (T)

 0%       25%       50%       75%       100%
 |---------|---------|---------|---------| 
 
 (T) correction [au]:                   -0.001722693845
 CCSD(T) correlation energy [au]:       -0.059295493923
 
 CPU time [min]:  8707.501                   Wall time [min]:   569.555
 
 MO:   109
 Number of atoms in domain:      36
 Number of atomic orbitals:     845
 Number of atoms for local DF:   27
 Number of fitting functions:  2232  (77.50%)
 Number of occupied orbitals:    70
 Number of virtual  orbitals:   585
 Number of Cholesky vectors:      7
 MP2 energy in ED [au]:          -0.057851867747
 Number of occupied LNOs:        35  (50.00%)
 Number of virtual  LNOs:       103  (17.61%)
 Number of Cholesky vectors:      6
 MP2 energy in LIS [au]:         -0.057646425677
 Correction for frozen LNO [au]: -0.000205442070     (0.355%)
 Number of NAFs:                347  (15.55%)
 CPU time [min]:  8721.997                   Wall time [min]:   570.332
 

 Direct DF-CCSD(T) calculation
 
 Convergence criterion:  1.0E-05
 
 Number of occupied/virtual/auxiliary orbitals:    35   103   347
    375.78 MB is the minimal memory requirement for (T)
    278.92 MB is the minimal memory requirement for CCSD
 
 MP2 correlation energy [au]:       -1.153455623065
 
 LMP2 domain correlation energy contribution [au]:       -0.057673425463
 
 CPU time [min]:  8722.180                   Wall time [min]:   570.352
 
 
 Starting CCSD iterations...
 
                     Residual norm       Correlation Energy
 Iteration  1        0.226406275931       -1.141394019829
 Iteration  2        0.071285265235       -1.169421221459
 Iteration  3        0.025872510926       -1.175171826630
 Iteration  4        0.005891827886       -1.175273594035
 Iteration  5        0.002013776194       -1.175200425184
 Iteration  6        0.000601389473       -1.175209593753
 Iteration  7        0.000232725344       -1.175201929847
 Iteration  8        0.000074208022       -1.175198220032
 
 CCSD iteration has converged in  8 steps.
      683.27 MB memory was utilized by CCSD
 
 T1 diagnostic:      1.442E-02            D1 diagnostic:      4.895E-02
 
 T1 contribution [au]:                         0.000000000000
 CCSD correlation energy [au]:                -0.057747072029
 
 CPU time [min]:  8730.424                   Wall time [min]:   571.085
 
 Calculation of (T) correction...
 
 Laplace threshold, nquadmin:  1.00E-03   4
 Number of quadrature points:    4
 
      710.66 MB memory is utilized for (T)

 0%       25%       50%       75%       100%
 |---------|---------|---------|---------| 
 
 (T) correction [au]:                   -0.001692989430
 CCSD(T) correlation energy [au]:       -0.059440061459
 
 CPU time [min]:  8738.716                   Wall time [min]:   571.531
 
 MO:   110
 Number of atoms in domain:      36
 Number of atomic orbitals:     845
 Number of atoms for local DF:   27
 Number of fitting functions:  2232  (77.50%)
 Number of occupied orbitals:    71
 Number of virtual  orbitals:   585
 Number of Cholesky vectors:      7
 MP2 energy in ED [au]:          -0.057660685212
 Number of occupied LNOs:        35  (49.30%)
 Number of virtual  LNOs:       103  (17.61%)
 Number of Cholesky vectors:      6
 MP2 energy in LIS [au]:         -0.057453901169
 Correction for frozen LNO [au]: -0.000206784043     (0.359%)
 Number of NAFs:                346  (15.50%)
 CPU time [min]:  8752.725                   Wall time [min]:   572.280
 

 Direct DF-CCSD(T) calculation
 
 Convergence criterion:  1.0E-05
 
 Number of occupied/virtual/auxiliary orbitals:    35   103   346
    375.51 MB is the minimal memory requirement for (T)
    278.70 MB is the minimal memory requirement for CCSD
 
 MP2 correlation energy [au]:       -1.162389797493
 
 LMP2 domain correlation energy contribution [au]:       -0.057481088496
 
 CPU time [min]:  8752.889                   Wall time [min]:   572.299
 
 
 Starting CCSD iterations...
 
                     Residual norm       Correlation Energy
 Iteration  1        0.225163949206       -1.149539309287
 Iteration  2        0.070848211609       -1.177377733669
 Iteration  3        0.025854023513       -1.183166539921
 Iteration  4        0.005968011445       -1.183255576483
 Iteration  5        0.002065886785       -1.183179667882
 Iteration  6        0.000632643469       -1.183188418047
 Iteration  7        0.000252389113       -1.183179968174
 Iteration  8        0.000078925886       -1.183175320513
 
 CCSD iteration has converged in  8 steps.
      683.09 MB memory was utilized by CCSD
 
 T1 diagnostic:      1.441E-02            D1 diagnostic:      5.133E-02
 
 T1 contribution [au]:                         0.000000000000
 CCSD correlation energy [au]:                -0.057552901994
 
 CPU time [min]:  8761.089                   Wall time [min]:   572.932
 
 Calculation of (T) correction...
 
 Laplace threshold, nquadmin:  1.00E-03   4
 Number of quadrature points:    4
 
      710.47 MB memory is utilized for (T)

 0%       25%       50%       75%       100%
 |---------|---------|---------|---------| 
 
 (T) correction [au]:                   -0.001683320244
 CCSD(T) correlation energy [au]:       -0.059236222239
 
 CPU time [min]:  8769.254                   Wall time [min]:   573.371
 
 MO:   111
 Number of atoms in domain:      36
 Number of atomic orbitals:     845
 Number of atoms for local DF:   29
 Number of fitting functions:  2376  (82.50%)
 Number of occupied orbitals:    81
 Number of virtual  orbitals:   620
 Number of Cholesky vectors:      7
 MP2 energy in ED [au]:          -0.060888438413
 Number of occupied LNOs:        56  (69.14%)
 Number of virtual  LNOs:       154  (24.84%)
 Number of Cholesky vectors:      6
 MP2 energy in LIS [au]:         -0.060681378358
 Correction for frozen LNO [au]: -0.000207060056     (0.340%)
 Number of NAFs:                573  (24.12%)
 CPU time [min]:  8790.061                   Wall time [min]:   574.493
 

 Direct DF-CCSD(T) calculation
 
 Convergence criterion:  1.0E-05
 
 Number of occupied/virtual/auxiliary orbitals:    56   154   573
   1527.64 MB is the minimal memory requirement for (T)
   1122.64 MB is the minimal memory requirement for CCSD
 
 MP2 correlation energy [au]:       -1.732139124198
 
 LMP2 domain correlation energy contribution [au]:       -0.060696989818
 
 CPU time [min]:  8790.612                   Wall time [min]:   574.650
 
 
 Starting CCSD iterations...
 
                     Residual norm       Correlation Energy
 Iteration  1        0.294671434415       -1.677757157539
 Iteration  2        0.098780710320       -1.728579531626
 Iteration  3        0.037430052159       -1.738475958966
 Iteration  4        0.014253718175       -1.739151834592
 Iteration  5        0.007096857490       -1.738653635007
 Iteration  6        0.003458284635       -1.738797029845
 Iteration  7        0.001808229763       -1.738823706653
 Iteration  8        0.000773925378       -1.738791523302
 Iteration  9        0.000391156763       -1.738804046987
 Iteration 10        0.000167908931       -1.738815809634
 Iteration 11        0.000077051809       -1.738815870372
 Iteration 12        0.000036492487       -1.738813996670
 
 CCSD iteration has converged in 12 steps.
     3206.59 MB memory was utilized by CCSD
 
 T1 diagnostic:      1.839E-02            D1 diagnostic:      1.216E-01
 
 T1 contribution [au]:                         0.000000000000
 CCSD correlation energy [au]:                -0.059985370438
 
 CPU time [min]:  8891.601                   Wall time [min]:   582.814
 
 Calculation of (T) correction...
 
 Laplace threshold, nquadmin:  1.00E-03   4
 Number of quadrature points:    4
 
     3455.62 MB memory is utilized for (T)

 0%       25%       50%       75%       100%
 |---------|---------|---------|---------| 
 
 (T) correction [au]:                   -0.002367605945
 CCSD(T) correlation energy [au]:       -0.062352976383
 
 CPU time [min]:  8988.406                   Wall time [min]:   587.949
 
 **********************************************************************
 Dimensions of the extended domains:    Minimum / Average / Maximum
 
 Number of atoms in domain:                  34      35.4        36
 Number of atomic orbitals:                 799     830.5       845
 Number of fitting functions:              1276    1982.7      2880
 Number of occupied localized MOs:           28      60.0       111
 Number of PAOs:                            346     526.8       656
 Number of occupied LNOs:                    17      34.3        86
 Number of virtual  LNOs:                    58     102.3       278
 Number of NAFs:                            179     353.5      1001
 
 **********************************************************************
 Distant (and weak) pair contributions, corrections
 
 Sum of pair energies [au]:                    -0.002353673617    (0.036%)
 Sum of energy corrections [au]:               -0.019019537252    (0.290%)
 Pair energies + LNO corrections [au]:         -0.021373210868
 Sum of LMP2 contributions [au]:               -6.563711884466
 
 **********************************************************************
  Time of manipulations in the EDs:      max CPU/Wall [s]  all CPU/Wall [min]
 
 PD construction & multipole pair E     604.57    32.00    10.08     0.53
 Construct MO basis of the ED             7.17     0.44     8.03     0.61
 (mu,nu|P) evaluation & trf 2 (ai|P)    735.53    37.10   501.99    25.13
 Evaluate MP2 energy of the ED          145.01     7.26    82.64     4.14
 Transformations to the LNO basis        99.51     5.03    38.64     1.94
 Build W_PQ (Jai or Jpi part)            18.43     1.91     9.33     1.09
 Evaluate MP2 energy of the LIS          18.85     0.94     3.13     0.16
 (mu,nu|P) evaluation & trf 2 J(abQ)   2077.48   110.54   664.06    36.30
 Total of the above for all EDs        3101.97   163.21  1307.81    69.36
 
 **********************************************************************
 Maximum memory requirement [MB]:       
 
 PD construction & multipole pair E         79.2
 AO integral evaluation in the EDs         764.5
 (mu,nu|P) evaluation & trf 2 (aI|P)      5650.9
 Evaluate MP2 energy in the EDs           4216.4
 Transformation to the LNO basis          2674.3
 (mu,nu|P) to Jab transformation          2564.8
 Evaluate MP2 energy in the LIS           2641.9
 Minimum requirement for LIS CCSD         7039.3
 Actually allocated  for LIS CCSD        29901.2
 Minimum requirement for LIS (T)          9703.2
 Actually allocated  for LIS (T)         27040.1
 
 ======================================================================
 ======================================================================
 
 
 
 ======================================================================
 ======================================================================
 
 Final local CC results:
 
 Minimum number of correlated electrons:        34       ( 15.3%)
 Maximum number of correlated electrons:       172       ( 77.5%)
 Average number of correlated electrons:        68.6     ( 30.9%)
 Minimum number of correlated orbitals:         75       (  9.8%)
 Maximum number of correlated orbitals:        364       ( 47.5%)
 Average number of correlated orbitals:        136.6     ( 17.8%)
 
 CPU time for integral calculations [min]:                  6.005
 Wall time for integral calculations [min]:                 2.496
 
 CPU time for SCF calculation [min]:                      337.186
 Wall time for SCF calculation [min]:                      17.020
 
 CPU time for orbital localization [min]:                   0.394
 Wall time for orbital localization [min]:                  0.266
 
 CPU time for integral transformations [min]:            1351.863
 Wall time for integral transformations [min]:             72.615
 
 Reference energy [au]:                                -11293.672040727448
 
 LMP2 correlation energy [au]:                             -6.563711884466
 Total LMP2 energy [au]:                               -11300.235752611914
 
 Total MP2 correction for dropped NAFs [au]:                0.002541245702
 Total MP2 correction [au]:                                -0.018831965167
 
 CPU time for CCSD calculations [min]:                   3916.370
 Total CPU time for CCSD [min]:                          5611.818
 Wall time for CCSD calculations [min]:                   318.437
 Total wall time for CCSD [min]:                          410.834
 
 CCSD correlation energy [au]:                             -6.477234749820
 Total CCSD energy [au]:                               -11300.149275477268
 CCSD correlation energy + 0.5 MP2 corrections [au]:       -6.486650732403
 Total LNO-CCSD energy with MP2 corrections [au]:      -11300.158691459852
 
 CPU time for (T) corrections [min]:                     3720.209
 Total CPU time for CCSD(T) [min]:                       9332.027
 Wall time for (T) corrections [min]:                     196.939
 Total wall time for CCSD(T) [min]:                       607.773
 
 Total (T) correlation energy contribution [au]:           -0.205768014660
 Total (T) correlation energy+0.5 MP2 correction [au]:     -0.215183997243
 CCSD(T) correlation energy [au]:                          -6.683002764480
 Total CCSD(T) energy [au]:                            -11300.355043491927
 CCSD(T) correlation energy + MP2 corrections [au]:        -6.701834729646
 Total LNO-CCSD(T) energy with MP2 corrections [au]:   -11300.373875457095
 
 ======================================================================
 ======================================================================
 
 ************************ 2022-08-19 12:12:40 *************************
                      Normal termination of mrcc.
 **********************************************************************
