 vasp.6.3.0 20Jan22 (build Apr  1 2022 16:44:48) complex                         
 executed on        HPECrayEX_GCC date 2022.08.15  17:05:39
 running  512 mpi-ranks, with    1 threads/rank
 distrk:  each k-point on  256 cores,    2 groups
 distr:  one band on NCORE=   4 cores,   64 groups


--------------------------------------------------------------------------------------------------------


 INCAR:
   SYSTEM = MgO-rocksalt
   ISMEAR = 0
   SIGMA = 0.05
   EDIFF = 1E-6
   ALGO = ALL
   ISTART = 0
   IBRION = -1
   NSW = 0
   ISYM = 2
   DIPOL = 0.5 0.5 0.5
   IDIPOL = 3
   LDIPOL = .TRUE.
   GGA = PE
   IVDW = 202
   LVDWEXPANSION = .TRUE.
   ENCUT = 520
   PREC = Accurate
   LASPH = .TRUE.
   LREAL = Auto
   ISPIN = 1
   NELM = 200
   NELMIN = 8
   NCORE = 4
   KPAR = 2
   LWAVE = .FALSE.
   LCHARG = .FALSE.

 POTCAR:    PAW_PBE Au 04Oct2007                  
 POTCAR:    PAW_PBE Au 04Oct2007                  
   SHA256 =  d0044ae04e2bdce24051b198fc5c053d722a5bc6fe3c3b100514a13fc5d2db88 Au/POTCAR             
   COPYR  = (c) Copyright 04Oct2007 Georg Kresse                                                    
   COPYR  = This file is part of the software VASP. Any use, copying, and all other rights are regul
   COPYR  = If you do not have a valid VASP license, you may not use, copy or distribute this file. 
   VRHFIN =Au: s1d10                                                                                
   LEXCH  = PE                                                                                      
   EATOM  =   926.0867 eV,   68.0654 Ry                                                             
                                                                                                    
   TITEL  = PAW_PBE Au 04Oct2007                                                                    
   LULTRA =        F    use ultrasoft PP ?                                                          
   IUNSCR =        1    unscreen: 0-lin 1-nonlin 2-no                                               
   RPACOR =    2.330    partial core radius                                                         
   POMASS =  196.966; ZVAL   =   11.000    mass and valenz                                          
   RCORE  =    2.500    outmost cutoff radius                                                       
   RWIGS  =    2.840; RWIGS  =    1.503    wigner-seitz radius (au A)                               
   ENMAX  =  229.943; ENMIN  =  172.457 eV                                                          
   ICORE  =        3    local potential                                                             
   LCOR   =        T    correct aug charges                                                         
   LPAW   =        T    paw PP                                                                      
   EAUG   =  356.670                                                                                
   DEXC   =    0.000                                                                                
   RMAX   =    2.562    core radius for proj-oper                                                   
   RAUG   =    1.300    factor for augmentation sphere                                              
   RDEP   =    2.598    radius for radial grids                                                     
   RDEPT  =    2.193    core radius for aug-charge                                                  
                                                                                                    
   Atomic configuration                                                                             
   16 entries                                                                                       
     n  l   j            E        occ.                                                              
     1  0  0.50    -80748.5001   2.0000                                                             
     2  0  0.50    -14244.7466   2.0000                                                             
     2  1  1.50    -12310.9591   6.0000                                                             
     3  0  0.50     -3362.1768   2.0000                                                             
     3  1  1.50     -2801.5463   6.0000                                                             
     3  2  2.50     -2203.8206  10.0000                                                             
     4  0  0.50      -729.8168   2.0000                                                             
     4  1  1.50      -546.0527   6.0000                                                             
     4  2  2.50      -325.7302  10.0000                                                             
     4  3  3.50       -81.1472  14.0000                                                             
     5  0  0.50      -108.3201   2.0000                                                             
     5  1  1.50       -59.7479   6.0000                                                             
     5  2  2.50        -6.8783  10.0000                                                             
     6  0  0.50        -5.7602   1.0000                                                             
     6  1  1.50        -6.8029   0.0000                                                             
     5  3  2.50        -1.3606   0.0000                                                             
   Description                                                                                      
     l       E           TYP  RCUT    TYP  RCUT                                                     
     2     -6.8782861     23  2.500                                                                 
     2     -8.2388687     23  2.500                                                                 
     0     -5.7601759     23  2.500                                                                 
     0     -0.8493231     23  2.500                                                                 
     1     -2.7211652     23  2.500                                                                 
     1     27.2116520     23  2.500                                                                 
     3     -1.3605826     23  2.500                                                                 
  local pseudopotential read in
  partial core-charges read in
  partial kinetic energy density read in
  atomic valenz-charges read in
  non local Contribution for L=           2  read in
    real space projection operators read in
  non local Contribution for L=           2  read in
    real space projection operators read in
  non local Contribution for L=           0  read in
    real space projection operators read in
  non local Contribution for L=           0  read in
    real space projection operators read in
  non local Contribution for L=           1  read in
    real space projection operators read in
  non local Contribution for L=           1  read in
    real space projection operators read in
    PAW grid and wavefunctions read in

   number of l-projection  operators is LMAX  =           6
   number of lm-projection operators is LMMAX =          18

 -----------------------------------------------------------------------------
|                                                                             |
|               ----> ADVICE to this user running VASP <----                  |
|                                                                             |
|     You have a (more or less) 'small supercell' and for smaller cells       |
|     it is recommended to use the reciprocal-space projection scheme!        |
|     The real-space optimization is not efficient for small cells and it     |
|     is also less accurate ...                                               |
|     Therefore, set LREAL=.FALSE. in the INCAR file.                         |
|                                                                             |
 -----------------------------------------------------------------------------

 Optimization of the real space projectors (new method)

 maximal supplied QI-value         = 15.12
 optimisation between [QCUT,QGAM] = [ 11.64, 23.28] = [ 37.95,151.78] Ry 
 Optimized for a Real-space Cutoff    1.49 Angstroem

   l    n(q)    QCUT    max X(q) W(low)/X(q) W(high)/X(q)  e(spline) 
   2      9    11.641    60.898    0.24E-03    0.10E-03    0.19E-06
   2      9    11.641    58.894    0.25E-03    0.10E-03    0.19E-06
   0     10    11.641   109.617    0.73E-04    0.33E-04    0.11E-06
   0     10    11.641    75.026    0.71E-04    0.32E-04    0.11E-06
   1     10    11.641    16.344    0.27E-04    0.97E-04    0.16E-06
   1     10    11.641    10.160    0.23E-04    0.77E-04    0.13E-06
  PAW_PBE Au 04Oct2007                  :
 energy of atom  1       EATOM= -926.0867
 kinetic energy error for atom=    0.0034 (will be added to EATOM!!)


 POSCAR: Au
  positions in direct lattice
  No initial velocities read in
 exchange correlation table for  LEXCH =        8
   RHO(1)=    0.500       N(1)  =     2000
   RHO(2)=  100.500       N(2)  =     4000



--------------------------------------------------------------------------------------------------------


 ion  position               nearest neighbor table
   1  0.492  0.408  0.630-   2 2.53
   2  0.408  0.492  0.630-   1 2.53

  LATTYP: Found a simple tetragonal cell.
 ALAT       =    21.1388521970
 C/A-ratio  =     1.0461251639
  
  Lattice vectors:
  
 A1 = (  21.1388521970,   0.0000000000,   0.0000000000)
 A2 = (   0.0000000000,  21.1388521970,   0.0000000000)
 A3 = (   0.0000000000,   0.0000000000,  22.1138852197)


Analysis of symmetry for initial positions (statically):
=====================================================================
 Subroutine PRICEL returns:
 Original cell was already a primitive cell.
 

 Routine SETGRP: Setting up the symmetry group for a 
 simple tetragonal supercell.


 Subroutine GETGRP returns: Found  8 space group operations
 (whereof  2 operations were pure point group operations)
 out of a pool of 16 trial point group operations.


The static configuration has the point symmetry C_1h.
 The point group associated with its full space group is D_2h.


Analysis of symmetry for dynamics (positions and initial velocities):
=====================================================================
 Subroutine PRICEL returns:
 Original cell was already a primitive cell.
 

 Routine SETGRP: Setting up the symmetry group for a 
 simple tetragonal supercell.


 Subroutine GETGRP returns: Found  8 space group operations
 (whereof  2 operations were pure point group operations)
 out of a pool of 16 trial point group operations.


The dynamic configuration has the point symmetry C_1h.
 The point group associated with its full space group is D_2h.


 Subroutine INISYM returns: Found  8 space group operations
 (whereof  2 operations are pure point group operations),
 and found     1 'primitive' translations


----------------------------------------------------------------------------------------

                                     Primitive cell                                     

  volume of cell :    9881.6133

  direct lattice vectors                    reciprocal lattice vectors
    21.138852197  0.000000000  0.000000000     0.047306258  0.000000000  0.000000000
     0.000000000 21.138852197  0.000000000     0.000000000  0.047306258  0.000000000
     0.000000000  0.000000000 22.113885220     0.000000000  0.000000000  0.045220457

  length of vectors
    21.138852197 21.138852197 22.113885220     0.047306258  0.047306258  0.045220457

  position of ions in fractional coordinates (direct lattice)
     0.492280992  0.407719014  0.629662437
     0.407718984  0.492281023  0.629662437

  ion indices of the primitive-cell ions
   primitive index   ion index
                 1           1
                 2           2

----------------------------------------------------------------------------------------



 KPOINTS: KPOINTS created by Atomic Simulation Env

Automatic generation of k-mesh.
 Grid dimensions read from file:
 generate k-points for:    4    4    1

 Generating k-lattice:

  Cartesian coordinates                     Fractional coordinates (reciprocal lattice)
     0.011826565  0.000000000  0.000000000     0.250000000  0.000000000  0.000000000
     0.000000000  0.011826565  0.000000000     0.000000000  0.250000000  0.000000000
     0.000000000  0.000000000  0.045220457     0.000000000  0.000000000  1.000000000

  Length of vectors
     0.011826565  0.011826565  0.045220457

  Shift w.r.t. Gamma in fractional coordinates (k-lattice)
     0.500000000  0.500000000  0.000000000

 
 Subroutine IBZKPT returns following result:
 ===========================================
 
 Found      6 irreducible k-points:
 
 Following reciprocal coordinates:
            Coordinates               Weight
  0.125000  0.125000  0.000000      2.000000
 -0.125000  0.125000  0.000000      2.000000
  0.375000  0.125000  0.000000      4.000000
 -0.125000  0.375000  0.000000      4.000000
  0.375000  0.375000  0.000000      2.000000
 -0.375000  0.375000  0.000000      2.000000
 
 Following cartesian coordinates:
            Coordinates               Weight
  0.005913  0.005913  0.000000      2.000000
 -0.005913  0.005913  0.000000      2.000000
  0.017740  0.005913  0.000000      4.000000
 -0.005913  0.017740  0.000000      4.000000
  0.017740  0.017740  0.000000      2.000000
 -0.017740  0.017740  0.000000      2.000000
 


--------------------------------------------------------------------------------------------------------




 Dimension of arrays:
   k-points           NKPTS =      6   k-points in BZ     NKDIM =      6   number of bands    NBANDS=     64
   number of dos      NEDOS =    301   number of ions     NIONS =      2
   non local maximal  LDIM  =      6   non local SUM 2l+1 LMDIM =     18
   total plane-waves  NPLWV = ******
   max r-space proj   IRMAX =   6070   max aug-charges    IRDMAX=  26812
   dimension x,y,z NGX =   160 NGY =  160 NGZ =  168
   dimension x,y,z NGXF=   320 NGYF=  320 NGZF=  336
   support grid    NGXF=   320 NGYF=  320 NGZF=  336
   ions per type =               2
   NGX,Y,Z   is equivalent  to a cutoff of  12.58, 12.58, 12.63 a.u.
   NGXF,Y,Z  is equivalent  to a cutoff of  25.17, 25.17, 25.26 a.u.

 SYSTEM =  MgO-rocksalt                            
 POSCAR =  Au                                      

 Startparameter for this run:
   NWRITE =      2    write-flag & timer
   PREC   = accura    normal or accurate (medium, high low for compatibility)
   ISTART =      0    job   : 0-new  1-cont  2-samecut
   ICHARG =      2    charge: 1-file 2-atom 10-const
   ISPIN  =      1    spin polarized calculation?
   LNONCOLLINEAR =      F non collinear calculations
   LSORBIT =      F    spin-orbit coupling
   INIWAV =      1    electr: 0-lowe 1-rand  2-diag
   LASPH  =      T    aspherical Exc in radial PAW
 Electronic Relaxation 1
   ENCUT  =  520.0 eV  38.22 Ry    6.18 a.u.  39.30 39.30 41.12*2*pi/ulx,y,z
   ENINI  =  520.0     initial cutoff
   ENAUG  =  356.7 eV  augmentation charge cutoff
   NELM   =    200;   NELMIN=  8; NELMDL= -5     # of ELM steps 
   EDIFF  = 0.1E-05   stopping-criterion for ELM
   LREAL  =      T    real-space projection
   NLSPLINE    = F    spline interpolate recip. space projectors
   LCOMPAT=      F    compatible to vasp.4.4
   GGA_COMPAT  = T    GGA compatible to vasp.4.4-vasp.4.6
   LMAXPAW     = -100 max onsite density
   LMAXMIX     =    2 max onsite mixed and CHGCAR
   VOSKOWN=      0    Vosko Wilk Nusair interpolation
   ROPT   =   -0.00025
 Ionic relaxation
   EDIFFG = 0.1E-04   stopping-criterion for IOM
   NSW    =      0    number of steps for IOM
   NBLOCK =      1;   KBLOCK =      1    inner block; outer block 
   IBRION =     -1    ionic relax: 0-MD 1-quasi-New 2-CG
   NFREE  =      0    steps in history (QN), initial steepest desc. (CG)
   ISIF   =      2    stress and relaxation
   IWAVPR =     10    prediction:  0-non 1-charg 2-wave 3-comb
   ISYM   =      2    0-nonsym 1-usesym 2-fastsym
   LCORR  =      T    Harris-Foulkes like correction to forces

   POTIM  = 0.5000    time-step for ionic-motion
   TEIN   =    0.0    initial temperature
   TEBEG  =    0.0;   TEEND  =   0.0 temperature during run
   SMASS  =  -3.00    Nose mass-parameter (am)
   estimated Nose-frequenzy (Omega)   =  0.10E-29 period in steps = 0.13E+47 mass=  -0.102E-25a.u.
   SCALEE = 1.0000    scale energy and forces
   NPACO  =    256;   APACO  = 10.0  distance and # of slots for P.C.
   PSTRESS=    0.0 pullay stress

  Mass of Ions in am
   POMASS = 196.97
  Ionic Valenz
   ZVAL   =  11.00
  Atomic Wigner-Seitz radii
   RWIGS  =  -1.00
  virtual crystal weights 
   VCA    =   1.00
   NELECT =      22.0000    total number of electrons
   NUPDOWN=      -1.0000    fix difference up-down

 DOS related values:
   EMIN   =  10.00;   EMAX   =-10.00  energy-range for DOS
   EFERMI =   0.00
   ISMEAR =     0;   SIGMA  =   0.05  broadening in eV -4-tet -1-fermi 0-gaus

 Electronic relaxation 2 (details)
   IALGO  =     58    algorithm
   LDIAG  =      T    sub-space diagonalisation (order eigenvalues)
   LSUBROT=      F    optimize rotation matrix (better conditioning)
   TURBO    =      0    0=normal 1=particle mesh
   IRESTART =      0    0=no restart 2=restart with 2 vectors
   NREBOOT  =      0    no. of reboots
   NMIN     =      0    reboot dimension
   EREF     =   0.00    reference energy to select bands
   IMIX   =      4    mixing-type and parameters
     AMIX     =   0.40;   BMIX     =  1.00
     AMIX_MAG =   1.60;   BMIX_MAG =  1.00
     AMIN     =   0.10
     WC   =   100.;   INIMIX=   1;  MIXPRE=   1;  MAXMIX= -45

 Intra band minimization:
   WEIMIN = 0.0000     energy-eigenvalue tresh-hold
   EBREAK =  0.39E-08  absolut break condition
   DEPER  =   0.30     relativ break condition  

   TIME   =   0.40     timestep for ELM

  volume/ion in A,a.u.               =    4940.81     33342.21
  Fermi-wavevector in a.u.,A,eV,Ry     =   0.213767  0.403960  0.621734  0.045696
  Thomas-Fermi vector in A             =   0.985879

 Write flags
   LWAVE        =      F    write WAVECAR
   LDOWNSAMPLE  =      F    k-point downsampling of WAVECAR
   LCHARG       =      F    write CHGCAR
   LVTOT        =      F    write LOCPOT, total local potential
   LVHAR        =      F    write LOCPOT, Hartree potential only
   LELF         =      F    write electronic localiz. function (ELF)
   LORBIT       =      0    0 simple, 1 ext, 2 COOP (PROOUT), +10 PAW based schemes


 Dipole corrections
   LMONO  =      F    monopole corrections only (constant potential shift)
   LDIPOL =      T    correct potential (dipole corrections)
   IDIPOL =      3    1-x, 2-y, 3-z, 4-all directions 
   EPSILON=  1.0000000 bulk dielectric constant

 Exchange correlation treatment:
   GGA     =    PE    GGA type
   LEXCH   =     8    internal setting for exchange type
   LIBXC   =     F    Libxc                    
   VOSKOWN =     0    Vosko Wilk Nusair interpolation
   LHFCALC =     F    Hartree Fock is set to
   LHFONE  =     F    Hartree Fock one center treatment
   AEXX    =    0.0000 exact exchange contribution

 Linear response parameters
   LEPSILON=     F    determine dielectric tensor
   LRPA    =     F    only Hartree local field effects (RPA)
   LNABLA  =     F    use nabla operator in PAW spheres
   LVEL    =     F    velocity operator in full k-point grid
   CSHIFT  =0.1000    complex shift for real part using Kramers Kronig
   OMEGAMAX=  -1.0    maximum frequency
   DEG_THRESHOLD= 0.2000000E-02 threshold for treating states as degnerate
   RTIME   =   -0.100 relaxation time in fs
  (WPLASMAI=    0.000 imaginary part of plasma frequency in eV, 0.658/RTIME)
   DFIELD  = 0.0000000 0.0000000 0.0000000 field for delta impulse in time

  Optional k-point grid parameters
   LKPOINTS_OPT  =     F    use optional k-point grid
   KPOINTS_OPT_MODE=     1    mode for optional k-point grid

 Orbital magnetization related:
   ORBITALMAG=     F  switch on orbital magnetization
   LCHIMAG   =     F  perturbation theory with respect to B field
   DQ        =  0.001000  dq finite difference perturbation B field
   LLRAUG    =     F  two centre corrections for induced B field



--------------------------------------------------------------------------------------------------------


 Static calculation
 charge density and potential will be updated during run
 non-spin polarized calculation
 Conjugate gradient for all bands (Freysoldt, et al. PRB 79, 241103 (2009))
 preconditioned conjugated gradient                                        
 perform sub-space diagonalisation
    before iterative eigenvector-optimisation
 modified Broyden-mixing scheme, WC =      100.0
 initial mixing is a Kerker type mixing with AMIX =  0.4000 and BMIX =      1.0000
 Hartree-type preconditioning will be used
 using additional bands           53
 real space projection scheme for non local part
 use partial core corrections
 no Harris-corrections to forces 
 use gradient corrections 
 use of overlap-Matrix (Vanderbilt PP)
 Gauss-broadening in eV      SIGMA  =   0.05


--------------------------------------------------------------------------------------------------------


  energy-cutoff  :      520.00
  volume of cell :     9881.61
      direct lattice vectors                 reciprocal lattice vectors
    21.138852197  0.000000000  0.000000000     0.047306258  0.000000000  0.000000000
     0.000000000 21.138852197  0.000000000     0.000000000  0.047306258  0.000000000
     0.000000000  0.000000000 22.113885220     0.000000000  0.000000000  0.045220457

  length of vectors
    21.138852197 21.138852197 22.113885220     0.047306258  0.047306258  0.045220457



 k-points in units of 2pi/SCALE and weight: KPOINTS created by Atomic Simulation Env
   0.00591328  0.00591328  0.00000000       0.125
  -0.00591328  0.00591328  0.00000000       0.125
   0.01773985  0.00591328  0.00000000       0.250
  -0.00591328  0.01773985  0.00000000       0.250
   0.01773985  0.01773985  0.00000000       0.125
  -0.01773985  0.01773985  0.00000000       0.125

 k-points in reciprocal lattice and weights: KPOINTS created by Atomic Simulation Env
   0.12500000  0.12500000  0.00000000       0.125
  -0.12500000  0.12500000  0.00000000       0.125
   0.37500000  0.12500000  0.00000000       0.250
  -0.12500000  0.37500000  0.00000000       0.250
   0.37500000  0.37500000  0.00000000       0.125
  -0.37500000  0.37500000  0.00000000       0.125

 position of ions in fractional coordinates (direct lattice) 
   0.49228099  0.40771901  0.62966244
   0.40771898  0.49228102  0.62966244

 position of ions in cartesian coordinates  (Angst):
  10.40625514  8.61871197 13.92428285
   8.61871133 10.40625577 13.92428285



--------------------------------------------------------------------------------------------------------


 k-point   1 :   0.1250 0.1250 0.0000  plane waves:  265995
 k-point   2 :  -0.1250 0.1250 0.0000  plane waves:  265995
 k-point   3 :   0.3750 0.1250 0.0000  plane waves:  266023
 k-point   4 :  -0.1250 0.3750 0.0000  plane waves:  266023
 k-point   5 :   0.3750 0.3750 0.0000  plane waves:  266046
 k-point   6 :  -0.3750 0.3750 0.0000  plane waves:  266046

 maximum and minimum number of plane-waves per node :     66546    66475

 maximum number of plane-waves:    266046
 maximum index in each direction: 
   IXMAX=   39   IYMAX=   39   IZMAX=   41
   IXMIN=  -39   IYMIN=  -39   IZMIN=  -41


 real space projection operators:
  total allocation   :       1647.84 KBytes
  max/ min on nodes  :        414.14        408.38


 parallel 3D FFT for wavefunctions:
    minimum data exchange during FFTs selected (reduces bandwidth)
 parallel 3D FFT for charge:
    minimum data exchange during FFTs selected (reduces bandwidth)


 total amount of memory used by VASP MPI-rank0   141816. kBytes
=======================================================================

   base      :      30000. kBytes
   nonlr-proj:        711. kBytes
   fftplans  :      38432. kBytes
   grid      :      53473. kBytes
   one-center:         15. kBytes
   wavefun   :      19185. kBytes

     INWAV:  cpu time      0.0000: real time      0.0000
 Broyden mixing: mesh for mixing (old mesh)
   NGX = 79   NGY = 79   NGZ = 83
  (NGX  =320   NGY  =320   NGZ  =336)
  gives a total of 518003 points

 initial charge density was supplied:
 charge density of overlapping atoms calculated
 number of electron      22.0000000 magnetization 
 keeping initial charge density in first step


--------------------------------------------------------------------------------------------------------


 Maximum index for non-local projection operator         1462
 Maximum index for augmentation-charges            0 (set IRDMAX)


--------------------------------------------------------------------------------------------------------


 First call to EWALD:  gamma=   0.083
 Maximum number of real-space cells 3x 3x 3
 Maximum number of reciprocal cells 3x 3x 3

    FEWALD:  cpu time      0.0035: real time      0.0035


--------------------------------------- Iteration      1(   1)  ---------------------------------------


    POTLOK:  cpu time      0.1879: real time      0.1883
    SETDIJ:  cpu time      0.1098: real time      0.1099
    TRIAL :  cpu time      1.2607: real time      1.2616
    CORREC:  cpu time      0.0011: real time      0.0011
    --------------------------------------------
      LOOP:  cpu time      1.5664: real time      1.5678

 eigenvalue-minimisations  :   768
 total energy-change (2. order) : 0.1438960E+03  (-0.3832114E+03)
 number of electron      22.0000000 magnetization 
 augmentation part       22.0000000 magnetization 

 DIPCOR: dipole corrections for dipol
 direction  3 min pos     1,
 dipolmoment           0.000000      0.000000     -0.000014 electrons x Angstroem
 Tr[quadrupol]     -4015.982801

 energy correction for charged system         0.000000 eV
 dipol+quadrupol energy correction           -0.000000 eV
 added-field ion interaction          0.000018 eV  (added to PSCEN)


 Free energy of the ion-electron system (eV)
  ---------------------------------------------------
  alpha Z        PSCENC =         0.47151809
  Ewald energy   TEWEN  =       231.30967022
  -Hartree energ DENC   =     -2005.18220958
  -exchange      EXHF   =         0.00000000
  -V(xc)+E(xc)   XCENC  =        28.00567551
  PAW double counting   =      1748.19500671    -1702.02026965
  entropy T*S    EENTRO =        -0.03863257
  eigenvalues    EBANDS =        -9.01135572
  atomic energy  EATOM  =      1852.16664478
  ---------------------------------------------------
  free energy    TOTEN  =       143.89604780 eV

  energy without entropy =      143.93468036  energy(sigma->0) =      143.91536408


--------------------------------------------------------------------------------------------------------




--------------------------------------- Iteration      1(   2)  ---------------------------------------


    TRIAL :  cpu time      2.7886: real time      2.7896
    CORREC:  cpu time      0.0003: real time      0.0003
    --------------------------------------------
      LOOP:  cpu time      2.7939: real time      2.8035

 eigenvalue-minimisations  :  1536
 total energy-change (2. order) :-0.1363858E+03  (-0.1357406E+03)
 number of electron      22.0000000 magnetization 
 augmentation part       22.0000000 magnetization 

 DIPCOR: dipole corrections for dipol
 direction  3 min pos     1,
 dipolmoment           0.000000      0.000000     -0.000014 electrons x Angstroem
 Tr[quadrupol]     -4015.982801

 energy correction for charged system         0.000000 eV
 dipol+quadrupol energy correction           -0.000000 eV
 added-field ion interaction          0.000018 eV  (added to PSCEN)


 Free energy of the ion-electron system (eV)
  ---------------------------------------------------
  alpha Z        PSCENC =         0.47151809
  Ewald energy   TEWEN  =       231.30967022
  -Hartree energ DENC   =     -2005.18220958
  -exchange      EXHF   =         0.00000000
  -V(xc)+E(xc)   XCENC  =        28.00567551
  PAW double counting   =      1748.19500671    -1702.02026965
  entropy T*S    EENTRO =        -0.00000000
  eigenvalues    EBANDS =      -145.43580402
  atomic energy  EATOM  =      1852.16664478
  ---------------------------------------------------
  free energy    TOTEN  =         7.51023206 eV

  energy without entropy =        7.51023206  energy(sigma->0) =        7.51023206


--------------------------------------------------------------------------------------------------------




--------------------------------------- Iteration      1(   3)  ---------------------------------------


    TRIAL :  cpu time      1.2648: real time      1.2652
    CORREC:  cpu time      0.0003: real time      0.0003
    --------------------------------------------
      LOOP:  cpu time      1.2695: real time      1.2787

 eigenvalue-minimisations  :   768
 total energy-change (2. order) :-0.1052477E+02  (-0.1052477E+02)
 number of electron      22.0000000 magnetization 
 augmentation part       22.0000000 magnetization 

 DIPCOR: dipole corrections for dipol
 direction  3 min pos     1,
 dipolmoment           0.000000      0.000000     -0.000014 electrons x Angstroem
 Tr[quadrupol]     -4015.982801

 energy correction for charged system         0.000000 eV
 dipol+quadrupol energy correction           -0.000000 eV
 added-field ion interaction          0.000018 eV  (added to PSCEN)


 Free energy of the ion-electron system (eV)
  ---------------------------------------------------
  alpha Z        PSCENC =         0.47151809
  Ewald energy   TEWEN  =       231.30967022
  -Hartree energ DENC   =     -2005.18220958
  -exchange      EXHF   =         0.00000000
  -V(xc)+E(xc)   XCENC  =        28.00567551
  PAW double counting   =      1748.19500671    -1702.02026965
  entropy T*S    EENTRO =        -0.00000000
  eigenvalues    EBANDS =      -155.96057801
  atomic energy  EATOM  =      1852.16664478
  ---------------------------------------------------
  free energy    TOTEN  =        -3.01454193 eV

  energy without entropy =       -3.01454193  energy(sigma->0) =       -3.01454193


--------------------------------------------------------------------------------------------------------




--------------------------------------- Iteration      1(   4)  ---------------------------------------


    TRIAL :  cpu time      1.2642: real time      1.2645
    CORREC:  cpu time      0.0003: real time      0.0003
    --------------------------------------------
      LOOP:  cpu time      1.2766: real time      1.2774

 eigenvalue-minimisations  :   768
 total energy-change (2. order) :-0.6622610E-01  (-0.6622610E-01)
 number of electron      22.0000000 magnetization 
 augmentation part       22.0000000 magnetization 

 DIPCOR: dipole corrections for dipol
 direction  3 min pos     1,
 dipolmoment           0.000000      0.000000     -0.000014 electrons x Angstroem
 Tr[quadrupol]     -4015.982801

 energy correction for charged system         0.000000 eV
 dipol+quadrupol energy correction           -0.000000 eV
 added-field ion interaction          0.000018 eV  (added to PSCEN)


 Free energy of the ion-electron system (eV)
  ---------------------------------------------------
  alpha Z        PSCENC =         0.47151809
  Ewald energy   TEWEN  =       231.30967022
  -Hartree energ DENC   =     -2005.18220958
  -exchange      EXHF   =         0.00000000
  -V(xc)+E(xc)   XCENC  =        28.00567551
  PAW double counting   =      1748.19500671    -1702.02026965
  entropy T*S    EENTRO =        -0.00000000
  eigenvalues    EBANDS =      -156.02680411
  atomic energy  EATOM  =      1852.16664478
  ---------------------------------------------------
  free energy    TOTEN  =        -3.08076802 eV

  energy without entropy =       -3.08076802  energy(sigma->0) =       -3.08076802


--------------------------------------------------------------------------------------------------------




--------------------------------------- Iteration      1(   5)  ---------------------------------------


    TRIAL :  cpu time      2.7543: real time      2.7549
    CORREC:  cpu time      0.0003: real time      0.0003
    CHARGE:  cpu time      0.6508: real time      0.6517
    --------------------------------------------
      LOOP:  cpu time      3.4184: real time      3.4201

 eigenvalue-minimisations  :  1536
 total energy-change (2. order) :-0.1116748E-02  (-0.1116748E-02)
 number of electron      21.9999992 magnetization 
 augmentation part        8.0329110 magnetization 

 DIPCOR: dipole corrections for dipol
 direction  3 min pos     1,
 dipolmoment           0.000000      0.000000     -0.000014 electrons x Angstroem
 Tr[quadrupol]     -4015.982801

 energy correction for charged system         0.000000 eV
 dipol+quadrupol energy correction           -0.000000 eV
 added-field ion interaction          0.000018 eV  (added to PSCEN)


 Free energy of the ion-electron system (eV)
  ---------------------------------------------------
  alpha Z        PSCENC =         0.47151809
  Ewald energy   TEWEN  =       231.30967022
  -Hartree energ DENC   =     -2005.18220958
  -exchange      EXHF   =         0.00000000
  -V(xc)+E(xc)   XCENC  =        28.00567551
  PAW double counting   =      1748.19500671    -1702.02026965
  entropy T*S    EENTRO =        -0.00000000
  eigenvalues    EBANDS =      -156.02792085
  atomic energy  EATOM  =      1852.16664478
  ---------------------------------------------------
  free energy    TOTEN  =        -3.08188477 eV

  energy without entropy =       -3.08188477  energy(sigma->0) =       -3.08188477


--------------------------------------------------------------------------------------------------------




--------------------------------------- Iteration      1(   6)  ---------------------------------------


    POTLOK:  cpu time      0.1532: real time      0.1532
    SETDIJ:  cpu time      0.1089: real time      0.1089
    TRIAL :  cpu time      0.7239: real time      0.7248
    CORREC:  cpu time      0.9995: real time      0.9996
    CHARGE:  cpu time      0.5190: real time      0.5192
    --------------------------------------------
      LOOP:  cpu time      2.5167: real time      2.5183

 eigenvalue-minimisations  :     0
 total energy-change (2. order) : 0.8496803E+00  (-0.3929594E+00)
 number of electron      21.9999992 magnetization 
 augmentation part        8.1650078 magnetization 

 DIPCOR: dipole corrections for dipol
 direction  3 min pos     1,
 dipolmoment           0.000000      0.000000     -0.000415 electrons x Angstroem
 Tr[quadrupol]     -4015.771258

 energy correction for charged system         0.000000 eV
 dipol+quadrupol energy correction           -0.000000 eV
 added-field ion interaction          0.000518 eV  (added to PSCEN)


 Free energy of the ion-electron system (eV)
  ---------------------------------------------------
  alpha Z        PSCENC =         0.47150506
  Ewald energy   TEWEN  =       231.30967022
  -Hartree energ DENC   =     -2000.35122403
  -exchange      EXHF   =         0.00000000
  -V(xc)+E(xc)   XCENC  =        27.54113327
  PAW double counting   =      1860.58041506    -1816.86460133
  entropy T*S    EENTRO =        -0.00000000
  eigenvalues    EBANDS =      -157.08574747
  atomic energy  EATOM  =      1852.16664478
  ---------------------------------------------------
  free energy    TOTEN  =        -2.23220444 eV

  energy without entropy =       -2.23220444  energy(sigma->0) =       -2.23220444


--------------------------------------------------------------------------------------------------------




--------------------------------------- Iteration      1(   7)  ---------------------------------------


    POTLOK:  cpu time      0.1685: real time      0.1685
    SETDIJ:  cpu time      0.1033: real time      0.1033
    TRIAL :  cpu time      0.7165: real time      0.7172
    CORREC:  cpu time      0.9959: real time      0.9961
    CHARGE:  cpu time      0.5178: real time      0.5179
    --------------------------------------------
      LOOP:  cpu time      2.5061: real time      2.5157

 eigenvalue-minimisations  :     0
 total energy-change (2. order) :-0.3930860E+00  (-0.5978872E-01)
 number of electron      21.9999992 magnetization 
 augmentation part        8.1432219 magnetization 

 DIPCOR: dipole corrections for dipol
 direction  3 min pos     1,
 dipolmoment           0.000000      0.000000     -0.000314 electrons x Angstroem
 Tr[quadrupol]     -4015.758122

 energy correction for charged system         0.000000 eV
 dipol+quadrupol energy correction           -0.000000 eV
 added-field ion interaction          0.000392 eV  (added to PSCEN)


 Free energy of the ion-electron system (eV)
  ---------------------------------------------------
  alpha Z        PSCENC =         0.47207971
  Ewald energy   TEWEN  =       231.30967022
  -Hartree energ DENC   =     -2008.15381211
  -exchange      EXHF   =         0.00000000
  -V(xc)+E(xc)   XCENC  =        27.96267984
  PAW double counting   =      1873.16851256    -1829.04538008
  entropy T*S    EENTRO =        -0.00000000
  eigenvalues    EBANDS =      -150.50568538
  atomic energy  EATOM  =      1852.16664478
  ---------------------------------------------------
  free energy    TOTEN  =        -2.62529045 eV

  energy without entropy =       -2.62529045  energy(sigma->0) =       -2.62529045


--------------------------------------------------------------------------------------------------------




--------------------------------------- Iteration      1(   8)  ---------------------------------------


    POTLOK:  cpu time      0.1639: real time      0.1639
    SETDIJ:  cpu time      0.1076: real time      0.1076
    TRIAL :  cpu time      0.7164: real time      0.7165
    CORREC:  cpu time      0.9952: real time      0.9953
    CHARGE:  cpu time      0.5183: real time      0.5183
    --------------------------------------------
      LOOP:  cpu time      2.5133: real time      2.5140

 eigenvalue-minimisations  :     0
 total energy-change (2. order) :-0.5904568E-01  (-0.1965445E-01)
 number of electron      21.9999992 magnetization 
 augmentation part        8.1768575 magnetization 

 DIPCOR: dipole corrections for dipol
 direction  3 min pos     1,
 dipolmoment           0.000000      0.000000     -0.000055 electrons x Angstroem
 Tr[quadrupol]     -4015.794742

 energy correction for charged system         0.000000 eV
 dipol+quadrupol energy correction           -0.000000 eV
 added-field ion interaction          0.000068 eV  (added to PSCEN)


 Free energy of the ion-electron system (eV)
  ---------------------------------------------------
  alpha Z        PSCENC =         0.47178212
  Ewald energy   TEWEN  =       231.30967022
  -Hartree energ DENC   =     -2000.81057631
  -exchange      EXHF   =         0.00000000
  -V(xc)+E(xc)   XCENC  =        27.74361233
  PAW double counting   =      1859.51762416    -1815.30693395
  entropy T*S    EENTRO =        -0.00000000
  eigenvalues    EBANDS =      -157.77615948
  atomic energy  EATOM  =      1852.16664478
  ---------------------------------------------------
  free energy    TOTEN  =        -2.68433613 eV

  energy without entropy =       -2.68433613  energy(sigma->0) =       -2.68433613


--------------------------------------------------------------------------------------------------------




--------------------------------------- Iteration      1(   9)  ---------------------------------------


    POTLOK:  cpu time      0.1650: real time      0.1650
    SETDIJ:  cpu time      0.1066: real time      0.1066
    TRIAL :  cpu time      0.7166: real time      0.7168
    CORREC:  cpu time      0.9843: real time      0.9845
    CHARGE:  cpu time      0.5190: real time      0.5191
    --------------------------------------------
      LOOP:  cpu time      2.4991: real time      2.5051

 eigenvalue-minimisations  :     0
 total energy-change (2. order) :-0.1967856E-01  (-0.5267509E-02)
 number of electron      21.9999992 magnetization 
 augmentation part        8.1772949 magnetization 

 DIPCOR: dipole corrections for dipol
 direction  3 min pos     1,
 dipolmoment           0.000000      0.000000     -0.000009 electrons x Angstroem
 Tr[quadrupol]     -4015.813919

 energy correction for charged system         0.000000 eV
 dipol+quadrupol energy correction           -0.000000 eV
 added-field ion interaction          0.000011 eV  (added to PSCEN)


 Free energy of the ion-electron system (eV)
  ---------------------------------------------------
  alpha Z        PSCENC =         0.47153935
  Ewald energy   TEWEN  =       231.30967022
  -Hartree energ DENC   =     -2005.62809816
  -exchange      EXHF   =         0.00000000
  -V(xc)+E(xc)   XCENC  =        27.88949589
  PAW double counting   =      1866.54490420    -1822.20365974
  entropy T*S    EENTRO =        -0.00000000
  eigenvalues    EBANDS =      -153.25451124
  atomic energy  EATOM  =      1852.16664478
  ---------------------------------------------------
  free energy    TOTEN  =        -2.70401469 eV

  energy without entropy =       -2.70401469  energy(sigma->0) =       -2.70401469


--------------------------------------------------------------------------------------------------------




--------------------------------------- Iteration      1(  10)  ---------------------------------------


    POTLOK:  cpu time      0.1557: real time      0.1557
    SETDIJ:  cpu time      0.1061: real time      0.1061
    TRIAL :  cpu time      0.7149: real time      0.7150
    CORREC:  cpu time      0.9819: real time      0.9821
    CHARGE:  cpu time      0.5210: real time      0.5210
    --------------------------------------------
      LOOP:  cpu time      2.4842: real time      2.4923

 eigenvalue-minimisations  :     0
 total energy-change (2. order) :-0.5267529E-02  (-0.9883301E-03)
 number of electron      21.9999992 magnetization 
 augmentation part        8.1757478 magnetization 

 DIPCOR: dipole corrections for dipol
 direction  3 min pos     1,
 dipolmoment           0.000000      0.000000     -0.000004 electrons x Angstroem
 Tr[quadrupol]     -4015.814296

 energy correction for charged system         0.000000 eV
 dipol+quadrupol energy correction           -0.000000 eV
 added-field ion interaction          0.000005 eV  (added to PSCEN)


 Free energy of the ion-electron system (eV)
  ---------------------------------------------------
  alpha Z        PSCENC =         0.47150745
  Ewald energy   TEWEN  =       231.30967022
  -Hartree energ DENC   =     -2005.18774250
  -exchange      EXHF   =         0.00000000
  -V(xc)+E(xc)   XCENC  =        27.87596140
  PAW double counting   =      1865.08720275    -1820.68747440
  entropy T*S    EENTRO =        -0.00000000
  eigenvalues    EBANDS =      -153.74505192
  atomic energy  EATOM  =      1852.16664478
  ---------------------------------------------------
  free energy    TOTEN  =        -2.70928222 eV

  energy without entropy =       -2.70928222  energy(sigma->0) =       -2.70928222


--------------------------------------------------------------------------------------------------------




--------------------------------------- Iteration      1(  11)  ---------------------------------------


    POTLOK:  cpu time      0.1524: real time      0.1525
    SETDIJ:  cpu time      0.1098: real time      0.1098
    TRIAL :  cpu time      0.7175: real time      0.7177
    CORREC:  cpu time      0.9826: real time      0.9832
    CHARGE:  cpu time      0.5191: real time      0.5192
    --------------------------------------------
      LOOP:  cpu time      2.4871: real time      2.4951

 eigenvalue-minimisations  :     0
 total energy-change (2. order) :-0.9902417E-03  (-0.1740088E-03)
 number of electron      21.9999992 magnetization 
 augmentation part        8.1786510 magnetization 

 DIPCOR: dipole corrections for dipol
 direction  3 min pos     1,
 dipolmoment           0.000000      0.000000     -0.000004 electrons x Angstroem
 Tr[quadrupol]     -4015.816590

 energy correction for charged system         0.000000 eV
 dipol+quadrupol energy correction           -0.000000 eV
 added-field ion interaction          0.000005 eV  (added to PSCEN)


 Free energy of the ion-electron system (eV)
  ---------------------------------------------------
  alpha Z        PSCENC =         0.47150611
  Ewald energy   TEWEN  =       231.30967022
  -Hartree energ DENC   =     -2004.77768644
  -exchange      EXHF   =         0.00000000
  -V(xc)+E(xc)   XCENC  =        27.86396533
  PAW double counting   =      1863.69291094    -1819.28298755
  entropy T*S    EENTRO =        -0.00000000
  eigenvalues    EBANDS =      -154.15429585
  atomic energy  EATOM  =      1852.16664478
  ---------------------------------------------------
  free energy    TOTEN  =        -2.71027246 eV

  energy without entropy =       -2.71027246  energy(sigma->0) =       -2.71027246


--------------------------------------------------------------------------------------------------------




--------------------------------------- Iteration      1(  12)  ---------------------------------------


    POTLOK:  cpu time      0.1544: real time      0.1544
    SETDIJ:  cpu time      0.1043: real time      0.1043
    TRIAL :  cpu time      0.7156: real time      0.7158
    CORREC:  cpu time      0.9792: real time      0.9793
    CHARGE:  cpu time      0.5171: real time      0.5171
    --------------------------------------------
      LOOP:  cpu time      2.4754: real time      2.4833

 eigenvalue-minimisations  :     0
 total energy-change (2. order) :-0.1732748E-03  (-0.4420433E-04)
 number of electron      21.9999992 magnetization 
 augmentation part        8.1777066 magnetization 

 DIPCOR: dipole corrections for dipol
 direction  3 min pos     1,
 dipolmoment           0.000000      0.000000     -0.000004 electrons x Angstroem
 Tr[quadrupol]     -4015.815732

 energy correction for charged system         0.000000 eV
 dipol+quadrupol energy correction           -0.000000 eV
 added-field ion interaction          0.000005 eV  (added to PSCEN)


 Free energy of the ion-electron system (eV)
  ---------------------------------------------------
  alpha Z        PSCENC =         0.47150540
  Ewald energy   TEWEN  =       231.30967022
  -Hartree energ DENC   =     -2005.23283796
  -exchange      EXHF   =         0.00000000
  -V(xc)+E(xc)   XCENC  =        27.87834291
  PAW double counting   =      1864.24321648    -1819.82782333
  entropy T*S    EENTRO =        -0.00000000
  eigenvalues    EBANDS =      -153.71916423
  atomic energy  EATOM  =      1852.16664478
  ---------------------------------------------------
  free energy    TOTEN  =        -2.71044573 eV

  energy without entropy =       -2.71044573  energy(sigma->0) =       -2.71044573


--------------------------------------------------------------------------------------------------------




--------------------------------------- Iteration      1(  13)  ---------------------------------------


    POTLOK:  cpu time      0.1550: real time      0.1550
    SETDIJ:  cpu time      0.1048: real time      0.1048
    TRIAL :  cpu time      0.7150: real time      0.7152
    CORREC:  cpu time      0.9826: real time      0.9828
    CHARGE:  cpu time      0.5177: real time      0.5179
    --------------------------------------------
      LOOP:  cpu time      2.4808: real time      2.4880

 eigenvalue-minimisations  :     0
 total energy-change (2. order) :-0.4448179E-04  (-0.8420963E-05)
 number of electron      21.9999992 magnetization 
 augmentation part        8.1776920 magnetization 

 DIPCOR: dipole corrections for dipol
 direction  3 min pos     1,
 dipolmoment           0.000000      0.000000     -0.000004 electrons x Angstroem
 Tr[quadrupol]     -4015.815147

 energy correction for charged system         0.000000 eV
 dipol+quadrupol energy correction           -0.000000 eV
 added-field ion interaction          0.000005 eV  (added to PSCEN)


 Free energy of the ion-electron system (eV)
  ---------------------------------------------------
  alpha Z        PSCENC =         0.47150516
  Ewald energy   TEWEN  =       231.30967022
  -Hartree energ DENC   =     -2005.04364192
  -exchange      EXHF   =         0.00000000
  -V(xc)+E(xc)   XCENC  =        27.87212446
  PAW double counting   =      1863.89325727    -1819.47929766
  entropy T*S    EENTRO =        -0.00000000
  eigenvalues    EBANDS =      -153.90075254
  atomic energy  EATOM  =      1852.16664478
  ---------------------------------------------------
  free energy    TOTEN  =        -2.71049022 eV

  energy without entropy =       -2.71049022  energy(sigma->0) =       -2.71049022


--------------------------------------------------------------------------------------------------------




--------------------------------------- Iteration      1(  14)  ---------------------------------------


    POTLOK:  cpu time      0.1550: real time      0.1550
    SETDIJ:  cpu time      0.1047: real time      0.1047
    TRIAL :  cpu time      0.7172: real time      0.7173
    CORREC:  cpu time      0.9813: real time      0.9814
    CHARGE:  cpu time      0.5166: real time      0.5169
    --------------------------------------------
      LOOP:  cpu time      2.4792: real time      2.4886

 eigenvalue-minimisations  :     0
 total energy-change (2. order) :-0.8453075E-05  (-0.1617782E-05)
 number of electron      21.9999992 magnetization 
 augmentation part        8.1778682 magnetization 

 DIPCOR: dipole corrections for dipol
 direction  3 min pos     1,
 dipolmoment           0.000000      0.000000     -0.000004 electrons x Angstroem
 Tr[quadrupol]     -4015.815204

 energy correction for charged system         0.000000 eV
 dipol+quadrupol energy correction           -0.000000 eV
 added-field ion interaction          0.000005 eV  (added to PSCEN)


 Free energy of the ion-electron system (eV)
  ---------------------------------------------------
  alpha Z        PSCENC =         0.47150509
  Ewald energy   TEWEN  =       231.30967022
  -Hartree energ DENC   =     -2005.02686185
  -exchange      EXHF   =         0.00000000
  -V(xc)+E(xc)   XCENC  =        27.87165199
  PAW double counting   =      1863.91894303    -1819.50517055
  entropy T*S    EENTRO =        -0.00000000
  eigenvalues    EBANDS =      -153.91688138
  atomic energy  EATOM  =      1852.16664478
  ---------------------------------------------------
  free energy    TOTEN  =        -2.71049867 eV

  energy without entropy =       -2.71049867  energy(sigma->0) =       -2.71049867


--------------------------------------------------------------------------------------------------------




--------------------------------------- Iteration      1(  15)  ---------------------------------------


    POTLOK:  cpu time      0.1531: real time      0.1531
    SETDIJ:  cpu time      0.1082: real time      0.1082
    TRIAL :  cpu time      0.7146: real time      0.7147
    CORREC:  cpu time      0.9803: real time      0.9805
    CHARGE:  cpu time      0.5222: real time      0.5228
    --------------------------------------------
      LOOP:  cpu time      2.4911: real time      2.4923

 eigenvalue-minimisations  :     0
 total energy-change (2. order) :-0.1431183E-05  (-0.2481515E-06)
 number of electron      21.9999992 magnetization 
 augmentation part        8.1777521 magnetization 

 DIPCOR: dipole corrections for dipol
 direction  3 min pos     1,
 dipolmoment           0.000000      0.000000     -0.000004 electrons x Angstroem
 Tr[quadrupol]     -4015.814995

 energy correction for charged system         0.000000 eV
 dipol+quadrupol energy correction           -0.000000 eV
 added-field ion interaction          0.000005 eV  (added to PSCEN)


 Free energy of the ion-electron system (eV)
  ---------------------------------------------------
  alpha Z        PSCENC =         0.47150506
  Ewald energy   TEWEN  =       231.30967022
  -Hartree energ DENC   =     -2005.06130735
  -exchange      EXHF   =         0.00000000
  -V(xc)+E(xc)   XCENC  =        27.87277001
  PAW double counting   =      1864.00928024    -1819.59564811
  entropy T*S    EENTRO =        -0.00000000
  eigenvalues    EBANDS =      -153.88341495
  atomic energy  EATOM  =      1852.16664478
  ---------------------------------------------------
  free energy    TOTEN  =        -2.71050010 eV

  energy without entropy =       -2.71050010  energy(sigma->0) =       -2.71050010


--------------------------------------------------------------------------------------------------------




--------------------------------------- Iteration      1(  16)  ---------------------------------------


    POTLOK:  cpu time      0.1516: real time      0.1516
    SETDIJ:  cpu time      0.1093: real time      0.1093
    TRIAL :  cpu time      0.7170: real time      0.7170
    CORREC:  cpu time      0.9788: real time      0.9790
    EDDIAG:  cpu time      0.2939: real time      0.2943
    CHARGE:  cpu time      0.5175: real time      0.5175
    --------------------------------------------
      LOOP:  cpu time      2.7726: real time      2.7821

 eigenvalue-minimisations  :     0
 total energy-change (2. order) :-0.2121335E-06  (-0.8581571E-07)
 number of electron      21.9999992 magnetization 
 augmentation part        8.1776879 magnetization 

 DIPCOR: dipole corrections for dipol
 direction  3 min pos     1,
 dipolmoment           0.000000      0.000000     -0.000004 electrons x Angstroem
 Tr[quadrupol]     -4015.814862

 energy correction for charged system         0.000000 eV
 dipol+quadrupol energy correction           -0.000000 eV
 added-field ion interaction          0.000005 eV  (added to PSCEN)


 Free energy of the ion-electron system (eV)
  ---------------------------------------------------
  alpha Z        PSCENC =         0.47150506
  Ewald energy   TEWEN  =       231.30967022
  -Hartree energ DENC   =     -2005.04338556
  -exchange      EXHF   =         0.00000000
  -V(xc)+E(xc)   XCENC  =        27.87220890
  PAW double counting   =      1863.98631435    -1819.57302171
  entropy T*S    EENTRO =        -0.00000000
  eigenvalues    EBANDS =      -153.90043636
  atomic energy  EATOM  =      1852.16664478
  ---------------------------------------------------
  free energy    TOTEN  =        -2.71050031 eV

  energy without entropy =       -2.71050031  energy(sigma->0) =       -2.71050031


--------------------------------------------------------------------------------------------------------


  average scaling for gradient   1.6855


 average (electrostatic) potential at core
  the test charge radii are     1.2098
  (the norm of the test charge is              1.0000)
       1 -76.5339       2 -76.5339



 E-fermi :  -5.9996     XC(G=0):  -0.1486     alpha+bet : -0.0481

 Fermi energy:        -5.9995552547

 k-point     1 :       0.1250    0.1250    0.0000
  band No.  band energies     occupation 
      1      -8.9870      2.00000
      2      -7.8369      2.00000
      3      -7.8368      2.00000
      4      -6.8969      2.00000
      5      -6.8969      2.00000
      6      -6.5793      2.00000
      7      -6.5793      2.00000
      8      -6.4272      2.00000
      9      -6.3280      2.00000
     10      -6.3280      2.00000
     11      -6.2635      2.00000
     12      -4.3020      0.00000
     13      -1.1885      0.00000
     14      -1.1882      0.00000
     15      -0.8414      0.00000
     16       0.0476      0.00000
     17       0.2349      0.00000
     18       0.2880      0.00000
     19       0.3429      0.00000
     20       0.3569      0.00000
     21       0.3599      0.00000
     22       0.3720      0.00000
     23       0.4704      0.00000
     24       0.5095      0.00000
     25       0.5497      0.00000
     26       0.5967      0.00000
     27       0.6094      0.00000
     28       0.6097      0.00000
     29       0.6568      0.00000
     30       0.6892      0.00000
     31       0.6968      0.00000
     32       0.7561      0.00000
     33       0.7931      0.00000
     34       0.7995      0.00000
     35       0.8125      0.00000
     36       0.8440      0.00000
     37       0.8806      0.00000
     38       0.8890      0.00000
     39       0.9876      0.00000
     40       0.9934      0.00000
     41       1.0177      0.00000
     42       1.1169      0.00000
     43       1.1502      0.00000
     44       1.1508      0.00000
     45       1.2222      0.00000
     46       1.2425      0.00000
     47       1.2646      0.00000
     48       1.2739      0.00000
     49       1.3992      0.00000
     50       1.4370      0.00000
     51       1.4720      0.00000
     52       1.4729      0.00000
     53       1.4981      0.00000
     54       1.5108      0.00000
     55       1.5131      0.00000
     56       1.5135      0.00000
     57       1.5380      0.00000
     58       1.5430      0.00000
     59       1.5690      0.00000
     60       1.5911      0.00000
     61       1.6233      0.00000
     62       1.6295      0.00000
     63       1.6402      0.00000
     64       1.6687      0.00000

 k-point     2 :      -0.1250    0.1250    0.0000
  band No.  band energies     occupation 
      1      -8.9870      2.00000
      2      -7.8369      2.00000
      3      -7.8368      2.00000
      4      -6.8969      2.00000
      5      -6.8969      2.00000
      6      -6.5793      2.00000
      7      -6.5793      2.00000
      8      -6.4272      2.00000
      9      -6.3280      2.00000
     10      -6.3280      2.00000
     11      -6.2635      2.00000
     12      -4.3020      0.00000
     13      -1.1885      0.00000
     14      -1.1882      0.00000
     15      -0.8414      0.00000
     16       0.0441      0.00000
     17       0.2619      0.00000
     18       0.2646      0.00000
     19       0.3407      0.00000
     20       0.3555      0.00000
     21       0.3905      0.00000
     22       0.4017      0.00000
     23       0.4061      0.00000
     24       0.5009      0.00000
     25       0.5390      0.00000
     26       0.5826      0.00000
     27       0.5959      0.00000
     28       0.6509      0.00000
     29       0.6539      0.00000
     30       0.7061      0.00000
     31       0.7262      0.00000
     32       0.7416      0.00000
     33       0.7503      0.00000
     34       0.8217      0.00000
     35       0.8227      0.00000
     36       0.8310      0.00000
     37       0.8613      0.00000
     38       0.9385      0.00000
     39       0.9654      0.00000
     40       1.0255      0.00000
     41       1.0411      0.00000
     42       1.0460      0.00000
     43       1.1523      0.00000
     44       1.1663      0.00000
     45       1.2107      0.00000
     46       1.2597      0.00000
     47       1.2611      0.00000
     48       1.2965      0.00000
     49       1.4148      0.00000
     50       1.4270      0.00000
     51       1.4447      0.00000
     52       1.4558      0.00000
     53       1.4943      0.00000
     54       1.5054      0.00000
     55       1.5125      0.00000
     56       1.5194      0.00000
     57       1.5280      0.00000
     58       1.5334      0.00000
     59       1.5747      0.00000
     60       1.5796      0.00000
     61       1.6029      0.00000
     62       1.6243      0.00000
     63       1.6694      0.00000
     64       1.6797      0.00000

 k-point     3 :       0.3750    0.1250    0.0000
  band No.  band energies     occupation 
      1      -8.9870      2.00000
      2      -7.8369      2.00000
      3      -7.8368      2.00000
      4      -6.8969      2.00000
      5      -6.8969      2.00000
      6      -6.5793      2.00000
      7      -6.5793      2.00000
      8      -6.4272      2.00000
      9      -6.3280      2.00000
     10      -6.3280      2.00000
     11      -6.2635      2.00000
     12      -4.3020      0.00000
     13      -1.1886      0.00000
     14      -1.1882      0.00000
     15      -0.8412      0.00000
     16       0.0872      0.00000
     17       0.1498      0.00000
     18       0.2933      0.00000
     19       0.3479      0.00000
     20       0.3669      0.00000
     21       0.4087      0.00000
     22       0.4121      0.00000
     23       0.4267      0.00000
     24       0.4641      0.00000
     25       0.5249      0.00000
     26       0.5334      0.00000
     27       0.5691      0.00000
     28       0.6114      0.00000
     29       0.6925      0.00000
     30       0.7031      0.00000
     31       0.7181      0.00000
     32       0.7542      0.00000
     33       0.8085      0.00000
     34       0.8308      0.00000
     35       0.8595      0.00000
     36       0.8987      0.00000
     37       0.9319      0.00000
     38       0.9522      0.00000
     39       0.9989      0.00000
     40       1.0004      0.00000
     41       1.0653      0.00000
     42       1.1575      0.00000
     43       1.2025      0.00000
     44       1.2044      0.00000
     45       1.2266      0.00000
     46       1.2666      0.00000
     47       1.2676      0.00000
     48       1.2946      0.00000
     49       1.3047      0.00000
     50       1.3170      0.00000
     51       1.3446      0.00000
     52       1.3453      0.00000
     53       1.3783      0.00000
     54       1.4174      0.00000
     55       1.4351      0.00000
     56       1.4491      0.00000
     57       1.4714      0.00000
     58       1.5474      0.00000
     59       1.5571      0.00000
     60       1.5641      0.00000
     61       1.5878      0.00000
     62       1.5989      0.00000
     63       1.6098      0.00000
     64       1.6248      0.00000

 k-point     4 :      -0.1250    0.3750    0.0000
  band No.  band energies     occupation 
      1      -8.9870      2.00000
      2      -7.8369      2.00000
      3      -7.8368      2.00000
      4      -6.8969      2.00000
      5      -6.8969      2.00000
      6      -6.5793      2.00000
      7      -6.5793      2.00000
      8      -6.4272      2.00000
      9      -6.3280      2.00000
     10      -6.3280      2.00000
     11      -6.2635      2.00000
     12      -4.3020      0.00000
     13      -1.1886      0.00000
     14      -1.1882      0.00000
     15      -0.8412      0.00000
     16       0.0777      0.00000
     17       0.1629      0.00000
     18       0.3106      0.00000
     19       0.3384      0.00000
     20       0.3731      0.00000
     21       0.3873      0.00000
     22       0.4017      0.00000
     23       0.4463      0.00000
     24       0.4877      0.00000
     25       0.4984      0.00000
     26       0.4994      0.00000
     27       0.5908      0.00000
     28       0.6419      0.00000
     29       0.6676      0.00000
     30       0.6866      0.00000
     31       0.6954      0.00000
     32       0.7783      0.00000
     33       0.8011      0.00000
     34       0.8543      0.00000
     35       0.8715      0.00000
     36       0.9141      0.00000
     37       0.9176      0.00000
     38       0.9399      0.00000
     39       1.0173      0.00000
     40       1.0210      0.00000
     41       1.0708      0.00000
     42       1.1522      0.00000
     43       1.1817      0.00000
     44       1.1824      0.00000
     45       1.2167      0.00000
     46       1.2291      0.00000
     47       1.2751      0.00000
     48       1.3086      0.00000
     49       1.3143      0.00000
     50       1.3275      0.00000
     51       1.3543      0.00000
     52       1.3687      0.00000
     53       1.3783      0.00000
     54       1.4225      0.00000
     55       1.4253      0.00000
     56       1.4629      0.00000
     57       1.4674      0.00000
     58       1.5264      0.00000
     59       1.5467      0.00000
     60       1.5568      0.00000
     61       1.5832      0.00000
     62       1.5940      0.00000
     63       1.6071      0.00000
     64       1.6087      0.00000

 k-point     5 :       0.3750    0.3750    0.0000
  band No.  band energies     occupation 
      1      -8.9870      2.00000
      2      -7.8369      2.00000
      3      -7.8368      2.00000
      4      -6.8969      2.00000
      5      -6.8969      2.00000
      6      -6.5793      2.00000
      7      -6.5793      2.00000
      8      -6.4272      2.00000
      9      -6.3280      2.00000
     10      -6.3280      2.00000
     11      -6.2635      2.00000
     12      -4.3020      0.00000
     13      -1.1886      0.00000
     14      -1.1882      0.00000
     15      -0.8410      0.00000
     16       0.1342      0.00000
     17       0.1672      0.00000
     18       0.1970      0.00000
     19       0.3041      0.00000
     20       0.3478      0.00000
     21       0.3970      0.00000
     22       0.4343      0.00000
     23       0.4476      0.00000
     24       0.4701      0.00000
     25       0.5103      0.00000
     26       0.5419      0.00000
     27       0.5966      0.00000
     28       0.6261      0.00000
     29       0.6394      0.00000
     30       0.7241      0.00000
     31       0.7284      0.00000
     32       0.7718      0.00000
     33       0.7726      0.00000
     34       0.9455      0.00000
     35       0.9553      0.00000
     36       0.9829      0.00000
     37       1.0091      0.00000
     38       1.0217      0.00000
     39       1.0328      0.00000
     40       1.0682      0.00000
     41       1.0690      0.00000
     42       1.0873      0.00000
     43       1.0919      0.00000
     44       1.1259      0.00000
     45       1.1449      0.00000
     46       1.2298      0.00000
     47       1.2354      0.00000
     48       1.2564      0.00000
     49       1.2984      0.00000
     50       1.3062      0.00000
     51       1.3161      0.00000
     52       1.3558      0.00000
     53       1.3630      0.00000
     54       1.3753      0.00000
     55       1.3802      0.00000
     56       1.3882      0.00000
     57       1.4045      0.00000
     58       1.4650      0.00000
     59       1.4743      0.00000
     60       1.4869      0.00000
     61       1.4892      0.00000
     62       1.5292      0.00000
     63       1.5318      0.00000
     64       1.5453      0.00000

 k-point     6 :      -0.3750    0.3750    0.0000
  band No.  band energies     occupation 
      1      -8.9870      2.00000
      2      -7.8369      2.00000
      3      -7.8368      2.00000
      4      -6.8969      2.00000
      5      -6.8969      2.00000
      6      -6.5793      2.00000
      7      -6.5793      2.00000
      8      -6.4272      2.00000
      9      -6.3280      2.00000
     10      -6.3280      2.00000
     11      -6.2635      2.00000
     12      -4.3020      0.00000
     13      -1.1886      0.00000
     14      -1.1882      0.00000
     15      -0.8410      0.00000
     16       0.1081      0.00000
     17       0.2119      0.00000
     18       0.2172      0.00000
     19       0.2601      0.00000
     20       0.3395      0.00000
     21       0.3993      0.00000
     22       0.4141      0.00000
     23       0.4996      0.00000
     24       0.5019      0.00000
     25       0.5327      0.00000
     26       0.5332      0.00000
     27       0.5414      0.00000
     28       0.5653      0.00000
     29       0.6557      0.00000
     30       0.6919      0.00000
     31       0.7375      0.00000
     32       0.7897      0.00000
     33       0.8431      0.00000
     34       0.9132      0.00000
     35       0.9828      0.00000
     36       0.9855      0.00000
     37       0.9975      0.00000
     38       1.0127      0.00000
     39       1.0289      0.00000
     40       1.0571      0.00000
     41       1.0585      0.00000
     42       1.0921      0.00000
     43       1.0986      0.00000
     44       1.1371      0.00000
     45       1.1883      0.00000
     46       1.2088      0.00000
     47       1.2250      0.00000
     48       1.2798      0.00000
     49       1.2820      0.00000
     50       1.3148      0.00000
     51       1.3214      0.00000
     52       1.3428      0.00000
     53       1.3485      0.00000
     54       1.3618      0.00000
     55       1.3839      0.00000
     56       1.3915      0.00000
     57       1.4053      0.00000
     58       1.4077      0.00000
     59       1.4386      0.00000
     60       1.4686      0.00000
     61       1.4860      0.00000
     62       1.5799      0.00000
     63       1.5876      0.00000
     64       1.5897      0.00000


--------------------------------------------------------------------------------------------------------


 soft charge-density along one line, spin component           1
         0         1         2         3         4         5         6         7         8         9
 total charge-density along one line

 pseudopotential strength for first ion, spin component:           1
 -9.194  -0.000  -0.064  -0.000  -0.000  -9.317  -0.000  -0.062
 -0.000  -9.130  -0.000   0.047   0.000  -0.000  -9.254  -0.000
 -0.064  -0.000  -9.121  -0.000   0.000  -0.062  -0.000  -9.245
 -0.000   0.047  -0.000  -9.130  -0.000  -0.000   0.045  -0.000
 -0.000   0.000   0.000  -0.000  -9.177  -0.000   0.000   0.000
 -9.317  -0.000  -0.062  -0.000  -0.000  -9.424  -0.000  -0.061
 -0.000  -9.254  -0.000   0.045   0.000  -0.000  -9.363  -0.000
 -0.062  -0.000  -9.245  -0.000   0.000  -0.061  -0.000  -9.353
 -0.000   0.045  -0.000  -9.254  -0.000  -0.000   0.044  -0.000
 -0.000   0.000   0.000  -0.000  -9.300  -0.000   0.000   0.000
 -0.042   0.000  -0.024   0.000   0.000  -0.042   0.000  -0.024
 -0.062   0.000  -0.036   0.000   0.000  -0.062   0.000  -0.036
  0.027  -0.000   0.016  -0.000   0.027   0.027  -0.000   0.015
 -0.000  -0.027   0.000   0.027  -0.000  -0.000  -0.027   0.000
 -0.027  -0.000  -0.016  -0.000   0.027  -0.027  -0.000  -0.015
  0.032  -0.000   0.018  -0.000   0.031   0.031  -0.000   0.018
 -0.000  -0.031   0.000   0.031  -0.000  -0.000  -0.030   0.000
 -0.032  -0.000  -0.018  -0.000   0.031  -0.031  -0.000  -0.018
 total augmentation occupancy for first ion, spin component:           1
  2.971   0.000   0.405   0.000  -0.000  -1.165  -0.000  -0.586   0.000   0.000   1.439  -0.222   0.122  -0.000  -0.122   0.014
  0.000   2.487  -0.000  -0.217   0.000  -0.000  -0.411   0.000   0.261  -0.000   0.000   0.000   0.000  -0.031   0.000   0.000
  0.405   0.000   2.503  -0.000  -0.000  -0.586  -0.000  -0.488   0.000   0.000   0.831  -0.128   0.071   0.000  -0.071   0.008
  0.000  -0.217   0.000   2.487   0.000   0.000   0.261   0.000  -0.411   0.000   0.000   0.000   0.000   0.031   0.000  -0.000
 -0.000   0.000  -0.000   0.000   2.704   0.000   0.000   0.000   0.000  -0.672  -0.000   0.000   0.031   0.000   0.031   0.027
 -1.165  -0.000  -0.586   0.000   0.000   1.296   0.000   0.728   0.000  -0.000  -1.194   0.203  -0.185   0.000   0.185   0.013
  0.000  -0.411  -0.000   0.261   0.000   0.000   0.332   0.000  -0.297   0.000   0.000   0.000   0.000   0.057   0.000  -0.000
 -0.586   0.000  -0.488   0.000   0.000   0.728   0.000   0.455   0.000  -0.000  -0.689   0.117  -0.107   0.000   0.107   0.008
  0.000   0.261   0.000  -0.411   0.000   0.000  -0.297   0.000   0.332   0.000   0.000   0.000  -0.000  -0.057  -0.000   0.000
  0.000  -0.000   0.000   0.000  -0.672  -0.000   0.000  -0.000   0.000   0.629   0.000  -0.000  -0.057   0.000  -0.057   0.001
  1.439   0.000   0.831  -0.000  -0.000  -1.194   0.000  -0.689   0.000   0.000   1.807  -0.235   0.184  -0.000  -0.184  -0.009
 -0.222   0.000  -0.128   0.000   0.000   0.203   0.000   0.117   0.000  -0.000  -0.235   0.035  -0.029   0.000   0.029   0.002
  0.122   0.000   0.071   0.000   0.031  -0.185   0.000  -0.107  -0.000  -0.057   0.184  -0.029   0.034   0.000  -0.023  -0.003
 -0.000  -0.031   0.000   0.031   0.000   0.000   0.057   0.000  -0.057   0.000  -0.000   0.000   0.000   0.011   0.000   0.000
 -0.122  -0.000  -0.071   0.000   0.031   0.185   0.000   0.107  -0.000  -0.057  -0.184   0.029  -0.023   0.000   0.034   0.002
  0.014   0.000   0.008  -0.000   0.027   0.013  -0.000   0.008   0.000   0.001  -0.009   0.002  -0.003   0.000   0.002   0.001
  0.000  -0.027   0.000   0.027   0.000   0.000  -0.001   0.000   0.001  -0.000   0.000   0.000   0.000  -0.001   0.000  -0.000
 -0.014   0.000  -0.008   0.000   0.027  -0.013   0.000  -0.008   0.000   0.001   0.009  -0.002   0.002  -0.000  -0.003  -0.000


------------------------ aborting loop because EDIFF is reached ----------------------------------------


    FORLOC:  cpu time      0.0024: real time      0.0024
    FORNL :  cpu time      0.3446: real time      0.3449
    STRESS:  cpu time      1.0360: real time      1.0365
    FORCOR:  cpu time      0.1085: real time      0.1085
    OFIELD:  cpu time      0.0008: real time      0.0008

  Hirshfeld charges:
            ion         q(e)     
   ------------------------------
      1     Au      -0.00000068
      2     Au       0.00000068

  Atomic reference data used in the T-S method for vdW correction:
            C6at              R0at           ALPHAat      REFSTATE
            (au)              (au)            (au)                
   ---------------------------------------------------------------
   Au        298.000          3.855         36.500         0
 
 Nth order contribution to Edisp (eV)
 Edisp(N=2):  -2.2213498617840714E-002
 Edisp(N=3):   2.0100151060922432E-005
 Edisp(N=4):  -7.5055252201347458E-005
 Edisp(N=5):   2.3968997593595077E-007
 Edisp(N=6):  -5.1808589136357314E-007
 Edisp(N=inf):  -2.2268733987233873E-002

  Tkatchenko/Scheffler method for vdW energy calculation
  ---------------------------------------------------------------------------------------------

  Parameters of vdW forcefield:
            C6ts              R0ts          ALPHAts         R0scs        ALPHAscs        RELVOL 
            (au)              (au)           (au)            (au)          (au)                 
   ---------------------------------------------------------------------------------------------
   Au        294.786          3.848         36.303          3.836         35.969          0.995
   Au        294.783          3.848         36.302          3.836         35.969          0.995

  vdW correction parametrized for the method pbe       

  IVDW = 202
  VDW_RADIUS =    50.000 A
  VDW_SR =     0.830
  VDW_D =     6.000
  SCSRAD =   120.000 A
  LVDWSCS = T
  LSCSGRAD = T
  LSCALER0 = T
  ITIM = -1
  Edisp (eV):   -0.02227
    FORVDW:  cpu time      7.9790: real time      7.9811

  FORCE on cell =-STRESS in cart. coord.  units (eV):
  Direction    XX          YY          ZZ          XY          YZ          ZX
  --------------------------------------------------------------------------------------
  Alpha Z     0.47150     0.47150     0.47150
  Ewald     199.94002   199.94002  -168.57042  -340.87387     0.00000    -0.00000
  Hartree   752.82851   752.82851   499.37619  -226.40597     0.00000     0.00000
  E(xc)     -98.33220   -98.33220   -98.85981    -0.52758     0.00000     0.00000
  Local   -1283.99086 -1283.99086  -676.81324   552.49609    -0.00000     0.00000
  n-local   -14.86734   -14.86735    -6.24392     8.62676     0.00000     0.00000
  augment   134.31724   134.31724   136.15249     1.83503    -0.00000    -0.00000
  Kinetic   309.35349   309.35349   314.45708     5.10244    -0.00000     0.00000
  Fock        0.00000     0.00000     0.00000     0.00000     0.00000     0.00000
  vdW         0.01202     0.01165     0.00115    -0.01180    -0.00000     0.00000
  -------------------------------------------------------------------------------------
  Total      -0.26782    -0.26782    -0.02899     0.24110     0.00000     0.00000
  in kB      -0.04342    -0.04342    -0.00470     0.03909     0.00000     0.00000
  external pressure =       -0.03 kB  Pullay stress =        0.00 kB


 VOLUME and BASIS-vectors are now :
 -----------------------------------------------------------------------------
  energy-cutoff  :      520.00
  volume of cell :     9881.61
      direct lattice vectors                 reciprocal lattice vectors
    21.138852197  0.000000000  0.000000000     0.047306258  0.000000000  0.000000000
     0.000000000 21.138852197  0.000000000     0.000000000  0.047306258  0.000000000
     0.000000000  0.000000000 22.113885220     0.000000000  0.000000000  0.045220457

  length of vectors
    21.138852197 21.138852197 22.113885220     0.047306258  0.047306258  0.045220457


 FORCES acting on ions:
    Electron-Ion                     Ewald-Force                    Non-Local-Force
 -----------------------------------------------------------------------------------------------
   -.197E+03 0.197E+03 0.252E-04   0.191E+03 -.191E+03 0.316E-17   0.521E+01 -.521E+01 0.156E-19
   0.197E+03 -.197E+03 0.252E-04   -.191E+03 0.191E+03 -.371E-16   -.521E+01 0.521E+01 -.219E-20
 -----------------------------------------------------------------------------------------------
   0.502E-04 -.240E-03 0.517E-04   0.000E+00 0.000E+00 -.339E-16   0.000E+00 0.000E+00 0.135E-19


 POSITION                                       TOTAL-FORCE (eV/Angst)
 -----------------------------------------------------------------------------------
     10.40626      8.61871     13.92428        -0.136769      0.136769      0.000000
      8.61871     10.40626     13.92428         0.136769     -0.136769     -0.000000
 -----------------------------------------------------------------------------------
    total drift:                                0.000050     -0.000240      0.000052


--------------------------------------------------------------------------------------------------------



  FREE ENERGIE OF THE ION-ELECTRON SYSTEM (eV)
  ---------------------------------------------------
  free  energy   TOTEN  =        -2.73276905 eV

  energy  without entropy=       -2.73276905  energy(sigma->0) =       -2.73276905



--------------------------------------------------------------------------------------------------------


    POTLOK:  cpu time      0.5289: real time      0.5291


--------------------------------------------------------------------------------------------------------


     LOOP+:  cpu time     48.1458: real time     48.2513
    4ORBIT:  cpu time      0.0000: real time      0.0000

 total amount of memory used by VASP MPI-rank0   141816. kBytes
=======================================================================

   base      :      30000. kBytes
   nonlr-proj:        711. kBytes
   fftplans  :      38432. kBytes
   grid      :      53473. kBytes
   one-center:         15. kBytes
   wavefun   :      19185. kBytes

  
  
 General timing and accounting informations for this job:
 ========================================================
  
                  Total CPU time used (sec):       66.548
                            User time (sec):       64.908
                          System time (sec):        1.640
                         Elapsed time (sec):       71.365
  
                   Maximum memory used (kb):      345932.
                   Average memory used (kb):          N/A
  
                          Minor page faults:        74546
                          Major page faults:            0
                 Voluntary context switches:         6574
