 vasp.6.3.0 20Jan22 (build Apr  1 2022 16:44:48) complex                         
 executed on        HPECrayEX_GCC date 2023.01.10  04:35:14
 running  512 mpi-ranks, with    1 threads/rank
 distrk:  each k-point on  256 cores,    2 groups
 distr:  one band on NCORE=   4 cores,   64 groups


--------------------------------------------------------------------------------------------------------


 INCAR:
   SYSTEM = MgO-rocksalt
   ISMEAR = 0
   SIGMA = 0.05
   EDIFF = 1E-6
   ALGO = ALL
   ISTART = 0
   IBRION = -1
   NSW = 0
   ISYM = 2
   LHFCALC = .TRUE.
   HFSCREEN = 0.2
   GGA = PE
   ENCUT = 520
   PREC = Accurate
   LASPH = .TRUE.
   LREAL = Auto
   ISPIN = 1
   NELM = 200
   NELMIN = 8
   NCORE = 4
   KPAR = 2
   LWAVE = .FALSE.
   LCHARG = .FALSE.

 POTCAR:    PAW_PBE Cu 22Jun2005                  
 -----------------------------------------------------------------------------
|                                                                             |
|           W    W    AA    RRRRR   N    N  II  N    N   GGGG   !!!           |
|           W    W   A  A   R    R  NN   N  II  NN   N  G    G  !!!           |
|           W    W  A    A  R    R  N N  N  II  N N  N  G       !!!           |
|           W WW W  AAAAAA  RRRRR   N  N N  II  N  N N  G  GGG   !            |
|           WW  WW  A    A  R   R   N   NN  II  N   NN  G    G                |
|           W    W  A    A  R    R  N    N  II  N    N   GGGG   !!!           |
|                                                                             |
|     You have selected ISYM=2 for a HF type calculation. This will           |
|     symmetrize the charge density but not the exchange potential. I         |
|     suggest to use ISYM=3 instead. This uses symmetry to obtain the         |
|     orbitals at all k-points in the Brillouin zone, but does not apply      |
|     symmetry to the Hartree potential directly. The resultant charge        |
|     might have lower symmetry than the crystal but, at least, Hartree       |
|     and exchange are fully compatible.                                      |
|                                                                             |
 -----------------------------------------------------------------------------

 POTCAR:    PAW_PBE Cu 22Jun2005                  
   SHA256 =  0e71e558f37a4e8407882b4609ceaae59938afaad9ced71dfe8490308a0ab630 Cu/POTCAR             
   COPYR  = (c) Copyright 22Jun2005 Georg Kresse                                                    
   COPYR  = This file is part of the software VASP. Any use, copying, and all other rights are regul
   COPYR  = If you do not have a valid VASP license, you may not use, copy or distribute this file. 
   VRHFIN =Cu: d10 p1                                                                               
   LEXCH  = PE                                                                                      
   EATOM  =  1390.9808 eV,  102.2342 Ry                                                             
                                                                                                    
   TITEL  = PAW_PBE Cu 22Jun2005                                                                    
   LULTRA =        F    use ultrasoft PP ?                                                          
   IUNSCR =        1    unscreen: 0-lin 1-nonlin 2-no                                               
   RPACOR =    2.000    partial core radius                                                         
   POMASS =   63.546; ZVAL   =   11.000    mass and valenz                                          
   RCORE  =    2.300    outmost cutoff radius                                                       
   RWIGS  =    2.200; RWIGS  =    1.164    wigner-seitz radius (au A)                               
   ENMAX  =  295.446; ENMIN  =  221.585 eV                                                          
   ICORE  =        3    local potential                                                             
   LCOR   =        T    correct aug charges                                                         
   LPAW   =        T    paw PP                                                                      
   EAUG   =  586.980                                                                                
   DEXC   =    0.000                                                                                
   RMAX   =    2.344    core radius for proj-oper                                                   
   RAUG   =    1.300    factor for augmentation sphere                                              
   RDEP   =    2.302    radius for radial grids                                                     
   RDEPT  =    1.771    core radius for aug-charge                                                  
                                                                                                    
   Atomic configuration                                                                             
    9 entries                                                                                       
     n  l   j            E        occ.                                                              
     1  0  0.50     -8850.2468   2.0000                                                             
     2  0  0.50     -1062.3498   2.0000                                                             
     2  1  1.50      -916.8226   6.0000                                                             
     3  0  0.50      -114.6929   2.0000                                                             
     3  1  1.50       -72.1325   6.0000                                                             
     3  2  2.50        -5.0394  10.0000                                                             
     4  0  0.50        -4.6097   1.0000                                                             
     4  1  0.50        -4.0817   0.0000                                                             
     4  3  2.50        -1.3606   0.0000                                                             
   Description                                                                                      
     l       E           TYP  RCUT    TYP  RCUT                                                     
     2     -5.0393973     23  2.200                                                                 
     2     10.8846608     23  2.200                                                                 
     0     -4.6097109     23  2.200                                                                 
     0      8.2520465     23  2.200                                                                 
     1     -2.7211652     23  2.200                                                                 
     1     21.7055443     23  2.200                                                                 
     3      2.7211652     23  2.300                                                                 
  local pseudopotential read in
  partial core-charges read in
  partial kinetic energy density read in
  atomic valenz-charges read in
  non local Contribution for L=           2  read in
    real space projection operators read in
  non local Contribution for L=           2  read in
    real space projection operators read in
  non local Contribution for L=           0  read in
    real space projection operators read in
  non local Contribution for L=           0  read in
    real space projection operators read in
  non local Contribution for L=           1  read in
    real space projection operators read in
  non local Contribution for L=           1  read in
    real space projection operators read in
    PAW grid and wavefunctions read in

   number of l-projection  operators is LMAX  =           6
   number of lm-projection operators is LMMAX =          18

 -----------------------------------------------------------------------------
|                                                                             |
|               ----> ADVICE to this user running VASP <----                  |
|                                                                             |
|     You have a (more or less) 'small supercell' and for smaller cells       |
|     it is recommended to use the reciprocal-space projection scheme!        |
|     The real-space optimization is not efficient for small cells and it     |
|     is also less accurate ...                                               |
|     Therefore, set LREAL=.FALSE. in the INCAR file.                         |
|                                                                             |
 -----------------------------------------------------------------------------

 Optimization of the real space projectors (new method)

 maximal supplied QI-value         = 16.25
 optimisation between [QCUT,QGAM] = [ 11.54, 23.24] = [ 37.28,151.24] Ry 
 Optimized for a Real-space Cutoff    1.53 Angstroem

   l    n(q)    QCUT    max X(q) W(low)/X(q) W(high)/X(q)  e(spline) 
   2     10    11.539     4.610    0.96E-04    0.13E-03    0.19E-06
   2     10    11.539     8.522    0.16E-03    0.21E-03    0.28E-06
   0     11    11.539    51.609    0.45E-04    0.31E-04    0.11E-06
   0     11    11.539    27.747    0.39E-04    0.29E-04    0.10E-06
   1     10    11.539    20.408    0.70E-05    0.38E-04    0.18E-06
   1     10    11.539    13.425    0.66E-05    0.34E-04    0.17E-06
  PAW_PBE Cu 22Jun2005                  :
 energy of atom  1       EATOM=-1390.9808
 kinetic energy error for atom=    0.0037 (will be added to EATOM!!)


 POSCAR: Cu Mg  O
  positions in direct lattice
  No initial velocities read in
 exchange correlation table for  LEXCH =        8
   RHO(1)=    0.500       N(1)  =     2000
   RHO(2)=  100.500       N(2)  =     4000



--------------------------------------------------------------------------------------------------------


 ion  position               nearest neighbor table
   1  0.400  0.421  0.593-   2 2.27
   2  0.401  0.506  0.657-   1 2.27   4 2.38   3 2.40
   3  0.401  0.614  0.691-   4 2.27   2 2.40
   4  0.400  0.594  0.590-   3 2.27   2 2.38

  LATTYP: Found a simple tetragonal cell.
 ALAT       =    21.1388521970
 C/A-ratio  =     1.0461251639
  
  Lattice vectors:
  
 A1 = (  21.1388521970,   0.0000000000,   0.0000000000)
 A2 = (   0.0000000000,  21.1388521970,   0.0000000000)
 A3 = (   0.0000000000,   0.0000000000,  22.1138852197)


Analysis of symmetry for initial positions (statically):
=====================================================================
 Subroutine PRICEL returns:
 Original cell was already a primitive cell.
 

 Routine SETGRP: Setting up the symmetry group for a 
 simple tetragonal supercell.


 Subroutine GETGRP returns: Found  1 space group operations
 (whereof  1 operations were pure point group operations)
 out of a pool of 16 trial point group operations.


The static configuration has the point symmetry C_1 .


Analysis of symmetry for dynamics (positions and initial velocities):
=====================================================================
 Subroutine PRICEL returns:
 Original cell was already a primitive cell.
 

 Routine SETGRP: Setting up the symmetry group for a 
 simple tetragonal supercell.


 Subroutine GETGRP returns: Found  1 space group operations
 (whereof  1 operations were pure point group operations)
 out of a pool of 16 trial point group operations.


The dynamic configuration has the point symmetry C_1 .


Analysis of constrained symmetry for selective dynamics:
=====================================================================
 Subroutine PRICEL returns:
 Original cell was already a primitive cell.
 

 Routine SETGRP: Setting up the symmetry group for a 
 simple tetragonal supercell.


 Subroutine GETGRP returns: Found  1 space group operations
 (whereof  1 operations were pure point group operations)
 out of a pool of 16 trial point group operations.


The constrained configuration has the point symmetry C_1 .


 Subroutine INISYM returns: Found  1 space group operations
 (whereof  1 operations are pure point group operations),
 and found     1 'primitive' translations


----------------------------------------------------------------------------------------

                                     Primitive cell                                     

  volume of cell :    9881.6133

  direct lattice vectors                    reciprocal lattice vectors
    21.138852197  0.000000000  0.000000000     0.047306258  0.000000000  0.000000000
     0.000000000 21.138852197  0.000000000     0.000000000  0.047306258  0.000000000
     0.000000000  0.000000000 22.113885220     0.000000000  0.000000000  0.045220457

  length of vectors
    21.138852197 21.138852197 22.113885220     0.047306258  0.047306258  0.045220457

  position of ions in fractional coordinates (direct lattice)
     0.400229282  0.421328702  0.592894010
     0.400626265  0.505728649  0.656597495
     0.400850837  0.613577871  0.691210184
     0.400248991  0.594204282  0.590315895

  ion indices of the primitive-cell ions
   primitive index   ion index
                 1           1
                 2           2
                 3           3
                 4           4

----------------------------------------------------------------------------------------



 KPOINTS: KPOINTS created by Atomic Simulation Env

Automatic generation of k-mesh.
 Grid dimensions read from file:
 generate k-points for:    1    1    1

 Generating k-lattice:

  Cartesian coordinates                     Fractional coordinates (reciprocal lattice)
     0.047306258  0.000000000  0.000000000     1.000000000  0.000000000  0.000000000
     0.000000000  0.047306258  0.000000000     0.000000000  1.000000000  0.000000000
     0.000000000  0.000000000  0.045220457     0.000000000  0.000000000  1.000000000

  Length of vectors
     0.047306258  0.047306258  0.045220457

  Shift w.r.t. Gamma in fractional coordinates (k-lattice)
     0.000000000  0.000000000  0.000000000

 
 Subroutine IBZKPT returns following result:
 ===========================================
 
 Found      1 irreducible k-points:
 
 Following reciprocal coordinates:
            Coordinates               Weight
  0.000000  0.000000  0.000000      1.000000
 
 Following cartesian coordinates:
            Coordinates               Weight
  0.000000  0.000000  0.000000      1.000000
 
 
 Subroutine IBZKPT_HF returns following result:
 ==============================================
 
 Found      1 k-points in 1st BZ
 the following      1 k-points will be used (e.g. in the exchange kernel)
 Following reciprocal coordinates:   # in IRBZ
  0.000000  0.000000  0.000000    1.00000000   1 t-inv F


--------------------------------------------------------------------------------------------------------




 Dimension of arrays:
   k-points           NKPTS =      1   k-points in BZ     NKDIM =      1   number of bands    NBANDS=     64
   number of dos      NEDOS =    301   number of ions     NIONS =      4
   non local maximal  LDIM  =      6   non local SUM 2l+1 LMDIM =     18
   total plane-waves  NPLWV = ******
   max r-space proj   IRMAX =   6628   max aug-charges    IRDMAX=  12805
   dimension x,y,z NGX =   160 NGY =  160 NGZ =  168
   dimension x,y,z NGXF=   320 NGYF=  320 NGZF=  336
   support grid    NGXF=   320 NGYF=  320 NGZF=  336
   ions per type =               4
   NGX,Y,Z   is equivalent  to a cutoff of  12.58, 12.58, 12.63 a.u.
   NGXF,Y,Z  is equivalent  to a cutoff of  25.17, 25.17, 25.26 a.u.

 SYSTEM =  MgO-rocksalt                            
 POSCAR =  Cu Mg  O                                

 Startparameter for this run:
   NWRITE =      2    write-flag & timer
   PREC   = accura    normal or accurate (medium, high low for compatibility)
   ISTART =      0    job   : 0-new  1-cont  2-samecut
   ICHARG =      2    charge: 1-file 2-atom 10-const
   ISPIN  =      1    spin polarized calculation?
   LNONCOLLINEAR =      F non collinear calculations
   LSORBIT =      F    spin-orbit coupling
   INIWAV =      1    electr: 0-lowe 1-rand  2-diag
   LASPH  =      T    aspherical Exc in radial PAW
 Electronic Relaxation 1
   ENCUT  =  520.0 eV  38.22 Ry    6.18 a.u.  39.30 39.30 41.12*2*pi/ulx,y,z
   ENINI  =  520.0     initial cutoff
   ENAUG  =  587.0 eV  augmentation charge cutoff
   NELM   =    200;   NELMIN=  8; NELMDL= -5     # of ELM steps 
   EDIFF  = 0.1E-05   stopping-criterion for ELM
   LREAL  =      T    real-space projection
   NLSPLINE    = F    spline interpolate recip. space projectors
   LCOMPAT=      F    compatible to vasp.4.4
   GGA_COMPAT  = T    GGA compatible to vasp.4.4-vasp.4.6
   LMAXPAW     = -100 max onsite density
   LMAXMIX     =    2 max onsite mixed and CHGCAR
   VOSKOWN=      0    Vosko Wilk Nusair interpolation
   ROPT   =   -0.00025
 Ionic relaxation
   EDIFFG = 0.1E-04   stopping-criterion for IOM
   NSW    =      0    number of steps for IOM
   NBLOCK =      1;   KBLOCK =      1    inner block; outer block 
   IBRION =     -1    ionic relax: 0-MD 1-quasi-New 2-CG
   NFREE  =      0    steps in history (QN), initial steepest desc. (CG)
   ISIF   =      0    stress and relaxation
   IWAVPR =     10    prediction:  0-non 1-charg 2-wave 3-comb
   ISYM   =      2    0-nonsym 1-usesym 2-fastsym
   LCORR  =      T    Harris-Foulkes like correction to forces

   POTIM  = 0.5000    time-step for ionic-motion
   TEIN   =    0.0    initial temperature
   TEBEG  =    0.0;   TEEND  =   0.0 temperature during run
   SMASS  =  -3.00    Nose mass-parameter (am)
   estimated Nose-frequenzy (Omega)   =  0.10E-29 period in steps = 0.13E+47 mass=  -0.102E-25a.u.
   SCALEE = 1.0000    scale energy and forces
   NPACO  =    256;   APACO  = 10.0  distance and # of slots for P.C.
   PSTRESS=    0.0 pullay stress

  Mass of Ions in am
   POMASS =  63.55
  Ionic Valenz
   ZVAL   =  11.00
  Atomic Wigner-Seitz radii
   RWIGS  =  -1.00
  virtual crystal weights 
   VCA    =   1.00
   NELECT =      44.0000    total number of electrons
   NUPDOWN=      -1.0000    fix difference up-down

 DOS related values:
   EMIN   =  10.00;   EMAX   =-10.00  energy-range for DOS
   EFERMI =   0.00
   ISMEAR =     0;   SIGMA  =   0.05  broadening in eV -4-tet -1-fermi 0-gaus

 Electronic relaxation 2 (details)
   IALGO  =     58    algorithm
   LDIAG  =      T    sub-space diagonalisation (order eigenvalues)
   LSUBROT=      F    optimize rotation matrix (better conditioning)
   TURBO    =      0    0=normal 1=particle mesh
   IRESTART =      0    0=no restart 2=restart with 2 vectors
   NREBOOT  =      0    no. of reboots
   NMIN     =      0    reboot dimension
   EREF     =   0.00    reference energy to select bands
   IMIX   =      4    mixing-type and parameters
     AMIX     =   0.40;   BMIX     =  1.00
     AMIX_MAG =   1.60;   BMIX_MAG =  1.00
     AMIN     =   0.10
     WC   =   100.;   INIMIX=   1;  MIXPRE=   1;  MAXMIX= -45

 Intra band minimization:
   WEIMIN = 0.0000     energy-eigenvalue tresh-hold
   EBREAK =  0.39E-08  absolut break condition
   DEPER  =   0.30     relativ break condition  

   TIME   =   0.40     timestep for ELM

  volume/ion in A,a.u.               =    2470.40     16671.10
  Fermi-wavevector in a.u.,A,eV,Ry     =   0.269329  0.508958  0.986941  0.072538
  Thomas-Fermi vector in A             =   1.106612

 Write flags
   LWAVE        =      F    write WAVECAR
   LDOWNSAMPLE  =      F    k-point downsampling of WAVECAR
   LCHARG       =      F    write CHGCAR
   LVTOT        =      F    write LOCPOT, total local potential
   LVHAR        =      F    write LOCPOT, Hartree potential only
   LELF         =      F    write electronic localiz. function (ELF)
   LORBIT       =      0    0 simple, 1 ext, 2 COOP (PROOUT), +10 PAW based schemes


 Dipole corrections
   LMONO  =      F    monopole corrections only (constant potential shift)
   LDIPOL =      F    correct potential (dipole corrections)
   IDIPOL =      0    1-x, 2-y, 3-z, 4-all directions 
   EPSILON=  1.0000000 bulk dielectric constant

 Exchange correlation treatment:
   GGA     =    PE    GGA type
   LEXCH   =     8    internal setting for exchange type
   LIBXC   =     F    Libxc                    
   VOSKOWN =     0    Vosko Wilk Nusair interpolation
   EXXOEP  =     0    0=HF, 1=EXX-LHF (local Hartree Fock) 2=EXX OEP
   LHFCALC =     T    Hartree Fock is set to
   LSYMGRAD=     F    symmetrize gradient (conserves proper symmetry)
   PRECFOCK=normal    Normal, Fast or Accurate (Low or Medium for compatibility)
   LRHFCALC=     F    long range Hartree Fock
   LRSCOR  =     F    long range correlation only (use DFT for short range part)
   LTHOMAS =     F    Thomas Fermi screening in HF
   LMODELHF=     F    short range full HF, long range fraction AEXX
   LFOCKACE=     T    use Adeptively-Compressed-Exchange operator
   ENCUT4O =  -1.0   cutoff for four orbital integrals eV
   LMAXFOCK=     4    L truncation for augmentation on plane wave grid
   LMAXFOCKAE=  -1    L truncation for all-electron charge restoration on plane wave grid
   NMAXFOCKAE=   1    number of basis functions for all-electron charge restoration
   LFOCKAEDFT=     F  apply the AE augmentation even for DFT
   NKREDX  =     1    reduce k-point grid by
   NKREDY  =     1    reduce k-point grid by
   NKREDZ  =     1    reduce k-point grid by
   SHIFTRED=     F    shift reduced grid of Gamma
   HFKIDENT=     F    idential grid for each k-point
   ODDONLY =     F    use only odd q-grid points
   EVENONLY=     F    use only even q-grid points
   HFALPHA =   -1.0000 decay constant for conv. correction
   MCALPHA =    0.0000 extent of test-charge in conv. correction in multipole expansion
   AEXX    =    0.2500 exact exchange contribution
   HFSCREEN=    0.2000 screening length (either q_TF or 0.3 A-1)
   HFSCREENC=   0.2000 screening length for correlation (either q_TF or 0.3 A-1)
   HFRCUT  =    0.0000 spherical cutoff for potential kernel
   ALDAX   =    0.7500 LDA exchange part
   AGGAX   =    0.7500 GGA exchange part
   ALDAC   =    1.0000 LDA correlation
   AGGAC   =    1.0000 GGA correlation
   ENCUTFOCK=  -1.0 apply spherical cutoff to Coloumb kernel
   NBANDSGWLOW=     1    first orbital included in HF term
   NBLOCK_FOCK=    64    blocking factor in FOCK_ACC

 Linear response parameters
   LEPSILON=     F    determine dielectric tensor
   LRPA    =     F    only Hartree local field effects (RPA)
   LNABLA  =     F    use nabla operator in PAW spheres
   LVEL    =     F    velocity operator in full k-point grid
   CSHIFT  =0.1000    complex shift for real part using Kramers Kronig
   OMEGAMAX=  -1.0    maximum frequency
   DEG_THRESHOLD= 0.2000000E-02 threshold for treating states as degnerate
   RTIME   =   -0.100 relaxation time in fs
  (WPLASMAI=    0.000 imaginary part of plasma frequency in eV, 0.658/RTIME)
   DFIELD  = 0.0000000 0.0000000 0.0000000 field for delta impulse in time

  Optional k-point grid parameters
   LKPOINTS_OPT  =     F    use optional k-point grid
   KPOINTS_OPT_MODE=     1    mode for optional k-point grid

 Orbital magnetization related:
   ORBITALMAG=     F  switch on orbital magnetization
   LCHIMAG   =     F  perturbation theory with respect to B field
   DQ        =  0.001000  dq finite difference perturbation B field
   LLRAUG    =     F  two centre corrections for induced B field



--------------------------------------------------------------------------------------------------------


 Static calculation
 charge density and potential will be updated during run
 non-spin polarized calculation
 Conjugate gradient for all bands (Freysoldt, et al. PRB 79, 241103 (2009))
 preconditioned conjugated gradient                                        
 perform sub-space diagonalisation
    before iterative eigenvector-optimisation
 modified Broyden-mixing scheme, WC =      100.0
 initial mixing is a Kerker type mixing with AMIX =  0.4000 and BMIX =      1.0000
 Hartree-type preconditioning will be used
 using additional bands           42
 real space projection scheme for non local part
 use partial core corrections
 no Harris-corrections to forces 
 use gradient corrections 
 use of overlap-Matrix (Vanderbilt PP)
 Gauss-broadening in eV      SIGMA  =   0.05


--------------------------------------------------------------------------------------------------------


  energy-cutoff  :      520.00
  volume of cell :     9881.61
      direct lattice vectors                 reciprocal lattice vectors
    21.138852197  0.000000000  0.000000000     0.047306258  0.000000000  0.000000000
     0.000000000 21.138852197  0.000000000     0.000000000  0.047306258  0.000000000
     0.000000000  0.000000000 22.113885220     0.000000000  0.000000000  0.045220457

  length of vectors
    21.138852197 21.138852197 22.113885220     0.047306258  0.047306258  0.045220457



 k-points in units of 2pi/SCALE and weight: KPOINTS created by Atomic Simulation Env
   0.00000000  0.00000000  0.00000000       1.000

 k-points in reciprocal lattice and weights: KPOINTS created by Atomic Simulation Env
   0.00000000  0.00000000  0.00000000       1.000

 position of ions in fractional coordinates (direct lattice) 
   0.40022928  0.42132870  0.59289401
   0.40062627  0.50572865  0.65659749
   0.40085084  0.61357787  0.69121018
   0.40024899  0.59420428  0.59031589

 position of ions in cartesian coordinates  (Angst):
   8.46038764  8.90640515 13.11119008
   8.46877940 10.69052316 14.51992163
   8.47352660 12.97033192 15.28534267
   8.46080425 12.56079650 13.05417794



--------------------------------------------------------------------------------------------------------


 k-point   1 :   0.0000 0.0000 0.0000  plane waves:  265979

 maximum and minimum number of plane-waves per node :     66495    66494

 maximum number of plane-waves:    265979
 maximum index in each direction: 
   IXMAX=   39   IYMAX=   39   IZMAX=   41
   IXMIN=  -39   IYMIN=  -39   IZMIN=  -41


 real space projection operators:
  total allocation   :       3593.11 KBytes
  max/ min on nodes  :        908.30        888.05


 parallel 3D FFT for wavefunctions:
    minimum data exchange during FFTs selected (reduces bandwidth)
 parallel 3D FFT for charge:
    minimum data exchange during FFTs selected (reduces bandwidth)


 FFT grid for exact exchange (Hartree Fock) 
  NGX =120; NGY =120; NGZ =126


 Radii for the augmentation spheres in the non-local exchange
 for species   1 augmentation radius   1.179 (default was   0.943)
       energy cutoff for augmentation   2080.0

 real space projection operators:
  total allocation   :        982.42 KBytes
  max/ min on nodes  :        250.39        243.36

 Maximum index for augmentation-charges in exchange          322
  SETUP_FOCK is finished

 total amount of memory used by VASP MPI-rank0   153718. kBytes
=======================================================================

   base      :      30000. kBytes
   nonlr-proj:       1936. kBytes
   fftplans  :      65038. kBytes
   grid      :      53473. kBytes
   one-center:         15. kBytes
   HF        :         64. kBytes
   wavefun   :       3192. kBytes

     INWAV:  cpu time      0.0000: real time      0.0000
 Broyden mixing: mesh for mixing (old mesh)
   NGX = 79   NGY = 79   NGZ = 83
  (NGX  =320   NGY  =320   NGZ  =336)
  gives a total of 518003 points

 initial charge density was supplied:
 charge density of overlapping atoms calculated
 number of electron      44.0000000 magnetization 
 keeping initial charge density in first step


--------------------------------------------------------------------------------------------------------


 Maximum index for non-local projection operator         1580
 Maximum index for augmentation-charges            0 (set IRDMAX)


--------------------------------------------------------------------------------------------------------


 First call to EWALD:  gamma=   0.083
 Maximum number of real-space cells 3x 3x 3
 Maximum number of reciprocal cells 3x 3x 3

    FEWALD:  cpu time      0.0013: real time      0.0013


--------------------------------------- Iteration      1(   1)  ---------------------------------------


    POTLOK:  cpu time      0.1909: real time      0.1911
    SETDIJ:  cpu time      0.1892: real time      0.1893
    TRIAL :  cpu time      0.4577: real time      0.4580
    CORREC:  cpu time      0.0006: real time      0.0006
    --------------------------------------------
      LOOP:  cpu time      0.8404: real time      0.8410

 eigenvalue-minimisations  :   128
 total energy-change (2. order) :-0.1344835E+04  (-0.8064292E+03)
 number of electron      44.0000000 magnetization 
 augmentation part       44.0000000 magnetization 

 Free energy of the ion-electron system (eV)
  ---------------------------------------------------
  alpha Z        PSCENC =         1.18414354
  Ewald energy   TEWEN  =      2026.83575057
  -Hartree energ DENC   =     -7105.62583309
  -exchange      EXHF   =         0.00000000
  -V(xc)+E(xc)   XCENC  =       177.19524993
  PAW double counting   =      4912.82663951    -6793.79252127
  entropy T*S    EENTRO =        -0.00000003
  eigenvalues    EBANDS =      -117.53821909
  atomic energy  EATOM  =      5554.08010885
  ---------------------------------------------------
  free energy    TOTEN  =     -1344.83468108 eV

  energy without entropy =    -1344.83468104  energy(sigma->0) =    -1344.83468106
  exchange ACFDT corr.  =         0.00000000  see jH, gK, PRB 81, 115126


--------------------------------------------------------------------------------------------------------




--------------------------------------- Iteration      1(   2)  ---------------------------------------


    TRIAL :  cpu time      0.4574: real time      0.4574
    CORREC:  cpu time      0.0003: real time      0.0003
    --------------------------------------------
      LOOP:  cpu time      0.4600: real time      0.4646

 eigenvalue-minimisations  :   128
 total energy-change (2. order) :-0.2639905E+03  (-0.2639905E+03)
 number of electron      44.0000000 magnetization 
 augmentation part       44.0000000 magnetization 

 Free energy of the ion-electron system (eV)
  ---------------------------------------------------
  alpha Z        PSCENC =         1.18414354
  Ewald energy   TEWEN  =      2026.83575057
  -Hartree energ DENC   =     -7105.62583309
  -exchange      EXHF   =         0.00000000
  -V(xc)+E(xc)   XCENC  =       177.19524993
  PAW double counting   =      4912.82663951    -6793.79252127
  entropy T*S    EENTRO =        -0.00000000
  eigenvalues    EBANDS =      -381.52868301
  atomic energy  EATOM  =      5554.08010885
  ---------------------------------------------------
  free energy    TOTEN  =     -1608.82514497 eV

  energy without entropy =    -1608.82514497  energy(sigma->0) =    -1608.82514497
  exchange ACFDT corr.  =         0.00000000  see jH, gK, PRB 81, 115126


--------------------------------------------------------------------------------------------------------




--------------------------------------- Iteration      1(   3)  ---------------------------------------


    TRIAL :  cpu time      0.4563: real time      0.4564
    CORREC:  cpu time      0.0003: real time      0.0003
    --------------------------------------------
      LOOP:  cpu time      0.4629: real time      0.4632

 eigenvalue-minimisations  :   128
 total energy-change (2. order) :-0.2108173E+02  (-0.2108173E+02)
 number of electron      44.0000000 magnetization 
 augmentation part       44.0000000 magnetization 

 Free energy of the ion-electron system (eV)
  ---------------------------------------------------
  alpha Z        PSCENC =         1.18414354
  Ewald energy   TEWEN  =      2026.83575057
  -Hartree energ DENC   =     -7105.62583309
  -exchange      EXHF   =         0.00000000
  -V(xc)+E(xc)   XCENC  =       177.19524993
  PAW double counting   =      4912.82663951    -6793.79252127
  entropy T*S    EENTRO =        -0.00000000
  eigenvalues    EBANDS =      -402.61041275
  atomic energy  EATOM  =      5554.08010885
  ---------------------------------------------------
  free energy    TOTEN  =     -1629.90687471 eV

  energy without entropy =    -1629.90687471  energy(sigma->0) =    -1629.90687471
  exchange ACFDT corr.  =         0.00000000  see jH, gK, PRB 81, 115126


--------------------------------------------------------------------------------------------------------




--------------------------------------- Iteration      1(   4)  ---------------------------------------


    TRIAL :  cpu time      0.4534: real time      0.4535
    CORREC:  cpu time      0.0003: real time      0.0003
    --------------------------------------------
      LOOP:  cpu time      0.4599: real time      0.4600

 eigenvalue-minimisations  :   128
 total energy-change (2. order) :-0.3627387E+00  (-0.3627389E+00)
 number of electron      44.0000000 magnetization 
 augmentation part       44.0000000 magnetization 

 Free energy of the ion-electron system (eV)
  ---------------------------------------------------
  alpha Z        PSCENC =         1.18414354
  Ewald energy   TEWEN  =      2026.83575057
  -Hartree energ DENC   =     -7105.62583309
  -exchange      EXHF   =         0.00000000
  -V(xc)+E(xc)   XCENC  =       177.19524993
  PAW double counting   =      4912.82663951    -6793.79252127
  entropy T*S    EENTRO =        -0.00000000
  eigenvalues    EBANDS =      -402.97315147
  atomic energy  EATOM  =      5554.08010885
  ---------------------------------------------------
  free energy    TOTEN  =     -1630.26961343 eV

  energy without entropy =    -1630.26961343  energy(sigma->0) =    -1630.26961343
  exchange ACFDT corr.  =         0.00000000  see jH, gK, PRB 81, 115126


--------------------------------------------------------------------------------------------------------




--------------------------------------- Iteration      1(   5)  ---------------------------------------


    POTLOK:  cpu time      0.3746: real time      0.3747
    SETDIJ:  cpu time      0.5366: real time      0.5366
    TRIAL :  cpu time      7.3131: real time      7.3168
    CORREC:  cpu time      0.0003: real time      0.0003
    CHARGE:  cpu time      0.1163: real time      0.1168
    --------------------------------------------
      LOOP:  cpu time      8.3472: real time      8.3519

 eigenvalue-minimisations  :   128
 total energy-change (2. order) : 0.1622250E+04  (-0.2794216E+01)
 number of electron      44.0000023 magnetization 
 augmentation part       29.1676614 magnetization 

 Free energy of the ion-electron system (eV)
  ---------------------------------------------------
  alpha Z        PSCENC =         1.18414354
  Ewald energy   TEWEN  =      2026.83575057
  -Hartree energ DENC   =     -7105.62583309
  -exchange      EXHF   =       124.56223538
  -V(xc)+E(xc)   XCENC  =       133.64880913
  PAW double counting   =      4955.90005983    -5342.78480207
  entropy T*S    EENTRO =        -0.00000000
  eigenvalues    EBANDS =      -355.82003470
  atomic energy  EATOM  =      5554.08010885
  ---------------------------------------------------
  free energy    TOTEN  =        -8.01956256 eV

  energy without entropy =       -8.01956256  energy(sigma->0) =       -8.01956256
  exchange ACFDT corr.  =        -0.00000000  see jH, gK, PRB 81, 115126


--------------------------------------------------------------------------------------------------------




--------------------------------------- Iteration      1(   6)  ---------------------------------------


    POTLOK:  cpu time      0.4539: real time      0.4539
    SETDIJ:  cpu time      0.5376: real time      0.5377
    TRIAL :  cpu time      7.5116: real time      7.6834
    CORREC:  cpu time      8.0702: real time      8.0739
    CHARGE:  cpu time      0.1144: real time      0.1144
    --------------------------------------------
      LOOP:  cpu time     16.6944: real time     16.8702

 eigenvalue-minimisations  :     0
 total energy-change (2. order) : 0.2947677E+01  (-0.1235684E+01)
 number of electron      44.0000023 magnetization 
 augmentation part       28.6219698 magnetization 

 Free energy of the ion-electron system (eV)
  ---------------------------------------------------
  alpha Z        PSCENC =         1.18414354
  Ewald energy   TEWEN  =      2026.83575057
  -Hartree energ DENC   =     -7282.23754438
  -exchange      EXHF   =       119.42313817
  -V(xc)+E(xc)   XCENC  =       136.63850938
  PAW double counting   =      5393.00262994    -5805.64278646
  entropy T*S    EENTRO =        -0.00000000
  eigenvalues    EBANDS =      -148.35583517
  atomic energy  EATOM  =      5554.08010885
  ---------------------------------------------------
  free energy    TOTEN  =        -5.07188556 eV

  energy without entropy =       -5.07188556  energy(sigma->0) =       -5.07188556
  exchange ACFDT corr.  =        -0.00000000  see jH, gK, PRB 81, 115126


--------------------------------------------------------------------------------------------------------




--------------------------------------- Iteration      1(   7)  ---------------------------------------


    POTLOK:  cpu time      0.4553: real time      0.4554
    SETDIJ:  cpu time      0.5390: real time      0.5390
    TRIAL :  cpu time      7.2031: real time      7.2075
    CORREC:  cpu time      8.0909: real time      8.0938
    CHARGE:  cpu time      0.1153: real time      0.1153
    --------------------------------------------
      LOOP:  cpu time     16.4105: real time     16.4180

 eigenvalue-minimisations  :     0
 total energy-change (2. order) :-0.1289309E+01  (-0.6409836E+00)
 number of electron      44.0000023 magnetization 
 augmentation part       28.6807223 magnetization 

 Free energy of the ion-electron system (eV)
  ---------------------------------------------------
  alpha Z        PSCENC =         1.18414354
  Ewald energy   TEWEN  =      2026.83575057
  -Hartree energ DENC   =     -7193.09149004
  -exchange      EXHF   =       117.47887210
  -V(xc)+E(xc)   XCENC  =       134.19471405
  PAW double counting   =      5334.96067546    -5726.22084385
  entropy T*S    EENTRO =        -0.00000000
  eigenvalues    EBANDS =      -255.78312515
  atomic energy  EATOM  =      5554.08010885
  ---------------------------------------------------
  free energy    TOTEN  =        -6.36119447 eV

  energy without entropy =       -6.36119447  energy(sigma->0) =       -6.36119447
  exchange ACFDT corr.  =        -0.00000000  see jH, gK, PRB 81, 115126


--------------------------------------------------------------------------------------------------------




--------------------------------------- Iteration      1(   8)  ---------------------------------------


    POTLOK:  cpu time      0.4666: real time      0.4667
    SETDIJ:  cpu time      0.5348: real time      0.5348
    TRIAL :  cpu time      7.5944: real time      7.5990
    CORREC:  cpu time      8.1195: real time      8.1233
    CHARGE:  cpu time      0.1139: real time      0.1139
    --------------------------------------------
      LOOP:  cpu time     16.8360: real time     16.8448

 eigenvalue-minimisations  :     0
 total energy-change (2. order) :-0.6411651E+00  (-0.1112131E+00)
 number of electron      44.0000023 magnetization 
 augmentation part       28.8122760 magnetization 

 Free energy of the ion-electron system (eV)
  ---------------------------------------------------
  alpha Z        PSCENC =         1.18414354
  Ewald energy   TEWEN  =      2026.83575057
  -Hartree energ DENC   =     -7153.24441766
  -exchange      EXHF   =       117.05392255
  -V(xc)+E(xc)   XCENC  =       133.85226118
  PAW double counting   =      5290.64948100    -5683.54737538
  entropy T*S    EENTRO =        -0.00000000
  eigenvalues    EBANDS =      -293.86623423
  atomic energy  EATOM  =      5554.08010885
  ---------------------------------------------------
  free energy    TOTEN  =        -7.00235957 eV

  energy without entropy =       -7.00235957  energy(sigma->0) =       -7.00235957
  exchange ACFDT corr.  =        -0.00000000  see jH, gK, PRB 81, 115126


--------------------------------------------------------------------------------------------------------




--------------------------------------- Iteration      1(   9)  ---------------------------------------


    POTLOK:  cpu time      0.4683: real time      0.4683
    SETDIJ:  cpu time      0.5312: real time      0.5312
    TRIAL :  cpu time      7.6296: real time      7.6344
    CORREC:  cpu time      8.0559: real time      8.0596
    CHARGE:  cpu time      0.1142: real time      0.1142
    --------------------------------------------
      LOOP:  cpu time     16.8059: real time     16.8147

 eigenvalue-minimisations  :     0
 total energy-change (2. order) :-0.1107082E+00  (-0.7382141E-01)
 number of electron      44.0000023 magnetization 
 augmentation part       28.7173671 magnetization 

 Free energy of the ion-electron system (eV)
  ---------------------------------------------------
  alpha Z        PSCENC =         1.18414354
  Ewald energy   TEWEN  =      2026.83575057
  -Hartree energ DENC   =     -7165.92618379
  -exchange      EXHF   =       117.40235392
  -V(xc)+E(xc)   XCENC  =       134.33056106
  PAW double counting   =      5298.75441196    -5696.87854116
  entropy T*S    EENTRO =        -0.00000000
  eigenvalues    EBANDS =      -276.89567268
  atomic energy  EATOM  =      5554.08010885
  ---------------------------------------------------
  free energy    TOTEN  =        -7.11306773 eV

  energy without entropy =       -7.11306773  energy(sigma->0) =       -7.11306773
  exchange ACFDT corr.  =        -0.00000000  see jH, gK, PRB 81, 115126


--------------------------------------------------------------------------------------------------------




--------------------------------------- Iteration      1(  10)  ---------------------------------------


    POTLOK:  cpu time      0.4588: real time      0.4589
    SETDIJ:  cpu time      0.5395: real time      0.5395
    TRIAL :  cpu time      7.5810: real time      7.5857
    CORREC:  cpu time      8.0671: real time      8.0699
    CHARGE:  cpu time      0.1142: real time      0.1143
    --------------------------------------------
      LOOP:  cpu time     16.7674: real time     16.7753

 eigenvalue-minimisations  :     0
 total energy-change (2. order) :-0.7385499E-01  (-0.5854165E-01)
 number of electron      44.0000023 magnetization 
 augmentation part       28.6982077 magnetization 

 Free energy of the ion-electron system (eV)
  ---------------------------------------------------
  alpha Z        PSCENC =         1.18414354
  Ewald energy   TEWEN  =      2026.83575057
  -Hartree energ DENC   =     -7152.18257636
  -exchange      EXHF   =       117.07978912
  -V(xc)+E(xc)   XCENC  =       133.93479152
  PAW double counting   =      5293.91091360    -5688.73813314
  entropy T*S    EENTRO =        -0.00000000
  eigenvalues    EBANDS =      -293.29171041
  atomic energy  EATOM  =      5554.08010885
  ---------------------------------------------------
  free energy    TOTEN  =        -7.18692272 eV

  energy without entropy =       -7.18692272  energy(sigma->0) =       -7.18692272
  exchange ACFDT corr.  =        -0.00000000  see jH, gK, PRB 81, 115126


--------------------------------------------------------------------------------------------------------




--------------------------------------- Iteration      1(  11)  ---------------------------------------


    POTLOK:  cpu time      0.4541: real time      0.4541
    SETDIJ:  cpu time      0.5389: real time      0.5389
    TRIAL :  cpu time      7.3222: real time      7.3266
    CORREC:  cpu time      8.0357: real time      8.0394
    CHARGE:  cpu time      0.1146: real time      0.1146
    --------------------------------------------
      LOOP:  cpu time     16.4725: real time     16.4810

 eigenvalue-minimisations  :     0
 total energy-change (2. order) :-0.5841421E-01  (-0.1018881E-01)
 number of electron      44.0000023 magnetization 
 augmentation part       28.7357754 magnetization 

 Free energy of the ion-electron system (eV)
  ---------------------------------------------------
  alpha Z        PSCENC =         1.18414354
  Ewald energy   TEWEN  =      2026.83575057
  -Hartree energ DENC   =     -7148.63147181
  -exchange      EXHF   =       117.01887358
  -V(xc)+E(xc)   XCENC  =       133.86289717
  PAW double counting   =      5294.97888402    -5688.99935552
  entropy T*S    EENTRO =        -0.00000000
  eigenvalues    EBANDS =      -297.57516733
  atomic energy  EATOM  =      5554.08010885
  ---------------------------------------------------
  free energy    TOTEN  =        -7.24533693 eV

  energy without entropy =       -7.24533693  energy(sigma->0) =       -7.24533693
  exchange ACFDT corr.  =        -0.00000000  see jH, gK, PRB 81, 115126


--------------------------------------------------------------------------------------------------------




--------------------------------------- Iteration      1(  12)  ---------------------------------------


    POTLOK:  cpu time      0.4626: real time      0.4626
    SETDIJ:  cpu time      0.5289: real time      0.5289
    TRIAL :  cpu time      7.5801: real time      7.5846
    CORREC:  cpu time      7.9841: real time      7.9876
    CHARGE:  cpu time      0.1138: real time      0.1138
    --------------------------------------------
      LOOP:  cpu time     16.6762: real time     16.6845

 eigenvalue-minimisations  :     0
 total energy-change (2. order) :-0.1015655E-01  (-0.8333626E-02)
 number of electron      44.0000023 magnetization 
 augmentation part       28.7249937 magnetization 

 Free energy of the ion-electron system (eV)
  ---------------------------------------------------
  alpha Z        PSCENC =         1.18414354
  Ewald energy   TEWEN  =      2026.83575057
  -Hartree energ DENC   =     -7152.85231560
  -exchange      EXHF   =       117.12774857
  -V(xc)+E(xc)   XCENC  =       134.00588658
  PAW double counting   =      5297.66113433    -5693.05228646
  entropy T*S    EENTRO =        -0.00000000
  eigenvalues    EBANDS =      -292.24566385
  atomic energy  EATOM  =      5554.08010885
  ---------------------------------------------------
  free energy    TOTEN  =        -7.25549348 eV

  energy without entropy =       -7.25549348  energy(sigma->0) =       -7.25549348
  exchange ACFDT corr.  =        -0.00000000  see jH, gK, PRB 81, 115126


--------------------------------------------------------------------------------------------------------




--------------------------------------- Iteration      1(  13)  ---------------------------------------


    POTLOK:  cpu time      0.4388: real time      0.4388
    SETDIJ:  cpu time      0.5383: real time      0.5383
    TRIAL :  cpu time      7.6270: real time      7.6313
    CORREC:  cpu time      8.0169: real time      8.0198
    CHARGE:  cpu time      0.1141: real time      0.1141
    --------------------------------------------
      LOOP:  cpu time     16.7417: real time     16.7492

 eigenvalue-minimisations  :     0
 total energy-change (2. order) :-0.8335892E-02  (-0.3058718E-02)
 number of electron      44.0000023 magnetization 
 augmentation part       28.7126118 magnetization 

 Free energy of the ion-electron system (eV)
  ---------------------------------------------------
  alpha Z        PSCENC =         1.18414354
  Ewald energy   TEWEN  =      2026.83575057
  -Hartree energ DENC   =     -7150.00606046
  -exchange      EXHF   =       117.07267045
  -V(xc)+E(xc)   XCENC  =       133.94126733
  PAW double counting   =      5296.21927479    -5691.17007216
  entropy T*S    EENTRO =        -0.00000000
  eigenvalues    EBANDS =      -295.42091229
  atomic energy  EATOM  =      5554.08010885
  ---------------------------------------------------
  free energy    TOTEN  =        -7.26382937 eV

  energy without entropy =       -7.26382937  energy(sigma->0) =       -7.26382937
  exchange ACFDT corr.  =        -0.00000000  see jH, gK, PRB 81, 115126


--------------------------------------------------------------------------------------------------------




--------------------------------------- Iteration      1(  14)  ---------------------------------------


    POTLOK:  cpu time      0.3742: real time      0.3742
    SETDIJ:  cpu time      0.5378: real time      0.5379
    TRIAL :  cpu time      7.3723: real time      7.3768
    CORREC:  cpu time      7.9890: real time      7.9924
    CHARGE:  cpu time      0.1141: real time      0.1141
    --------------------------------------------
      LOOP:  cpu time     16.3946: real time     16.4028

 eigenvalue-minimisations  :     0
 total energy-change (2. order) :-0.3057829E-02  (-0.9069735E-03)
 number of electron      44.0000023 magnetization 
 augmentation part       28.7256652 magnetization 

 Free energy of the ion-electron system (eV)
  ---------------------------------------------------
  alpha Z        PSCENC =         1.18414354
  Ewald energy   TEWEN  =      2026.83575057
  -Hartree energ DENC   =     -7147.22489512
  -exchange      EXHF   =       117.01386235
  -V(xc)+E(xc)   XCENC  =       133.87207397
  PAW double counting   =      5294.06652879    -5688.54368650
  entropy T*S    EENTRO =        -0.00000000
  eigenvalues    EBANDS =      -298.55077364
  atomic energy  EATOM  =      5554.08010885
  ---------------------------------------------------
  free energy    TOTEN  =        -7.26688720 eV

  energy without entropy =       -7.26688720  energy(sigma->0) =       -7.26688720
  exchange ACFDT corr.  =        -0.00000000  see jH, gK, PRB 81, 115126


--------------------------------------------------------------------------------------------------------




--------------------------------------- Iteration      1(  15)  ---------------------------------------


    POTLOK:  cpu time      0.3555: real time      0.3555
    SETDIJ:  cpu time      0.5347: real time      0.5347
    TRIAL :  cpu time      7.3296: real time      7.3344
    CORREC:  cpu time      7.8898: real time      7.8935
    CHARGE:  cpu time      0.1144: real time      0.1144
    --------------------------------------------
      LOOP:  cpu time     16.2305: real time     16.2393

 eigenvalue-minimisations  :     0
 total energy-change (2. order) :-0.9045590E-03  (-0.7617840E-03)
 number of electron      44.0000023 magnetization 
 augmentation part       28.7255319 magnetization 

 Free energy of the ion-electron system (eV)
  ---------------------------------------------------
  alpha Z        PSCENC =         1.18414354
  Ewald energy   TEWEN  =      2026.83575057
  -Hartree energ DENC   =     -7148.69505947
  -exchange      EXHF   =       117.05001748
  -V(xc)+E(xc)   XCENC  =       133.92037936
  PAW double counting   =      5294.67812764    -5689.64762764
  entropy T*S    EENTRO =        -0.00000000
  eigenvalues    EBANDS =      -296.67363209
  atomic energy  EATOM  =      5554.08010885
  ---------------------------------------------------
  free energy    TOTEN  =        -7.26779176 eV

  energy without entropy =       -7.26779176  energy(sigma->0) =       -7.26779176
  exchange ACFDT corr.  =        -0.00000000  see jH, gK, PRB 81, 115126


--------------------------------------------------------------------------------------------------------




--------------------------------------- Iteration      1(  16)  ---------------------------------------


    POTLOK:  cpu time      0.2989: real time      0.2989
    SETDIJ:  cpu time      0.5383: real time      0.5384
    TRIAL :  cpu time      7.5175: real time      7.5217
    CORREC:  cpu time      7.8680: real time      7.8711
    CHARGE:  cpu time      0.1147: real time      0.1147
    --------------------------------------------
      LOOP:  cpu time     16.3439: real time     16.3517

 eigenvalue-minimisations  :     0
 total energy-change (2. order) :-0.7621063E-03  (-0.1343779E-03)
 number of electron      44.0000023 magnetization 
 augmentation part       28.7203812 magnetization 

 Free energy of the ion-electron system (eV)
  ---------------------------------------------------
  alpha Z        PSCENC =         1.18414354
  Ewald energy   TEWEN  =      2026.83575057
  -Hartree energ DENC   =     -7148.85315348
  -exchange      EXHF   =       117.05000798
  -V(xc)+E(xc)   XCENC  =       133.92118923
  PAW double counting   =      5294.45235927    -5689.42545892
  entropy T*S    EENTRO =        -0.00000000
  eigenvalues    EBANDS =      -296.51350091
  atomic energy  EATOM  =      5554.08010885
  ---------------------------------------------------
  free energy    TOTEN  =        -7.26855386 eV

  energy without entropy =       -7.26855386  energy(sigma->0) =       -7.26855386
  exchange ACFDT corr.  =        -0.00000000  see jH, gK, PRB 81, 115126


--------------------------------------------------------------------------------------------------------




--------------------------------------- Iteration      1(  17)  ---------------------------------------


    POTLOK:  cpu time      0.2883: real time      0.2884
    SETDIJ:  cpu time      0.5348: real time      0.5349
    TRIAL :  cpu time      7.5510: real time      7.5554
    CORREC:  cpu time      7.7276: real time      7.7312
    CHARGE:  cpu time      0.1143: real time      0.1143
    --------------------------------------------
      LOOP:  cpu time     16.2225: real time     16.2309

 eigenvalue-minimisations  :     0
 total energy-change (2. order) :-0.1347171E-03  (-0.1222190E-03)
 number of electron      44.0000023 magnetization 
 augmentation part       28.7228575 magnetization 

 Free energy of the ion-electron system (eV)
  ---------------------------------------------------
  alpha Z        PSCENC =         1.18414354
  Ewald energy   TEWEN  =      2026.83575057
  -Hartree energ DENC   =     -7148.20901327
  -exchange      EXHF   =       117.03436715
  -V(xc)+E(xc)   XCENC  =       133.90109265
  PAW double counting   =      5293.99360331    -5688.77512618
  entropy T*S    EENTRO =        -0.00000000
  eigenvalues    EBANDS =      -297.31361520
  atomic energy  EATOM  =      5554.08010885
  ---------------------------------------------------
  free energy    TOTEN  =        -7.26868858 eV

  energy without entropy =       -7.26868858  energy(sigma->0) =       -7.26868858
  exchange ACFDT corr.  =        -0.00000000  see jH, gK, PRB 81, 115126


--------------------------------------------------------------------------------------------------------




--------------------------------------- Iteration      1(  18)  ---------------------------------------


    POTLOK:  cpu time      0.2802: real time      0.2802
    SETDIJ:  cpu time      0.5352: real time      0.5352
    TRIAL :  cpu time      7.5647: real time      7.5695
    CORREC:  cpu time      7.8787: real time      7.8815
    CHARGE:  cpu time      0.1134: real time      0.1142
    --------------------------------------------
      LOOP:  cpu time     16.3786: real time     16.3875

 eigenvalue-minimisations  :     0
 total energy-change (2. order) :-0.1221561E-03  (-0.4582399E-04)
 number of electron      44.0000023 magnetization 
 augmentation part       28.7238036 magnetization 

 Free energy of the ion-electron system (eV)
  ---------------------------------------------------
  alpha Z        PSCENC =         1.18414354
  Ewald energy   TEWEN  =      2026.83575057
  -Hartree energ DENC   =     -7148.59921752
  -exchange      EXHF   =       117.04352564
  -V(xc)+E(xc)   XCENC  =       133.91267321
  PAW double counting   =      5294.12677410    -5689.00907652
  entropy T*S    EENTRO =        -0.00000000
  eigenvalues    EBANDS =      -296.84349262
  atomic energy  EATOM  =      5554.08010885
  ---------------------------------------------------
  free energy    TOTEN  =        -7.26881074 eV

  energy without entropy =       -7.26881074  energy(sigma->0) =       -7.26881074
  exchange ACFDT corr.  =        -0.00000000  see jH, gK, PRB 81, 115126


--------------------------------------------------------------------------------------------------------




--------------------------------------- Iteration      1(  19)  ---------------------------------------


    POTLOK:  cpu time      0.2781: real time      0.2781
    SETDIJ:  cpu time      0.5348: real time      0.5349
    TRIAL :  cpu time      7.3431: real time      7.3475
    CORREC:  cpu time      7.8859: real time      7.8888
    CHARGE:  cpu time      0.1147: real time      0.1147
    --------------------------------------------
      LOOP:  cpu time     16.1637: real time     16.1714

 eigenvalue-minimisations  :     0
 total energy-change (2. order) :-0.4576259E-04  (-0.1529739E-04)
 number of electron      44.0000023 magnetization 
 augmentation part       28.7223148 magnetization 

 Free energy of the ion-electron system (eV)
  ---------------------------------------------------
  alpha Z        PSCENC =         1.18414354
  Ewald energy   TEWEN  =      2026.83575057
  -Hartree energ DENC   =     -7148.77110243
  -exchange      EXHF   =       117.04669947
  -V(xc)+E(xc)   XCENC  =       133.91711438
  PAW double counting   =      5294.11936991    -5689.05206764
  entropy T*S    EENTRO =        -0.00000000
  eigenvalues    EBANDS =      -296.62887316
  atomic energy  EATOM  =      5554.08010885
  ---------------------------------------------------
  free energy    TOTEN  =        -7.26885650 eV

  energy without entropy =       -7.26885650  energy(sigma->0) =       -7.26885650
  exchange ACFDT corr.  =        -0.00000000  see jH, gK, PRB 81, 115126


--------------------------------------------------------------------------------------------------------




--------------------------------------- Iteration      1(  20)  ---------------------------------------


    POTLOK:  cpu time      0.2792: real time      0.2792
    SETDIJ:  cpu time      0.5322: real time      0.5322
    TRIAL :  cpu time      7.4108: real time      7.4151
    CORREC:  cpu time      7.8357: real time      7.8389
    CHARGE:  cpu time      0.1151: real time      0.1151
    --------------------------------------------
      LOOP:  cpu time     16.1801: real time     16.1878

 eigenvalue-minimisations  :     0
 total energy-change (2. order) :-0.1550477E-04  (-0.1448202E-04)
 number of electron      44.0000023 magnetization 
 augmentation part       28.7223098 magnetization 

 Free energy of the ion-electron system (eV)
  ---------------------------------------------------
  alpha Z        PSCENC =         1.18414354
  Ewald energy   TEWEN  =      2026.83575057
  -Hartree energ DENC   =     -7148.59057284
  -exchange      EXHF   =       117.04203989
  -V(xc)+E(xc)   XCENC  =       133.91131693
  PAW double counting   =      5293.97739056    -5688.86045168
  entropy T*S    EENTRO =        -0.00000000
  eigenvalues    EBANDS =      -296.84859782
  atomic energy  EATOM  =      5554.08010885
  ---------------------------------------------------
  free energy    TOTEN  =        -7.26887200 eV

  energy without entropy =       -7.26887200  energy(sigma->0) =       -7.26887200
  exchange ACFDT corr.  =        -0.00000000  see jH, gK, PRB 81, 115126


--------------------------------------------------------------------------------------------------------




--------------------------------------- Iteration      1(  21)  ---------------------------------------


    POTLOK:  cpu time      0.2766: real time      0.2766
    SETDIJ:  cpu time      0.5354: real time      0.5354
    TRIAL :  cpu time      7.6116: real time      7.6162
    CORREC:  cpu time      7.8469: real time      7.8497
    CHARGE:  cpu time      0.1147: real time      0.1147
    --------------------------------------------
      LOOP:  cpu time     16.3884: real time     16.4000

 eigenvalue-minimisations  :     0
 total energy-change (2. order) :-0.1440202E-04  (-0.3598114E-05)
 number of electron      44.0000023 magnetization 
 augmentation part       28.7227339 magnetization 

 Free energy of the ion-electron system (eV)
  ---------------------------------------------------
  alpha Z        PSCENC =         1.18414354
  Ewald energy   TEWEN  =      2026.83575057
  -Hartree energ DENC   =     -7148.62955493
  -exchange      EXHF   =       117.04227496
  -V(xc)+E(xc)   XCENC  =       133.91168909
  PAW double counting   =      5293.97577565    -5688.86520346
  entropy T*S    EENTRO =        -0.00000000
  eigenvalues    EBANDS =      -296.80387067
  atomic energy  EATOM  =      5554.08010885
  ---------------------------------------------------
  free energy    TOTEN  =        -7.26888641 eV

  energy without entropy =       -7.26888641  energy(sigma->0) =       -7.26888641
  exchange ACFDT corr.  =        -0.00000000  see jH, gK, PRB 81, 115126


--------------------------------------------------------------------------------------------------------




--------------------------------------- Iteration      1(  22)  ---------------------------------------


    POTLOK:  cpu time      0.2759: real time      0.2759
    SETDIJ:  cpu time      0.5330: real time      0.5330
    TRIAL :  cpu time      7.5012: real time      7.5057
    CORREC:  cpu time      7.8726: real time      7.8762
    CHARGE:  cpu time      0.1142: real time      0.1142
    --------------------------------------------
      LOOP:  cpu time     16.3039: real time     16.3122

 eigenvalue-minimisations  :     0
 total energy-change (2. order) :-0.3593676E-05  (-0.3715505E-05)
 number of electron      44.0000023 magnetization 
 augmentation part       28.7224839 magnetization 

 Free energy of the ion-electron system (eV)
  ---------------------------------------------------
  alpha Z        PSCENC =         1.18414354
  Ewald energy   TEWEN  =      2026.83575057
  -Hartree energ DENC   =     -7148.70433101
  -exchange      EXHF   =       117.04380613
  -V(xc)+E(xc)   XCENC  =       133.91357613
  PAW double counting   =      5294.03280942    -5688.93911746
  entropy T*S    EENTRO =        -0.00000000
  eigenvalues    EBANDS =      -296.71563617
  atomic energy  EATOM  =      5554.08010885
  ---------------------------------------------------
  free energy    TOTEN  =        -7.26889000 eV

  energy without entropy =       -7.26889000  energy(sigma->0) =       -7.26889000
  exchange ACFDT corr.  =        -0.00000000  see jH, gK, PRB 81, 115126


--------------------------------------------------------------------------------------------------------




--------------------------------------- Iteration      1(  23)  ---------------------------------------


    POTLOK:  cpu time      0.2756: real time      0.2756
    SETDIJ:  cpu time      0.5336: real time      0.5336
    TRIAL :  cpu time      7.6424: real time      7.6470
    CORREC:  cpu time      7.8653: real time      7.8684
    CHARGE:  cpu time      0.1146: real time      0.1146
    --------------------------------------------
      LOOP:  cpu time     16.4381: real time     16.4462

 eigenvalue-minimisations  :     0
 total energy-change (2. order) :-0.3732084E-05  (-0.1546116E-05)
 number of electron      44.0000023 magnetization 
 augmentation part       28.7221869 magnetization 

 Free energy of the ion-electron system (eV)
  ---------------------------------------------------
  alpha Z        PSCENC =         1.18414354
  Ewald energy   TEWEN  =      2026.83575057
  -Hartree energ DENC   =     -7148.68904183
  -exchange      EXHF   =       117.04331549
  -V(xc)+E(xc)   XCENC  =       133.91281429
  PAW double counting   =      5294.06152749    -5688.95897588
  entropy T*S    EENTRO =        -0.00000000
  eigenvalues    EBANDS =      -296.73853625
  atomic energy  EATOM  =      5554.08010885
  ---------------------------------------------------
  free energy    TOTEN  =        -7.26889373 eV

  energy without entropy =       -7.26889373  energy(sigma->0) =       -7.26889373
  exchange ACFDT corr.  =        -0.00000000  see jH, gK, PRB 81, 115126


--------------------------------------------------------------------------------------------------------




--------------------------------------- Iteration      1(  24)  ---------------------------------------


    POTLOK:  cpu time      0.2737: real time      0.2737
    SETDIJ:  cpu time      0.5357: real time      0.5357
    TRIAL :  cpu time      7.6270: real time      7.6316
    CORREC:  cpu time      7.8766: real time      7.8795
    CHARGE:  cpu time      0.1148: real time      0.1148
    --------------------------------------------
      LOOP:  cpu time     16.4344: real time     16.4422

 eigenvalue-minimisations  :     0
 total energy-change (2. order) :-0.1534469E-05  (-0.6722626E-06)
 number of electron      44.0000023 magnetization 
 augmentation part       28.7224667 magnetization 

 Free energy of the ion-electron system (eV)
  ---------------------------------------------------
  alpha Z        PSCENC =         1.18414354
  Ewald energy   TEWEN  =      2026.83575057
  -Hartree energ DENC   =     -7148.65349953
  -exchange      EXHF   =       117.04248409
  -V(xc)+E(xc)   XCENC  =       133.91168941
  PAW double counting   =      5294.07138835    -5688.95775487
  entropy T*S    EENTRO =        -0.00000000
  eigenvalues    EBANDS =      -296.78320568
  atomic energy  EATOM  =      5554.08010885
  ---------------------------------------------------
  free energy    TOTEN  =        -7.26889527 eV

  energy without entropy =       -7.26889527  energy(sigma->0) =       -7.26889527
  exchange ACFDT corr.  =        -0.00000000  see jH, gK, PRB 81, 115126


--------------------------------------------------------------------------------------------------------




--------------------------------------- Iteration      1(  25)  ---------------------------------------


    POTLOK:  cpu time      0.2747: real time      0.2747
    SETDIJ:  cpu time      0.5351: real time      0.5351
    TRIAL :  cpu time      7.3822: real time      7.3867
    CORREC:  cpu time      7.8449: real time      7.8485
    EDDIAG:  cpu time      6.9542: real time      6.9576
    CHARGE:  cpu time      0.1138: real time      0.1138
    --------------------------------------------
      LOOP:  cpu time     23.1116: real time     23.1232

 eigenvalue-minimisations  :     0
 total energy-change (2. order) :-0.6569553E-06  (-0.4793241E-06)
 number of electron      44.0000023 magnetization 
 augmentation part       28.7225077 magnetization 

 Free energy of the ion-electron system (eV)
  ---------------------------------------------------
  alpha Z        PSCENC =         1.18414354
  Ewald energy   TEWEN  =      2026.83575057
  -Hartree energ DENC   =     -7148.69191146
  -exchange      EXHF   =       117.04353722
  -V(xc)+E(xc)   XCENC  =       133.91286295
  PAW double counting   =      5294.10949292    -5689.00653937
  entropy T*S    EENTRO =        -0.00000000
  eigenvalues    EBANDS =      -296.73622570
  atomic energy  EATOM  =      5554.08010885
  ---------------------------------------------------
  free energy    TOTEN  =        -7.26889592 eV

  energy without entropy =       -7.26889592  energy(sigma->0) =       -7.26889592
  exchange ACFDT corr.  =        -0.00000000  see jH, gK, PRB 81, 115126


--------------------------------------------------------------------------------------------------------


  average scaling for gradient   0.9459


 average (electrostatic) potential at core
  the test charge radii are     0.9430
  (the norm of the test charge is              1.0000)
       1 -65.0945       2 -66.0006       3 -66.1636       4 -66.3565



 E-fermi :  -4.3640     XC(G=0):  -0.1929     alpha+bet : -0.0642

 Fermi energy:        -4.3640225187

 k-point     1 :       0.0000    0.0000    0.0000
  band No.  band energies     occupation 
      1      -8.5722      2.00000
      2      -7.9313      2.00000
      3      -7.7846      2.00000
      4      -7.7371      2.00000
      5      -7.5605      2.00000
      6      -7.3845      2.00000
      7      -7.2261      2.00000
      8      -6.9435      2.00000
      9      -6.8433      2.00000
     10      -6.8260      2.00000
     11      -6.7503      2.00000
     12      -6.7063      2.00000
     13      -6.6972      2.00000
     14      -6.6267      2.00000
     15      -6.5892      2.00000
     16      -6.4324      2.00000
     17      -5.9141      2.00000
     18      -5.9113      2.00000
     19      -5.8108      2.00000
     20      -5.8094      2.00000
     21      -5.6921      2.00000
     22      -4.6176      2.00000
     23      -3.0121      0.00000
     24      -1.9756      0.00000
     25      -1.4654      0.00000
     26      -0.6278      0.00000
     27      -0.4744      0.00000
     28      -0.1635      0.00000
     29       0.0133      0.00000
     30       0.0729      0.00000
     31       0.2772      0.00000
     32       0.3303      0.00000
     33       0.3511      0.00000
     34       0.3590      0.00000
     35       0.4263      0.00000
     36       0.4504      0.00000
     37       0.4626      0.00000
     38       0.5748      0.00000
     39       0.6452      0.00000
     40       0.6528      0.00000
     41       0.6598      0.00000
     42       0.6625      0.00000
     43       0.6814      0.00000
     44       0.6889      0.00000
     45       0.7099      0.00000
     46       0.7662      0.00000
     47       0.7931      0.00000
     48       0.8204      0.00000
     49       0.8339      0.00000
     50       0.9374      0.00000
     51       0.9523      0.00000
     52       0.9797      0.00000
     53       0.9972      0.00000
     54       1.0273      0.00000
     55       1.0466      0.00000
     56       1.0806      0.00000
     57       1.1687      0.00000
     58       1.1852      0.00000
     59       1.2578      0.00000
     60       1.2637      0.00000
     61       1.2993      0.00000
     62       1.3245      0.00000
     63       1.3874      0.00000
     64       1.4648      0.00000


--------------------------------------------------------------------------------------------------------


 soft charge-density along one line, spin component           1
         0         1         2         3         4         5         6         7         8         9
 total charge-density along one line

 pseudopotential strength for first ion, spin component:           1
 -6.307  -0.000   0.000  -0.029   0.000  -2.436   0.000  -0.000
 -0.000  -6.343  -0.018  -0.000   0.032   0.000  -2.411   0.013
  0.000  -0.018  -6.318  -0.000  -0.026  -0.000   0.013  -2.428
 -0.029  -0.000  -0.000  -6.292  -0.000   0.021   0.000   0.000
  0.000   0.032  -0.026  -0.000  -6.309  -0.000  -0.022   0.019
 -2.436   0.000  -0.000   0.021  -0.000   8.873  -0.000   0.000
  0.000  -2.411   0.013   0.000  -0.022  -0.000   8.858  -0.008
 -0.000   0.013  -2.428   0.000   0.019   0.000  -0.008   8.867
  0.021   0.000   0.000  -2.446   0.000  -0.014  -0.000  -0.000
 -0.000  -0.022   0.019   0.000  -2.435   0.000   0.014  -0.013
  0.000   0.013   0.002   0.000  -0.010  -0.000  -0.003  -0.000
  0.000   0.024   0.004   0.000  -0.018  -0.000  -0.004  -0.001
 -0.000  -0.018   0.011  -0.000   0.021   0.000   0.006  -0.003
 -0.000  -0.022  -0.019  -0.000   0.001   0.000   0.007   0.005
 -0.020  -0.000   0.000  -0.016  -0.000   0.006   0.000  -0.000
 -0.000  -0.019   0.011  -0.000   0.022   0.000   0.003   0.000
 -0.000  -0.024  -0.019  -0.000   0.002   0.000   0.003   0.001
 -0.020  -0.000   0.000  -0.016  -0.000   0.001   0.000  -0.000
 total augmentation occupancy for first ion, spin component:           1
  1.991  -0.000   0.000  -0.003  -0.000  -0.010   0.000  -0.000   0.006  -0.000  -0.000  -0.000   0.000   0.000   0.043  -0.000
 -0.000   1.987  -0.005  -0.000   0.000   0.000   0.005   0.006   0.000  -0.011  -0.037  -0.011   0.066   0.076   0.000  -0.026
  0.000  -0.005   1.987  -0.000  -0.005  -0.000   0.006  -0.008   0.000   0.004  -0.005  -0.002  -0.019   0.046  -0.000   0.019
 -0.003  -0.000  -0.000   1.993  -0.000   0.006   0.000   0.000  -0.013   0.000  -0.000  -0.000   0.000   0.000   0.033  -0.000
 -0.000   0.000  -0.005  -0.000   1.989  -0.000  -0.011   0.004   0.000  -0.007   0.034   0.006  -0.063  -0.015   0.000   0.033
 -0.010   0.000  -0.000   0.006  -0.000   0.002   0.000  -0.000   0.001  -0.000   0.000  -0.000   0.000   0.000   0.003  -0.000
  0.000   0.005   0.006   0.000  -0.011   0.000   0.005   0.001   0.000  -0.003   0.074  -0.010   0.013   0.011   0.000  -0.002
 -0.000   0.006  -0.008   0.000   0.004  -0.000   0.001   0.002   0.000   0.001   0.011  -0.001  -0.001   0.004  -0.000   0.000
  0.006   0.000   0.000  -0.013   0.000   0.001   0.000   0.000   0.001  -0.000   0.000  -0.000   0.000   0.000   0.003  -0.000
 -0.000  -0.011   0.004   0.000  -0.007  -0.000  -0.003   0.001  -0.000   0.003  -0.048   0.007  -0.011  -0.005  -0.000   0.001
 -0.000  -0.037  -0.005  -0.000   0.034   0.000   0.074   0.011   0.000  -0.048   2.099  -0.247   0.230   0.182   0.001  -0.026
 -0.000  -0.011  -0.002  -0.000   0.006  -0.000  -0.010  -0.001  -0.000   0.007  -0.247   0.030  -0.031  -0.023  -0.000   0.004
  0.000   0.066  -0.019   0.000  -0.063   0.000   0.013  -0.001   0.000  -0.011   0.230  -0.031   0.046   0.026   0.000  -0.007
  0.000   0.076   0.046   0.000  -0.015   0.000   0.011   0.004   0.000  -0.005   0.182  -0.023   0.026   0.030   0.000  -0.004
  0.043   0.000  -0.000   0.033   0.000   0.003   0.000  -0.000   0.003  -0.000   0.001  -0.000   0.000   0.000   0.009  -0.000
 -0.000  -0.026   0.019  -0.000   0.033  -0.000  -0.002   0.000  -0.000   0.001  -0.026   0.004  -0.007  -0.004  -0.000   0.002
 -0.000  -0.033  -0.030  -0.000   0.000  -0.000  -0.001  -0.000  -0.000   0.001  -0.020   0.003  -0.004  -0.005  -0.000   0.000
 -0.032  -0.000   0.000  -0.026  -0.000  -0.000  -0.000  -0.000  -0.000   0.000  -0.000   0.000  -0.000  -0.000  -0.002   0.000


------------------------ aborting loop because EDIFF is reached ----------------------------------------


    FORLOC:  cpu time      0.0041: real time      0.0041
    FORHF :  cpu time      2.4130: real time      2.4140
    FORNL :  cpu time      0.1248: real time      0.1248
    FORCOR:  cpu time      0.7724: real time      0.7725
    OFIELD:  cpu time      0.0006: real time      0.0006

 VOLUME and BASIS-vectors are now :
 -----------------------------------------------------------------------------
  energy-cutoff  :      520.00
  volume of cell :     9881.61
      direct lattice vectors                 reciprocal lattice vectors
    21.138852197  0.000000000  0.000000000     0.047306258  0.000000000  0.000000000
     0.000000000 21.138852197  0.000000000     0.000000000  0.047306258  0.000000000
     0.000000000  0.000000000 22.113885220     0.000000000  0.000000000  0.045220457

  length of vectors
    21.138852197 21.138852197 22.113885220     0.047306258  0.047306258  0.045220457


 FORCES acting on ions:
    Electron-Ion                     Ewald-Force                    Non-Local-Force
 -----------------------------------------------------------------------------------------------
   0.153E+01 0.469E+03 0.251E+03   -.148E+01 -.459E+03 -.244E+03   -.471E-01 -.943E+01 -.754E+01
   -.173E+01 0.261E+03 -.311E+03   0.168E+01 -.262E+03 0.302E+03   0.445E-01 0.868E+00 0.880E+01
   -.277E+01 -.420E+03 -.476E+03   0.271E+01 0.414E+03 0.464E+03   0.733E-01 0.613E+01 0.115E+02
   0.299E+01 -.310E+03 0.538E+03   -.290E+01 0.308E+03 -.523E+03   -.803E-01 0.212E+01 -.147E+02
 -----------------------------------------------------------------------------------------------
   0.126E-01 0.396E+00 0.216E+01   0.000E+00 -.568E-13 -.284E-13   -.946E-02 -.307E+00 -.197E+01


 POSITION                                       TOTAL-FORCE (eV/Angst)
 -----------------------------------------------------------------------------------
      8.46039      8.90641     13.11119        -0.000287     -0.018292     -0.050864
      8.46878     10.69052     14.51992        -0.001532      0.046847     -0.226019
      8.47353     12.97033     15.28534         0.001648      0.285431      0.234439
      8.46080     12.56080     13.05418         0.000171     -0.313986      0.042445
 -----------------------------------------------------------------------------------
    total drift:                               -0.001865      0.001734     -0.002363


--------------------------------------------------------------------------------------------------------



  FREE ENERGIE OF THE ION-ELECTRON SYSTEM (eV)
  ---------------------------------------------------
  free  energy   TOTEN  =        -7.26889592 eV

  energy  without entropy=       -7.26889592  energy(sigma->0) =       -7.26889592



--------------------------------------------------------------------------------------------------------


    POTLOK:  cpu time      0.8097: real time      0.8098


--------------------------------------------------------------------------------------------------------


     LOOP+:  cpu time    350.6979: real time    351.0530
    4ORBIT:  cpu time      0.0000: real time      0.0000

 total amount of memory used by VASP MPI-rank0  1219270. kBytes
=======================================================================

   base      :      30000. kBytes
   nonlr-proj:       2200. kBytes
   fftplans  :      65038. kBytes
   grid      :      53473. kBytes
   one-center:         15. kBytes
   HF        :         64. kBytes
   wavefun   :       3192. kBytes
   fock_wrk  :    1065288. kBytes

  
  
 General timing and accounting informations for this job:
 ========================================================
  
                  Total CPU time used (sec):      373.511
                            User time (sec):      352.253
                          System time (sec):       21.257
                         Elapsed time (sec):      376.435
  
                   Maximum memory used (kb):     1766544.
                   Average memory used (kb):          N/A
  
                          Minor page faults:      2095451
                          Major page faults:           53
                 Voluntary context switches:        13440
