 vasp.6.3.0 20Jan22 (build Apr  1 2022 16:44:48) complex                         
 executed on        HPECrayEX_GCC date 2023.01.09  19:12:19
 running  768 mpi-ranks, with    1 threads/rank
 distrk:  each k-point on  384 cores,    2 groups
 distr:  one band on NCORE=   4 cores,   96 groups


--------------------------------------------------------------------------------------------------------


 INCAR:
   SYSTEM = MgO-rocksalt
   ISMEAR = 0
   SIGMA = 0.05
   EDIFF = 1E-6
   ALGO = ALL
   ISTART = 0
   IBRION = -1
   NSW = 0
   ISYM = 2
   DIPOL = 0.5 0.5 0.5
   IDIPOL = 3
   LDIPOL = .TRUE.
   GGA = MK
   LUSE_VDW = .TRUE.
   PARAM1 = 0.1234
   PARAM2 = 0.711357
   ZAB_VDW = -1.8867
   AGGAC = 0.0
   ENCUT = 520
   PREC = Accurate
   LASPH = .TRUE.
   LREAL = Auto
   ISPIN = 1
   NELM = 200
   NELMIN = 8
   NCORE = 4
   KPAR = 2
   LWAVE = .FALSE.
   LCHARG = .FALSE.

 POTCAR:    PAW_PBE Au 04Oct2007                  
 POTCAR:    PAW_PBE Mg_pv 13Apr2007               
 POTCAR:    PAW_PBE O 08Apr2002                   
 -----------------------------------------------------------------------------
|                                                                             |
|               ----> ADVICE to this user running VASP <----                  |
|                                                                             |
|     You have switched on vdW-DFT.                                           |
|     This routine was written and supplied by Jiri Klimes. We recommend      |
|     that you carefully read and cite the following publications:            |
|       J. Klimes, D.R. Bowler, A. Michelides                                 |
|          J. Phys.: Cond Matt. 22 022201 (2010)                              |
|       J. Klimes, D.R. Bowler, A. Michelides                                 |
|          Phys. Rev. B. 83, 195131 (2011)                                    |
|     and references therein.                                                 |
|                                                                             |
 -----------------------------------------------------------------------------

 POTCAR:    PAW_PBE Au 04Oct2007                  
   SHA256 =  d0044ae04e2bdce24051b198fc5c053d722a5bc6fe3c3b100514a13fc5d2db88 Au/POTCAR             
   COPYR  = (c) Copyright 04Oct2007 Georg Kresse                                                    
   COPYR  = This file is part of the software VASP. Any use, copying, and all other rights are regul
   COPYR  = If you do not have a valid VASP license, you may not use, copy or distribute this file. 
   VRHFIN =Au: s1d10                                                                                
   LEXCH  = PE                                                                                      
   EATOM  =   926.0867 eV,   68.0654 Ry                                                             
                                                                                                    
   TITEL  = PAW_PBE Au 04Oct2007                                                                    
   LULTRA =        F    use ultrasoft PP ?                                                          
   IUNSCR =        1    unscreen: 0-lin 1-nonlin 2-no                                               
   RPACOR =    2.330    partial core radius                                                         
   POMASS =  196.966; ZVAL   =   11.000    mass and valenz                                          
   RCORE  =    2.500    outmost cutoff radius                                                       
   RWIGS  =    2.840; RWIGS  =    1.503    wigner-seitz radius (au A)                               
   ENMAX  =  229.943; ENMIN  =  172.457 eV                                                          
   ICORE  =        3    local potential                                                             
   LCOR   =        T    correct aug charges                                                         
   LPAW   =        T    paw PP                                                                      
   EAUG   =  356.670                                                                                
   DEXC   =    0.000                                                                                
   RMAX   =    2.562    core radius for proj-oper                                                   
   RAUG   =    1.300    factor for augmentation sphere                                              
   RDEP   =    2.598    radius for radial grids                                                     
   RDEPT  =    2.193    core radius for aug-charge                                                  
                                                                                                    
   Atomic configuration                                                                             
   16 entries                                                                                       
     n  l   j            E        occ.                                                              
     1  0  0.50    -80748.5001   2.0000                                                             
     2  0  0.50    -14244.7466   2.0000                                                             
     2  1  1.50    -12310.9591   6.0000                                                             
     3  0  0.50     -3362.1768   2.0000                                                             
     3  1  1.50     -2801.5463   6.0000                                                             
     3  2  2.50     -2203.8206  10.0000                                                             
     4  0  0.50      -729.8168   2.0000                                                             
     4  1  1.50      -546.0527   6.0000                                                             
     4  2  2.50      -325.7302  10.0000                                                             
     4  3  3.50       -81.1472  14.0000                                                             
     5  0  0.50      -108.3201   2.0000                                                             
     5  1  1.50       -59.7479   6.0000                                                             
     5  2  2.50        -6.8783  10.0000                                                             
     6  0  0.50        -5.7602   1.0000                                                             
     6  1  1.50        -6.8029   0.0000                                                             
     5  3  2.50        -1.3606   0.0000                                                             
   Description                                                                                      
     l       E           TYP  RCUT    TYP  RCUT                                                     
     2     -6.8782861     23  2.500                                                                 
     2     -8.2388687     23  2.500                                                                 
     0     -5.7601759     23  2.500                                                                 
     0     -0.8493231     23  2.500                                                                 
     1     -2.7211652     23  2.500                                                                 
     1     27.2116520     23  2.500                                                                 
     3     -1.3605826     23  2.500                                                                 
  local pseudopotential read in
  partial core-charges read in
  partial kinetic energy density read in
  atomic valenz-charges read in
  non local Contribution for L=           2  read in
    real space projection operators read in
  non local Contribution for L=           2  read in
    real space projection operators read in
  non local Contribution for L=           0  read in
    real space projection operators read in
  non local Contribution for L=           0  read in
    real space projection operators read in
  non local Contribution for L=           1  read in
    real space projection operators read in
  non local Contribution for L=           1  read in
    real space projection operators read in
    PAW grid and wavefunctions read in

   number of l-projection  operators is LMAX  =           6
   number of lm-projection operators is LMMAX =          18

 POTCAR:    PAW_PBE Mg_pv 13Apr2007               
   SHA256 =  f474ac0dd33840b9ae76c01d57fea79fdf77cdfbb07d5ade72c65f83c709b62b Mg_pv/POTCAR          
   COPYR  = (c) Copyright 13Apr2007 Georg Kresse                                                    
   COPYR  = This file is part of the software VASP. Any use, copying, and all other rights are regul
   COPYR  = If you do not have a valid VASP license, you may not use, copy or distribute this file. 
   VRHFIN =Mg: p6s2                                                                                 
   LEXCH  = PE                                                                                      
   EATOM  =  1056.7344 eV,   77.6678 Ry                                                             
                                                                                                    
   TITEL  = PAW_PBE Mg_pv 13Apr2007                                                                 
   LULTRA =        F    use ultrasoft PP ?                                                          
   IUNSCR =        1    unscreen: 0-lin 1-nonlin 2-no                                               
   RPACOR =    1.500    partial core radius                                                         
   POMASS =   24.305; ZVAL   =    8.000    mass and valenz                                          
   RCORE  =    2.000    outmost cutoff radius                                                       
   RWIGS  =    2.000; RWIGS  =    1.058    wigner-seitz radius (au A)                               
   ENMAX  =  403.929; ENMIN  =  302.947 eV                                                          
   RCLOC  =    1.506    cutoff for local pot                                                        
   LCOR   =        T    correct aug charges                                                         
   LPAW   =        T    paw PP                                                                      
   EAUG   =  758.780                                                                                
   DEXC   =    0.000                                                                                
   RMAX   =    2.045    core radius for proj-oper                                                   
   RAUG   =    1.300    factor for augmentation sphere                                              
   RDEP   =    2.025    radius for radial grids                                                     
   RDEPT  =    1.557    core radius for aug-charge                                                  
                                                                                                    
   Atomic configuration                                                                             
    5 entries                                                                                       
     n  l   j            E        occ.                                                              
     1  0  0.50     -1259.6230   2.0000                                                             
     2  0  0.50       -79.8442   2.0000                                                             
     2  1  1.50       -46.6121   6.0000                                                             
     3  0  0.50        -4.7055   2.0000                                                             
     3  2  1.50        -1.3606   0.0000                                                             
   Description                                                                                      
     l       E           TYP  RCUT    TYP  RCUT                                                     
     1    -46.6121073     23  1.600                                                                 
     1      2.7211652     23  1.600                                                                 
     0     -4.7054661     23  2.000                                                                 
     0     61.2262170     23  2.000                                                                 
     2     -1.3605826     23  2.000                                                                 
  local pseudopotential read in
  partial core-charges read in
  partial kinetic energy density read in
  atomic valenz-charges read in
  non local Contribution for L=           1  read in
    real space projection operators read in
  non local Contribution for L=           1  read in
    real space projection operators read in
  non local Contribution for L=           0  read in
    real space projection operators read in
  non local Contribution for L=           0  read in
    real space projection operators read in
  non local Contribution for L=           2  read in
    real space projection operators read in
    PAW grid and wavefunctions read in

   number of l-projection  operators is LMAX  =           5
   number of lm-projection operators is LMMAX =          13

 POTCAR:    PAW_PBE O 08Apr2002                   
   SHA256 =  818f92134a0a090dccd8ba1447fa70422a3b330e708bb4f08108d8ae51209ddf O/POTCAR              
   COPYR  = (c) Copyright 08Apr2002 Georg Kresse                                                    
   COPYR  = This file is part of the software VASP. Any use, copying, and all other rights are regul
   COPYR  = If you do not have a valid VASP license, you may not use, copy or distribute this file. 
   VRHFIN =O: s2p4                                                                                  
   LEXCH  = PE                                                                                      
   EATOM  =   432.3788 eV,   31.7789 Ry                                                             
                                                                                                    
   TITEL  = PAW_PBE O 08Apr2002                                                                     
   LULTRA =        F    use ultrasoft PP ?                                                          
   IUNSCR =        1    unscreen: 0-lin 1-nonlin 2-no                                               
   RPACOR =    1.200    partial core radius                                                         
   POMASS =   16.000; ZVAL   =    6.000    mass and valenz                                          
   RCORE  =    1.520    outmost cutoff radius                                                       
   RWIGS  =    1.550; RWIGS  =    0.820    wigner-seitz radius (au A)                               
   ENMAX  =  400.000; ENMIN  =  300.000 eV                                                          
   ICORE  =        2    local potential                                                             
   LCOR   =        T    correct aug charges                                                         
   LPAW   =        T    paw PP                                                                      
   EAUG   =  605.392                                                                                
   DEXC   =    0.000                                                                                
   RMAX   =    1.553    core radius for proj-oper                                                   
   RAUG   =    1.300    factor for augmentation sphere                                              
   RDEP   =    1.550    radius for radial grids                                                     
   RDEPT  =    1.329    core radius for aug-charge                                                  
                                                                                                    
   Atomic configuration                                                                             
    4 entries                                                                                       
     n  l   j            E        occ.                                                              
     1  0  0.50      -514.6923   2.0000                                                             
     2  0  0.50       -23.9615   2.0000                                                             
     2  1  0.50        -9.0305   4.0000                                                             
     3  2  1.50        -9.5241   0.0000                                                             
   Description                                                                                      
     l       E           TYP  RCUT    TYP  RCUT                                                     
     0    -23.9615318     23  1.200                                                                 
     0     -9.5240782     23  1.200                                                                 
     1     -9.0304911     23  1.520                                                                 
     1      8.1634956     23  1.520                                                                 
     2     -9.5240782      7  1.500                                                                 
  local pseudopotential read in
  partial core-charges read in
  partial kinetic energy density read in
  kinetic energy density of atom read in
  atomic valenz-charges read in
  non local Contribution for L=           0  read in
    real space projection operators read in
  non local Contribution for L=           0  read in
    real space projection operators read in
  non local Contribution for L=           1  read in
    real space projection operators read in
  non local Contribution for L=           1  read in
    real space projection operators read in
    PAW grid and wavefunctions read in

   number of l-projection  operators is LMAX  =           4
   number of lm-projection operators is LMMAX =           8

 Optimization of the real space projectors (new method)

 maximal supplied QI-value         = 15.12
 optimisation between [QCUT,QGAM] = [ 11.64, 23.28] = [ 37.95,151.78] Ry 
 Optimized for a Real-space Cutoff    1.49 Angstroem

   l    n(q)    QCUT    max X(q) W(low)/X(q) W(high)/X(q)  e(spline) 
   2      9    11.641    60.898    0.24E-03    0.10E-03    0.19E-06
   2      9    11.641    58.894    0.25E-03    0.10E-03    0.19E-06
   0     10    11.641   109.617    0.73E-04    0.33E-04    0.11E-06
   0     10    11.641    75.026    0.71E-04    0.32E-04    0.11E-06
   1     10    11.641    16.344    0.27E-04    0.97E-04    0.16E-06
   1     10    11.641    10.160    0.23E-04    0.77E-04    0.13E-06
 Optimization of the real space projectors (new method)

 maximal supplied QI-value         = 18.90
 optimisation between [QCUT,QGAM] = [ 11.53, 23.24] = [ 37.21,151.29] Ry 
 Optimized for a Real-space Cutoff    1.28 Angstroem

   l    n(q)    QCUT    max X(q) W(low)/X(q) W(high)/X(q)  e(spline) 
   1      8    11.527     2.974    0.44E-04    0.56E-04    0.12E-06
   1      8    11.527     4.279    0.12E-03    0.12E-03    0.26E-06
   0      9    11.527    16.381    0.46E-04    0.64E-04    0.78E-07
   0      9    11.527     5.611    0.26E-04    0.43E-04    0.55E-07
   2      8    11.527     4.652    0.22E-03    0.72E-04    0.47E-07
 Optimization of the real space projectors (new method)

 maximal supplied QI-value         = 24.76
 optimisation between [QCUT,QGAM] = [ 11.64, 23.27] = [ 37.91,151.63] Ry 
 Optimized for a Real-space Cutoff    1.14 Angstroem

   l    n(q)    QCUT    max X(q) W(low)/X(q) W(high)/X(q)  e(spline) 
   0      8    11.635    20.381    0.10E-03    0.33E-03    0.24E-06
   0      8    11.635    15.268    0.11E-03    0.35E-03    0.26E-06
   1      7    11.635     5.964    0.24E-03    0.31E-03    0.30E-06
   1      7    11.635     5.382    0.22E-03    0.25E-03    0.26E-06
 -----------------------------------------------------------------------------
|                                                                             |
|               ----> ADVICE to this user running VASP <----                  |
|                                                                             |
|     You enforced a specific xc type in the INCAR file but a different       |
|     type was found in the POTCAR file.                                      |
|     I HOPE YOU KNOW WHAT YOU ARE DOING!                                     |
|                                                                             |
 -----------------------------------------------------------------------------

  PAW_PBE Au 04Oct2007                  :
 energy of atom  1       EATOM= -926.0867
 kinetic energy error for atom=    0.0034 (will be added to EATOM!!)
  PAW_PBE Mg_pv 13Apr2007               :
 energy of atom  2       EATOM=-1056.7344
 kinetic energy error for atom=    0.0340 (will be added to EATOM!!)
  PAW_PBE O 08Apr2002                   :
 energy of atom  3       EATOM= -432.3788
 kinetic energy error for atom=    0.0208 (will be added to EATOM!!)


 POSCAR: Au Mg  O
  positions in direct lattice
  velocities in cartesian coordinates
 exchange correlation table for  LEXCH =       43
   RHO(1)=    0.500       N(1)  =     2000
   RHO(2)=  100.500       N(2)  =     4000



--------------------------------------------------------------------------------------------------------


 ion  position               nearest neighbor table
   1  0.404  0.596  0.665-   2 2.57   4 2.74
   2  0.332  0.668  0.602- 138 2.40   1 2.57  59 2.71  40 2.71
   3  0.568  0.432  0.602- 173 2.40   4 2.57  75 2.71  56 2.71
   4  0.496  0.504  0.665-   3 2.57   1 2.74
   5  0.000  0.000  0.407- 107 2.11 108 2.11 123 2.11 188 2.11 105 2.11
   6  0.100  0.100  0.407- 107 2.11 108 2.11 112 2.11 127 2.11 106 2.11
   7  0.000  0.100  0.503- 105 2.11 106 2.11 109 2.11 186 2.11 107 2.11
   8  0.100  0.000  0.503- 105 2.11 106 2.11 122 2.11 125 2.11 108 2.11
   9  0.000  0.200  0.407- 111 2.11 107 2.11 112 2.11 192 2.11 109 2.11
  10  0.100  0.300  0.407- 112 2.11 111 2.11 116 2.11 131 2.11 110 2.11
  11  0.000  0.300  0.503- 109 2.11 110 2.11 113 2.11 190 2.11 111 2.11
  12  0.100  0.200  0.503- 110 2.11 109 2.11 106 2.11 129 2.11 112 2.11
  13  0.000  0.400  0.407- 111 2.11 115 2.11 116 2.11 196 2.11 113 2.11
  14  0.100  0.500  0.407- 115 2.11 116 2.11 120 2.11 135 2.11 114 2.11
  15  0.000  0.500  0.503- 113 2.11 114 2.11 117 2.11 194 2.11 115 2.11
  16  0.100  0.400  0.503- 110 2.11 113 2.11 114 2.11 133 2.11 116 2.11
  17  0.000  0.600  0.407- 115 2.11 119 2.11 120 2.11 200 2.11 117 2.11
  18  0.100  0.700  0.407- 124 2.11 120 2.11 119 2.11 139 2.11 118 2.11
  19  0.000  0.700  0.503- 121 2.11 118 2.11 117 2.11 198 2.11 119 2.11
  20  0.100  0.600  0.503- 114 2.11 117 2.11 118 2.11 137 2.11 120 2.11
  21  0.000  0.800  0.407- 119 2.11 123 2.11 124 2.11 204 2.11 121 2.11
  22  0.100  0.900  0.407- 108 2.11 123 2.11 124 2.11 143 2.11 122 2.11
  23  0.000  0.900  0.503- 105 2.11 121 2.11 122 2.11 202 2.11 123 2.11
  24  0.100  0.800  0.503- 118 2.11 121 2.11 122 2.11 141 2.11 124 2.11
  25  0.200  0.000  0.407- 128 2.11 127 2.11 108 2.11 143 2.11 125 2.11
  26  0.300  0.100  0.407- 127 2.11 128 2.11 132 2.11 147 2.11 126 2.11
  27  0.200  0.100  0.503- 126 2.11 125 2.11 106 2.11 129 2.11 127 2.11
  28  0.300  0.000  0.503- 125 2.11 126 2.11 142 2.11 145 2.11 128 2.11
  29  0.200  0.200  0.407- 131 2.11 132 2.11 112 2.11 127 2.11 129 2.11
  30  0.300  0.300  0.407- 131 2.11 132 2.11 136 2.11 151 2.11 130 2.11
  31  0.200  0.300  0.503- 129 2.11 130 2.11 110 2.11 133 2.11 131 2.11
  32  0.300  0.200  0.503- 129 2.11 130 2.11 126 2.11 149 2.11 132 2.11
  33  0.200  0.400  0.407- 136 2.11 131 2.11 135 2.11 116 2.11 133 2.11
  34  0.300  0.500  0.407- 135 2.11 136 2.11 140 2.11 155 2.11 134 2.11
  35  0.200  0.500  0.503- 134 2.11 133 2.11 114 2.11 137 2.11 135 2.11
  36  0.300  0.400  0.503- 133 2.11 130 2.11 134 2.11 153 2.11 136 2.11
  37  0.200  0.600  0.407- 140 2.11 135 2.11 139 2.11 120 2.11 137 2.11
  38  0.300  0.700  0.407- 139 2.11 144 2.11 140 2.11 159 2.11 138 2.11
  39  0.200  0.700  0.503- 138 2.11 141 2.11 118 2.11 137 2.11 139 2.11
  40  0.300  0.600  0.503- 137 2.11 134 2.11 138 2.11 157 2.11 140 2.11   2 2.71
  41  0.200  0.800  0.407- 139 2.11 144 2.11 143 2.11 124 2.11 141 2.11
  42  0.300  0.900  0.407- 143 2.11 128 2.11 144 2.11 163 2.11 142 2.11
  43  0.200  0.900  0.503- 142 2.11 125 2.11 141 2.11 122 2.11 143 2.11
  44  0.300  0.800  0.503- 138 2.11 141 2.11 142 2.11 161 2.11 144 2.11
  45  0.400  0.000  0.407- 128 2.11 147 2.11 148 2.11 163 2.11 145 2.11
  46  0.500  0.100  0.407- 147 2.11 148 2.11 152 2.11 167 2.11 146 2.11
  47  0.400  0.100  0.503- 126 2.11 145 2.11 146 2.11 149 2.11 147 2.11
  48  0.500  0.000  0.503- 145 2.11 146 2.11 162 2.11 165 2.11 148 2.11
  49  0.400  0.200  0.407- 151 2.11 147 2.11 132 2.11 152 2.11 149 2.11
  50  0.500  0.300  0.407- 152 2.11 151 2.11 156 2.11 171 2.11 150 2.11
  51  0.400  0.300  0.503- 149 2.11 130 2.11 150 2.11 153 2.11 151 2.11
  52  0.500  0.200  0.503- 150 2.11 149 2.11 146 2.11 169 2.11 152 2.11
  53  0.400  0.400  0.407- 136 2.11 151 2.11 155 2.11 156 2.11 153 2.11
  54  0.500  0.500  0.407- 155 2.11 156 2.11 160 2.11 175 2.11 154 2.11
  55  0.400  0.500  0.503- 134 2.11 153 2.11 154 2.11 157 2.11 155 2.11
  56  0.500  0.400  0.503- 150 2.11 153 2.11 154 2.11 173 2.11 156 2.11   3 2.71
  57  0.400  0.600  0.407- 140 2.11 155 2.11 159 2.11 160 2.11 157 2.11
  58  0.500  0.700  0.407- 164 2.11 160 2.11 159 2.11 179 2.11 158 2.11
  59  0.400  0.700  0.503- 161 2.11 157 2.11 158 2.11 138 2.11 159 2.11   2 2.71
  60  0.500  0.600  0.503- 154 2.11 157 2.11 158 2.11 177 2.11 160 2.11
  61  0.400  0.800  0.407- 159 2.11 144 2.11 163 2.11 164 2.11 161 2.11
  62  0.500  0.900  0.407- 148 2.11 163 2.11 164 2.11 183 2.11 162 2.11
  63  0.400  0.900  0.503- 142 2.11 145 2.11 161 2.11 162 2.11 163 2.11
  64  0.500  0.800  0.503- 158 2.11 161 2.11 162 2.11 181 2.11 164 2.11
  65  0.600  0.000  0.407- 148 2.11 167 2.11 168 2.11 183 2.11 165 2.11
  66  0.700  0.100  0.407- 187 2.11 168 2.11 172 2.11 167 2.11 166 2.11
  67  0.600  0.100  0.503- 146 2.11 165 2.11 166 2.11 169 2.11 167 2.11
  68  0.700  0.000  0.503- 185 2.11 166 2.11 182 2.11 165 2.11 168 2.11
  69  0.600  0.200  0.407- 171 2.11 167 2.11 152 2.11 172 2.11 169 2.11
  70  0.700  0.300  0.407- 172 2.11 191 2.11 176 2.11 171 2.11 170 2.11
  71  0.600  0.300  0.503- 169 2.11 150 2.11 170 2.11 173 2.11 171 2.11
  72  0.700  0.200  0.503- 170 2.11 189 2.11 166 2.11 169 2.11 172 2.11
  73  0.600  0.400  0.407- 156 2.11 171 2.11 175 2.11 176 2.11 173 2.11
  74  0.700  0.500  0.407- 195 2.11 176 2.11 180 2.11 175 2.11 174 2.11
  75  0.600  0.500  0.503- 154 2.11 173 2.11 174 2.11 177 2.11 175 2.11   3 2.71
  76  0.700  0.400  0.503- 193 2.11 173 2.11 174 2.11 170 2.11 176 2.11
  77  0.600  0.600  0.407- 160 2.11 175 2.11 179 2.11 180 2.11 177 2.11
  78  0.700  0.700  0.407- 184 2.11 199 2.11 179 2.11 180 2.11 178 2.11
  79  0.600  0.700  0.503- 181 2.11 177 2.11 178 2.11 158 2.11 179 2.11
  80  0.700  0.600  0.503- 197 2.11 177 2.11 178 2.11 174 2.11 180 2.11
  81  0.600  0.800  0.407- 179 2.11 164 2.11 183 2.11 184 2.11 181 2.11
  82  0.700  0.900  0.407- 203 2.11 183 2.11 184 2.11 168 2.11 182 2.11
  83  0.600  0.900  0.503- 162 2.11 165 2.11 181 2.11 182 2.11 183 2.11
  84  0.700  0.800  0.503- 178 2.11 201 2.11 182 2.11 181 2.11 184 2.11
  85  0.800  0.000  0.407- 168 2.11 187 2.11 188 2.11 203 2.11 185 2.11
  86  0.900  0.100  0.407- 107 2.11 187 2.11 188 2.11 192 2.11 186 2.11
  87  0.800  0.100  0.503- 166 2.11 185 2.11 186 2.11 189 2.11 187 2.11
  88  0.900  0.000  0.503- 105 2.11 185 2.11 186 2.11 202 2.11 188 2.11
  89  0.800  0.200  0.407- 172 2.11 191 2.11 187 2.11 192 2.11 189 2.11
  90  0.900  0.300  0.407- 192 2.11 191 2.11 111 2.11 196 2.11 190 2.11
  91  0.800  0.300  0.503- 170 2.11 189 2.11 190 2.11 193 2.11 191 2.11
  92  0.900  0.200  0.503- 190 2.11 186 2.11 189 2.11 109 2.11 192 2.11
  93  0.800  0.400  0.407- 176 2.11 191 2.11 195 2.11 196 2.11 193 2.11
  94  0.900  0.500  0.407- 115 2.11 195 2.11 196 2.11 200 2.11 194 2.11
  95  0.800  0.500  0.503- 174 2.11 193 2.11 194 2.11 197 2.11 195 2.11
  96  0.900  0.400  0.503- 113 2.11 190 2.11 193 2.11 194 2.11 196 2.11
  97  0.800  0.600  0.407- 180 2.11 195 2.11 199 2.11 200 2.11 197 2.11
  98  0.900  0.700  0.407- 204 2.11 199 2.11 200 2.11 119 2.11 198 2.11
  99  0.800  0.700  0.503- 178 2.11 201 2.11 198 2.11 197 2.11 199 2.11
 100  0.900  0.600  0.503- 117 2.11 194 2.11 197 2.11 198 2.11 200 2.11
 101  0.800  0.800  0.407- 184 2.11 199 2.11 203 2.11 204 2.11 201 2.11
 102  0.900  0.900  0.407- 123 2.11 188 2.11 203 2.11 204 2.11 202 2.11
 103  0.800  0.900  0.503- 182 2.11 185 2.11 201 2.11 202 2.11 203 2.11
 104  0.900  0.800  0.503- 198 2.11 121 2.11 201 2.11 202 2.11 204 2.11
 105  0.000  0.000  0.503-   7 2.11   8 2.11  23 2.11  88 2.11   5 2.11
 106  0.100  0.100  0.503-   7 2.11   8 2.11  12 2.11  27 2.11   6 2.11
 107  0.000  0.100  0.407-   5 2.11   6 2.11   9 2.11  86 2.11   7 2.11
 108  0.100  0.000  0.407-   5 2.11   6 2.11  22 2.11  25 2.11   8 2.11
 109  0.000  0.200  0.503-  11 2.11   7 2.11  12 2.11  92 2.11   9 2.11
 110  0.100  0.300  0.503-  12 2.11  11 2.11  16 2.11  31 2.11  10 2.11
 111  0.000  0.300  0.407-   9 2.11  10 2.11  13 2.11  90 2.11  11 2.11
 112  0.100  0.200  0.407-  10 2.11   9 2.11   6 2.11  29 2.11  12 2.11
 113  0.000  0.400  0.503-  11 2.11  15 2.11  16 2.11  96 2.11  13 2.11
 114  0.100  0.500  0.503-  15 2.11  16 2.11  20 2.11  35 2.11  14 2.11
 115  0.000  0.500  0.407-  13 2.11  14 2.11  17 2.11  94 2.11  15 2.11
 116  0.100  0.400  0.407-  10 2.11  13 2.11  14 2.11  33 2.11  16 2.11
 117  0.000  0.600  0.503-  15 2.11  19 2.11  20 2.11 100 2.11  17 2.11
 118  0.100  0.700  0.503-  24 2.11  20 2.11  19 2.11  39 2.11  18 2.11
 119  0.000  0.700  0.407-  21 2.11  18 2.11  17 2.11  98 2.11  19 2.11
 120  0.100  0.600  0.407-  14 2.11  17 2.11  18 2.11  37 2.11  20 2.11
 121  0.000  0.800  0.503-  19 2.11  23 2.11  24 2.11 104 2.11  21 2.11
 122  0.100  0.900  0.503-   8 2.11  23 2.11  24 2.11  43 2.11  22 2.11
 123  0.000  0.900  0.407-   5 2.11  21 2.11  22 2.11 102 2.11  23 2.11
 124  0.100  0.800  0.407-  18 2.11  21 2.11  22 2.11  41 2.11  24 2.11
 125  0.200  0.000  0.503-  28 2.11  27 2.11   8 2.11  43 2.11  25 2.11
 126  0.300  0.100  0.503-  27 2.11  28 2.11  32 2.11  47 2.11  26 2.11
 127  0.200  0.100  0.407-  26 2.11  25 2.11   6 2.11  29 2.11  27 2.11
 128  0.300  0.000  0.407-  25 2.11  26 2.11  42 2.11  45 2.11  28 2.11
 129  0.200  0.200  0.503-  31 2.11  32 2.11  12 2.11  27 2.11  29 2.11
 130  0.300  0.300  0.503-  31 2.11  32 2.11  36 2.11  51 2.11  30 2.11
 131  0.200  0.300  0.407-  29 2.11  30 2.11  10 2.11  33 2.11  31 2.11
 132  0.300  0.200  0.407-  29 2.11  30 2.11  26 2.11  49 2.11  32 2.11
 133  0.200  0.400  0.503-  36 2.11  31 2.11  35 2.11  16 2.11  33 2.11
 134  0.300  0.500  0.503-  35 2.11  36 2.11  40 2.11  55 2.11  34 2.11
 135  0.200  0.500  0.407-  34 2.11  33 2.11  14 2.11  37 2.11  35 2.11
 136  0.300  0.400  0.407-  33 2.11  30 2.11  34 2.11  53 2.11  36 2.11
 137  0.200  0.600  0.503-  40 2.11  35 2.11  39 2.11  20 2.11  37 2.11
 138  0.300  0.700  0.503-  39 2.11  44 2.11  40 2.11  59 2.11  38 2.11   2 2.40
 139  0.200  0.700  0.407-  38 2.11  41 2.11  18 2.11  37 2.11  39 2.11
 140  0.300  0.600  0.407-  37 2.11  34 2.11  38 2.11  57 2.11  40 2.11
 141  0.200  0.800  0.503-  39 2.11  44 2.11  43 2.11  24 2.11  41 2.11
 142  0.300  0.900  0.503-  43 2.11  28 2.11  44 2.11  63 2.11  42 2.11
 143  0.200  0.900  0.407-  42 2.11  25 2.11  41 2.11  22 2.11  43 2.11
 144  0.300  0.800  0.407-  38 2.11  41 2.11  42 2.11  61 2.11  44 2.11
 145  0.400  0.000  0.503-  28 2.11  47 2.11  48 2.11  63 2.11  45 2.11
 146  0.500  0.100  0.503-  47 2.11  48 2.11  52 2.11  67 2.11  46 2.11
 147  0.400  0.100  0.407-  26 2.11  45 2.11  46 2.11  49 2.11  47 2.11
 148  0.500  0.000  0.407-  45 2.11  46 2.11  62 2.11  65 2.11  48 2.11
 149  0.400  0.200  0.503-  51 2.11  47 2.11  32 2.11  52 2.11  49 2.11
 150  0.500  0.300  0.503-  52 2.11  51 2.11  56 2.11  71 2.11  50 2.11
 151  0.400  0.300  0.407-  49 2.11  30 2.11  50 2.11  53 2.11  51 2.11
 152  0.500  0.200  0.407-  50 2.11  49 2.11  46 2.11  69 2.11  52 2.11
 153  0.400  0.400  0.503-  36 2.11  51 2.11  55 2.11  56 2.11  53 2.11
 154  0.500  0.500  0.503-  55 2.11  56 2.11  60 2.11  75 2.11  54 2.11
 155  0.400  0.500  0.407-  34 2.11  53 2.11  54 2.11  57 2.11  55 2.11
 156  0.500  0.400  0.407-  50 2.11  53 2.11  54 2.11  73 2.11  56 2.11
 157  0.400  0.600  0.503-  40 2.11  55 2.11  59 2.11  60 2.11  57 2.11
 158  0.500  0.700  0.503-  64 2.11  60 2.11  59 2.11  79 2.11  58 2.11
 159  0.400  0.700  0.407-  61 2.11  57 2.11  58 2.11  38 2.11  59 2.11
 160  0.500  0.600  0.407-  54 2.11  57 2.11  58 2.11  77 2.11  60 2.11
 161  0.400  0.800  0.503-  59 2.11  44 2.11  63 2.11  64 2.11  61 2.11
 162  0.500  0.900  0.503-  48 2.11  63 2.11  64 2.11  83 2.11  62 2.11
 163  0.400  0.900  0.407-  42 2.11  45 2.11  61 2.11  62 2.11  63 2.11
 164  0.500  0.800  0.407-  58 2.11  61 2.11  62 2.11  81 2.11  64 2.11
 165  0.600  0.000  0.503-  48 2.11  67 2.11  68 2.11  83 2.11  65 2.11
 166  0.700  0.100  0.503-  87 2.11  68 2.11  72 2.11  67 2.11  66 2.11
 167  0.600  0.100  0.407-  46 2.11  65 2.11  66 2.11  69 2.11  67 2.11
 168  0.700  0.000  0.407-  85 2.11  66 2.11  82 2.11  65 2.11  68 2.11
 169  0.600  0.200  0.503-  71 2.11  67 2.11  52 2.11  72 2.11  69 2.11
 170  0.700  0.300  0.503-  72 2.11  91 2.11  76 2.11  71 2.11  70 2.11
 171  0.600  0.300  0.407-  69 2.11  50 2.11  70 2.11  73 2.11  71 2.11
 172  0.700  0.200  0.407-  70 2.11  89 2.11  66 2.11  69 2.11  72 2.11
 173  0.600  0.400  0.503-  56 2.11  71 2.11  75 2.11  76 2.11  73 2.11   3 2.40
 174  0.700  0.500  0.503-  95 2.11  76 2.11  80 2.11  75 2.11  74 2.11
 175  0.600  0.500  0.407-  54 2.11  73 2.11  74 2.11  77 2.11  75 2.11
 176  0.700  0.400  0.407-  93 2.11  73 2.11  74 2.11  70 2.11  76 2.11
 177  0.600  0.600  0.503-  60 2.11  75 2.11  79 2.11  80 2.11  77 2.11
 178  0.700  0.700  0.503-  84 2.11  99 2.11  79 2.11  80 2.11  78 2.11
 179  0.600  0.700  0.407-  81 2.11  77 2.11  78 2.11  58 2.11  79 2.11
 180  0.700  0.600  0.407-  97 2.11  77 2.11  78 2.11  74 2.11  80 2.11
 181  0.600  0.800  0.503-  79 2.11  64 2.11  83 2.11  84 2.11  81 2.11
 182  0.700  0.900  0.503- 103 2.11  83 2.11  84 2.11  68 2.11  82 2.11
 183  0.600  0.900  0.407-  62 2.11  65 2.11  81 2.11  82 2.11  83 2.11
 184  0.700  0.800  0.407-  78 2.11 101 2.11  82 2.11  81 2.11  84 2.11
 185  0.800  0.000  0.503-  68 2.11  87 2.11  88 2.11 103 2.11  85 2.11
 186  0.900  0.100  0.503-   7 2.11  87 2.11  88 2.11  92 2.11  86 2.11
 187  0.800  0.100  0.407-  66 2.11  85 2.11  86 2.11  89 2.11  87 2.11
 188  0.900  0.000  0.407-   5 2.11  85 2.11  86 2.11 102 2.11  88 2.11
 189  0.800  0.200  0.503-  72 2.11  91 2.11  87 2.11  92 2.11  89 2.11
 190  0.900  0.300  0.503-  92 2.11  91 2.11  11 2.11  96 2.11  90 2.11
 191  0.800  0.300  0.407-  70 2.11  89 2.11  90 2.11  93 2.11  91 2.11
 192  0.900  0.200  0.407-  90 2.11  86 2.11  89 2.11   9 2.11  92 2.11
 193  0.800  0.400  0.503-  76 2.11  91 2.11  95 2.11  96 2.11  93 2.11
 194  0.900  0.500  0.503-  15 2.11  95 2.11  96 2.11 100 2.11  94 2.11
 195  0.800  0.500  0.407-  74 2.11  93 2.11  94 2.11  97 2.11  95 2.11
 196  0.900  0.400  0.407-  13 2.11  90 2.11  93 2.11  94 2.11  96 2.11
 197  0.800  0.600  0.503-  80 2.11  95 2.11  99 2.11 100 2.11  97 2.11
 198  0.900  0.700  0.503- 104 2.11  99 2.11 100 2.11  19 2.11  98 2.11
 199  0.800  0.700  0.407-  78 2.11 101 2.11  98 2.11  97 2.11  99 2.11
 200  0.900  0.600  0.407-  17 2.11  94 2.11  97 2.11  98 2.11 100 2.11
 201  0.800  0.800  0.503-  84 2.11  99 2.11 103 2.11 104 2.11 101 2.11
 202  0.900  0.900  0.503-  23 2.11  88 2.11 103 2.11 104 2.11 102 2.11
 203  0.800  0.900  0.407-  82 2.11  85 2.11 101 2.11 102 2.11 103 2.11
 204  0.900  0.800  0.407-  98 2.11  21 2.11 101 2.11 102 2.11 104 2.11

  LATTYP: Found a simple tetragonal cell.
 ALAT       =    21.1388521970
 C/A-ratio  =     1.0461251639
  
  Lattice vectors:
  
 A1 = (  21.1388521970,   0.0000000000,   0.0000000000)
 A2 = (   0.0000000000,  21.1388521970,   0.0000000000)
 A3 = (   0.0000000000,   0.0000000000,  22.1138852197)


Analysis of symmetry for initial positions (statically):
=====================================================================
 Subroutine PRICEL returns:
 Original cell was already a primitive cell.
 

 Routine SETGRP: Setting up the symmetry group for a 
 simple tetragonal supercell.


 Subroutine GETGRP returns: Found  2 space group operations
 (whereof  1 operations were pure point group operations)
 out of a pool of 16 trial point group operations.


The static configuration has the point symmetry C_1 .
 The point group associated with its full space group is C_1h.


Analysis of symmetry for dynamics (positions and initial velocities):
=====================================================================
 Subroutine PRICEL returns:
 Original cell was already a primitive cell.
 

 Routine SETGRP: Setting up the symmetry group for a 
 simple tetragonal supercell.


 Subroutine GETGRP returns: Found  2 space group operations
 (whereof  1 operations were pure point group operations)
 out of a pool of 16 trial point group operations.


The dynamic configuration has the point symmetry C_1 .
 The point group associated with its full space group is C_1h.


Analysis of constrained symmetry for selective dynamics:
=====================================================================
 Subroutine PRICEL returns:
 Original cell was already a primitive cell.
 

 Routine SETGRP: Setting up the symmetry group for a 
 simple tetragonal supercell.


 Subroutine GETGRP returns: Found  2 space group operations
 (whereof  1 operations were pure point group operations)
 out of a pool of 16 trial point group operations.


The constrained configuration has the point symmetry C_1 .
 The point group associated with its full space group is C_1h.


 Subroutine INISYM returns: Found  2 space group operations
 (whereof  1 operations are pure point group operations),
 and found     1 'primitive' translations


----------------------------------------------------------------------------------------

                                     Primitive cell                                     

  volume of cell :    9881.6133

  direct lattice vectors                    reciprocal lattice vectors
    21.138852197  0.000000000  0.000000000     0.047306258  0.000000000  0.000000000
     0.000000000 21.138852197  0.000000000     0.000000000  0.047306258  0.000000000
     0.000000000  0.000000000 22.113885220     0.000000000  0.000000000  0.045220457

  length of vectors
    21.138852197 21.138852197 22.113885220     0.047306258  0.047306258  0.045220457

  position of ions in fractional coordinates (direct lattice)
     0.404253373  0.595794633  0.665345618
     0.332139373  0.667908160  0.602022863
     0.567907686  0.432139846  0.602022863
     0.495794160  0.504253373  0.665345618
     0.000000000  0.000000000  0.406984115
     0.100000000  0.100000000  0.406984115
     0.000000000  0.100000000  0.502574971
     0.100000000  0.000000000  0.502574971
     0.000000000  0.200000000  0.406984115
     0.100000000  0.300000000  0.406984115
     0.000000000  0.300000000  0.502574971
     0.100000000  0.200000000  0.502574971
     0.000000000  0.400000000  0.406984115
     0.100000000  0.500000000  0.406984115
     0.000000000  0.500000000  0.502574971
     0.100000000  0.400000000  0.502574971
     0.000000000  0.600000000  0.406984115
     0.100000000  0.700000000  0.406984115
     0.000000000  0.700000000  0.502574971
     0.100000000  0.600000000  0.502574971
     0.000000000  0.800000000  0.406984115
     0.100000000  0.900000000  0.406984115
     0.000000000  0.900000000  0.502574971
     0.100000000  0.800000000  0.502574971
     0.200000000  0.000000000  0.406984115
     0.300000000  0.100000000  0.406984115
     0.200000000  0.100000000  0.502574971
     0.300000000  0.000000000  0.502574971
     0.200000000  0.200000000  0.406984115
     0.300000000  0.300000000  0.406984115
     0.200000000  0.300000000  0.502574971
     0.300000000  0.200000000  0.502574971
     0.200000000  0.400000000  0.406984115
     0.300000000  0.500000000  0.406984115
     0.200000000  0.500000000  0.502574971
     0.300000000  0.400000000  0.502574971
     0.200000000  0.600000000  0.406984115
     0.300000000  0.700000000  0.406984115
     0.200000000  0.700000000  0.502574971
     0.300000000  0.600000000  0.502574971
     0.200000000  0.800000000  0.406984115
     0.300000000  0.900000000  0.406984115
     0.200000000  0.900000000  0.502574971
     0.300000000  0.800000000  0.502574971
     0.400000000  0.000000000  0.406984115
     0.500000000  0.100000000  0.406984115
     0.400000000  0.100000000  0.502574971
     0.500000000  0.000000000  0.502574971
     0.400000000  0.200000000  0.406984115
     0.500000000  0.300000000  0.406984115
     0.400000000  0.300000000  0.502574971
     0.500000000  0.200000000  0.502574971
     0.400000000  0.400000000  0.406984115
     0.500000000  0.500000000  0.406984115
     0.400000000  0.500000000  0.502574971
     0.500000000  0.400000000  0.502574971
     0.400000000  0.600000000  0.406984115
     0.500000000  0.700000000  0.406984115
     0.400000000  0.700000000  0.502574971
     0.500000000  0.600000000  0.502574971
     0.400000000  0.800000000  0.406984115
     0.500000000  0.900000000  0.406984115
     0.400000000  0.900000000  0.502574971
     0.500000000  0.800000000  0.502574971
     0.600000000  0.000000000  0.406984115
     0.700000000  0.100000000  0.406984115
     0.600000000  0.100000000  0.502574971
     0.700000000  0.000000000  0.502574971
     0.600000000  0.200000000  0.406984115
     0.700000000  0.300000000  0.406984115
     0.600000000  0.300000000  0.502574971
     0.700000000  0.200000000  0.502574971
     0.600000000  0.400000000  0.406984115
     0.700000000  0.500000000  0.406984115
     0.600000000  0.500000000  0.502574971
     0.700000000  0.400000000  0.502574971
     0.600000000  0.600000000  0.406984115
     0.700000000  0.700000000  0.406984115
     0.600000000  0.700000000  0.502574971
     0.700000000  0.600000000  0.502574971
     0.600000000  0.800000000  0.406984115
     0.700000000  0.900000000  0.406984115
     0.600000000  0.900000000  0.502574971
     0.700000000  0.800000000  0.502574971
     0.800000000  0.000000000  0.406984115
     0.900000000  0.100000000  0.406984115
     0.800000000  0.100000000  0.502574971
     0.900000000  0.000000000  0.502574971
     0.800000000  0.200000000  0.406984115
     0.900000000  0.300000000  0.406984115
     0.800000000  0.300000000  0.502574971
     0.900000000  0.200000000  0.502574971
     0.800000000  0.400000000  0.406984115
     0.900000000  0.500000000  0.406984115
     0.800000000  0.500000000  0.502574971
     0.900000000  0.400000000  0.502574971
     0.800000000  0.600000000  0.406984115
     0.900000000  0.700000000  0.406984115
     0.800000000  0.700000000  0.502574971
     0.900000000  0.600000000  0.502574971
     0.800000000  0.800000000  0.406984115
     0.900000000  0.900000000  0.406984115
     0.800000000  0.900000000  0.502574971
     0.900000000  0.800000000  0.502574971
     0.000000000  0.000000000  0.502574971
     0.100000000  0.100000000  0.502574971
     0.000000000  0.100000000  0.406984115
     0.100000000  0.000000000  0.406984115
     0.000000000  0.200000000  0.502574971
     0.100000000  0.300000000  0.502574971
     0.000000000  0.300000000  0.406984115
     0.100000000  0.200000000  0.406984115
     0.000000000  0.400000000  0.502574971
     0.100000000  0.500000000  0.502574971
     0.000000000  0.500000000  0.406984115
     0.100000000  0.400000000  0.406984115
     0.000000000  0.600000000  0.502574971
     0.100000000  0.700000000  0.502574971
     0.000000000  0.700000000  0.406984115
     0.100000000  0.600000000  0.406984115
     0.000000000  0.800000000  0.502574971
     0.100000000  0.900000000  0.502574971
     0.000000000  0.900000000  0.406984115
     0.100000000  0.800000000  0.406984115
     0.200000000  0.000000000  0.502574971
     0.300000000  0.100000000  0.502574971
     0.200000000  0.100000000  0.406984115
     0.300000000  0.000000000  0.406984115
     0.200000000  0.200000000  0.502574971
     0.300000000  0.300000000  0.502574971
     0.200000000  0.300000000  0.406984115
     0.300000000  0.200000000  0.406984115
     0.200000000  0.400000000  0.502574971
     0.300000000  0.500000000  0.502574971
     0.200000000  0.500000000  0.406984115
     0.300000000  0.400000000  0.406984115
     0.200000000  0.600000000  0.502574971
     0.300000000  0.700000000  0.502574971
     0.200000000  0.700000000  0.406984115
     0.300000000  0.600000000  0.406984115
     0.200000000  0.800000000  0.502574971
     0.300000000  0.900000000  0.502574971
     0.200000000  0.900000000  0.406984115
     0.300000000  0.800000000  0.406984115
     0.400000000  0.000000000  0.502574971
     0.500000000  0.100000000  0.502574971
     0.400000000  0.100000000  0.406984115
     0.500000000  0.000000000  0.406984115
     0.400000000  0.200000000  0.502574971
     0.500000000  0.300000000  0.502574971
     0.400000000  0.300000000  0.406984115
     0.500000000  0.200000000  0.406984115
     0.400000000  0.400000000  0.502574971
     0.500000000  0.500000000  0.502574971
     0.400000000  0.500000000  0.406984115
     0.500000000  0.400000000  0.406984115
     0.400000000  0.600000000  0.502574971
     0.500000000  0.700000000  0.502574971
     0.400000000  0.700000000  0.406984115
     0.500000000  0.600000000  0.406984115
     0.400000000  0.800000000  0.502574971
     0.500000000  0.900000000  0.502574971
     0.400000000  0.900000000  0.406984115
     0.500000000  0.800000000  0.406984115
     0.600000000  0.000000000  0.502574971
     0.700000000  0.100000000  0.502574971
     0.600000000  0.100000000  0.406984115
     0.700000000  0.000000000  0.406984115
     0.600000000  0.200000000  0.502574971
     0.700000000  0.300000000  0.502574971
     0.600000000  0.300000000  0.406984115
     0.700000000  0.200000000  0.406984115
     0.600000000  0.400000000  0.502574971
     0.700000000  0.500000000  0.502574971
     0.600000000  0.500000000  0.406984115
     0.700000000  0.400000000  0.406984115
     0.600000000  0.600000000  0.502574971
     0.700000000  0.700000000  0.502574971
     0.600000000  0.700000000  0.406984115
     0.700000000  0.600000000  0.406984115
     0.600000000  0.800000000  0.502574971
     0.700000000  0.900000000  0.502574971
     0.600000000  0.900000000  0.406984115
     0.700000000  0.800000000  0.406984115
     0.800000000  0.000000000  0.502574971
     0.900000000  0.100000000  0.502574971
     0.800000000  0.100000000  0.406984115
     0.900000000  0.000000000  0.406984115
     0.800000000  0.200000000  0.502574971
     0.900000000  0.300000000  0.502574971
     0.800000000  0.300000000  0.406984115
     0.900000000  0.200000000  0.406984115
     0.800000000  0.400000000  0.502574971
     0.900000000  0.500000000  0.502574971
     0.800000000  0.500000000  0.406984115
     0.900000000  0.400000000  0.406984115
     0.800000000  0.600000000  0.502574971
     0.900000000  0.700000000  0.502574971
     0.800000000  0.700000000  0.406984115
     0.900000000  0.600000000  0.406984115
     0.800000000  0.800000000  0.502574971
     0.900000000  0.900000000  0.502574971
     0.800000000  0.900000000  0.406984115
     0.900000000  0.800000000  0.406984115

  ion indices of the primitive-cell ions
   primitive index   ion index
                 1           1
                 2           2
                 3           3
                 4           4
                 5           5
                 6           6
                 7           7
                 8           8
                 9           9
                10          10
                11          11
                12          12
                13          13
                14          14
                15          15
                16          16
                17          17
                18          18
                19          19
                20          20
                21          21
                22          22
                23          23
                24          24
                25          25
                26          26
                27          27
                28          28
                29          29
                30          30
                31          31
                32          32
                33          33
                34          34
                35          35
                36          36
                37          37
                38          38
                39          39
                40          40
                41          41
                42          42
                43          43
                44          44
                45          45
                46          46
                47          47
                48          48
                49          49
                50          50
                51          51
                52          52
                53          53
                54          54
                55          55
                56          56
                57          57
                58          58
                59          59
                60          60
                61          61
                62          62
                63          63
                64          64
                65          65
                66          66
                67          67
                68          68
                69          69
                70          70
                71          71
                72          72
                73          73
                74          74
                75          75
                76          76
                77          77
                78          78
                79          79
                80          80
                81          81
                82          82
                83          83
                84          84
                85          85
                86          86
                87          87
                88          88
                89          89
                90          90
                91          91
                92          92
                93          93
                94          94
                95          95
                96          96
                97          97
                98          98
                99          99
               100         100
               101         101
               102         102
               103         103
               104         104
               105         105
               106         106
               107         107
               108         108
               109         109
               110         110
               111         111
               112         112
               113         113
               114         114
               115         115
               116         116
               117         117
               118         118
               119         119
               120         120
               121         121
               122         122
               123         123
               124         124
               125         125
               126         126
               127         127
               128         128
               129         129
               130         130
               131         131
               132         132
               133         133
               134         134
               135         135
               136         136
               137         137
               138         138
               139         139
               140         140
               141         141
               142         142
               143         143
               144         144
               145         145
               146         146
               147         147
               148         148
               149         149
               150         150
               151         151
               152         152
               153         153
               154         154
               155         155
               156         156
               157         157
               158         158
               159         159
               160         160
               161         161
               162         162
               163         163
               164         164
               165         165
               166         166
               167         167
               168         168
               169         169
               170         170
               171         171
               172         172
               173         173
               174         174
               175         175
               176         176
               177         177
               178         178
               179         179
               180         180
               181         181
               182         182
               183         183
               184         184
               185         185
               186         186
               187         187
               188         188
               189         189
               190         190
               191         191
               192         192
               193         193
               194         194
               195         195
               196         196
               197         197
               198         198
               199         199
               200         200
               201         201
               202         202
               203         203
               204         204

----------------------------------------------------------------------------------------



 KPOINTS: KPOINTS created by Atomic Simulation Env

Automatic generation of k-mesh.
 Grid dimensions read from file:
 generate k-points for:    1    1    1

 Generating k-lattice:

  Cartesian coordinates                     Fractional coordinates (reciprocal lattice)
     0.047306258  0.000000000  0.000000000     1.000000000  0.000000000  0.000000000
     0.000000000  0.047306258  0.000000000     0.000000000  1.000000000  0.000000000
     0.000000000  0.000000000  0.045220457     0.000000000  0.000000000  1.000000000

  Length of vectors
     0.047306258  0.047306258  0.045220457

  Shift w.r.t. Gamma in fractional coordinates (k-lattice)
     0.000000000  0.000000000  0.000000000

 
 Subroutine IBZKPT returns following result:
 ===========================================
 
 Found      1 irreducible k-points:
 
 Following reciprocal coordinates:
            Coordinates               Weight
  0.000000  0.000000  0.000000      1.000000
 
 Following cartesian coordinates:
            Coordinates               Weight
  0.000000  0.000000  0.000000      1.000000
 


--------------------------------------------------------------------------------------------------------




 Dimension of arrays:
   k-points           NKPTS =      1   k-points in BZ     NKDIM =      1   number of bands    NBANDS=    960
   number of dos      NEDOS =    301   number of ions     NIONS =    204
   non local maximal  LDIM  =      6   non local SUM 2l+1 LMDIM =     18
   total plane-waves  NPLWV = ******
   max r-space proj   IRMAX =   6070   max aug-charges    IRDMAX=  26812
   dimension x,y,z NGX =   160 NGY =  160 NGZ =  168
   dimension x,y,z NGXF=   320 NGYF=  320 NGZF=  336
   support grid    NGXF=   320 NGYF=  320 NGZF=  336
   ions per type =               4 100 100
   NGX,Y,Z   is equivalent  to a cutoff of  12.58, 12.58, 12.63 a.u.
   NGXF,Y,Z  is equivalent  to a cutoff of  25.17, 25.17, 25.26 a.u.

 SYSTEM =  MgO-rocksalt                            
 POSCAR =  Au Mg  O                                

 Startparameter for this run:
   NWRITE =      2    write-flag & timer
   PREC   = accura    normal or accurate (medium, high low for compatibility)
   ISTART =      0    job   : 0-new  1-cont  2-samecut
   ICHARG =      2    charge: 1-file 2-atom 10-const
   ISPIN  =      1    spin polarized calculation?
   LNONCOLLINEAR =      F non collinear calculations
   LSORBIT =      F    spin-orbit coupling
   INIWAV =      1    electr: 0-lowe 1-rand  2-diag
   LASPH  =      T    aspherical Exc in radial PAW
 Electronic Relaxation 1
   ENCUT  =  520.0 eV  38.22 Ry    6.18 a.u.  39.30 39.30 41.12*2*pi/ulx,y,z
   ENINI  =  520.0     initial cutoff
   ENAUG  =  758.8 eV  augmentation charge cutoff
   NELM   =    200;   NELMIN=  8; NELMDL= -5     # of ELM steps 
   EDIFF  = 0.1E-05   stopping-criterion for ELM
   LREAL  =      T    real-space projection
   NLSPLINE    = F    spline interpolate recip. space projectors
   LCOMPAT=      F    compatible to vasp.4.4
   GGA_COMPAT  = T    GGA compatible to vasp.4.4-vasp.4.6
   LMAXPAW     = -100 max onsite density
   LMAXMIX     =    2 max onsite mixed and CHGCAR
   VOSKOWN=      0    Vosko Wilk Nusair interpolation
   ROPT   =   -0.00025  -0.00025  -0.00025
 Ionic relaxation
   EDIFFG = 0.1E-04   stopping-criterion for IOM
   NSW    =      0    number of steps for IOM
   NBLOCK =      1;   KBLOCK =      1    inner block; outer block 
   IBRION =     -1    ionic relax: 0-MD 1-quasi-New 2-CG
   NFREE  =      0    steps in history (QN), initial steepest desc. (CG)
   ISIF   =      2    stress and relaxation
   IWAVPR =     10    prediction:  0-non 1-charg 2-wave 3-comb
   ISYM   =      2    0-nonsym 1-usesym 2-fastsym
   LCORR  =      T    Harris-Foulkes like correction to forces

   POTIM  = 0.5000    time-step for ionic-motion
   TEIN   =    0.0    initial temperature
   TEBEG  =    0.0;   TEEND  =   0.0 temperature during run
   SMASS  =  -3.00    Nose mass-parameter (am)
   estimated Nose-frequenzy (Omega)   =  0.10E-29 period in steps = 0.13E+47 mass=  -0.102E-25a.u.
   SCALEE = 1.0000    scale energy and forces
   NPACO  =    256;   APACO  = 10.0  distance and # of slots for P.C.
   PSTRESS=    0.0 pullay stress

  Mass of Ions in am
   POMASS = 196.97 24.30 16.00
  Ionic Valenz
   ZVAL   =  11.00  8.00  6.00
  Atomic Wigner-Seitz radii
   RWIGS  =  -1.00 -1.00 -1.00
  virtual crystal weights 
   VCA    =   1.00  1.00  1.00
   NELECT =    1444.0000    total number of electrons
   NUPDOWN=      -1.0000    fix difference up-down

 DOS related values:
   EMIN   =  10.00;   EMAX   =-10.00  energy-range for DOS
   EFERMI =   0.00
   ISMEAR =     0;   SIGMA  =   0.05  broadening in eV -4-tet -1-fermi 0-gaus

 Electronic relaxation 2 (details)
   IALGO  =     58    algorithm
   LDIAG  =      T    sub-space diagonalisation (order eigenvalues)
   LSUBROT=      F    optimize rotation matrix (better conditioning)
   TURBO    =      0    0=normal 1=particle mesh
   IRESTART =      0    0=no restart 2=restart with 2 vectors
   NREBOOT  =      0    no. of reboots
   NMIN     =      0    reboot dimension
   EREF     =   0.00    reference energy to select bands
   IMIX   =      4    mixing-type and parameters
     AMIX     =   0.40;   BMIX     =  1.00
     AMIX_MAG =   1.60;   BMIX_MAG =  1.00
     AMIN     =   0.10
     WC   =   100.;   INIMIX=   1;  MIXPRE=   1;  MAXMIX= -45

 Intra band minimization:
   WEIMIN = 0.0000     energy-eigenvalue tresh-hold
   EBREAK =  0.26E-09  absolut break condition
   DEPER  =   0.30     relativ break condition  

   TIME   =   0.40     timestep for ELM

  volume/ion in A,a.u.               =      48.44       326.88
  Fermi-wavevector in a.u.,A,eV,Ry     =   0.862293  1.629497 10.116590  0.743548
  Thomas-Fermi vector in A             =   1.980073

 Write flags
   LWAVE        =      F    write WAVECAR
   LDOWNSAMPLE  =      F    k-point downsampling of WAVECAR
   LCHARG       =      F    write CHGCAR
   LVTOT        =      F    write LOCPOT, total local potential
   LVHAR        =      F    write LOCPOT, Hartree potential only
   LELF         =      F    write electronic localiz. function (ELF)
   LORBIT       =      0    0 simple, 1 ext, 2 COOP (PROOUT), +10 PAW based schemes


 Dipole corrections
   LMONO  =      F    monopole corrections only (constant potential shift)
   LDIPOL =      T    correct potential (dipole corrections)
   IDIPOL =      3    1-x, 2-y, 3-z, 4-all directions 
   EPSILON=  1.0000000 bulk dielectric constant

 Exchange correlation treatment:
   GGA     =    MK    GGA type
   LEXCH   =    43    internal setting for exchange type
   LIBXC   =     F    Libxc                    
   VOSKOWN =     0    Vosko Wilk Nusair interpolation
   LHFCALC =     F    Hartree Fock is set to
   LHFONE  =     F    Hartree Fock one center treatment
   AEXX    =    0.0000 exact exchange contribution

 vdW DFT:
   LUSE_VDW   =     T    switch on vdW DFT
   Zab_VDW    =******    correlation parameter
   PARAM1     =0.1234
   PARAM2     =0.7114
   PARAM3     =0.0000
   -- rVV10 --
   BPARAM     = 6.3000
   CPARAM     = 0.0093

 Linear response parameters
   LEPSILON=     F    determine dielectric tensor
   LRPA    =     F    only Hartree local field effects (RPA)
   LNABLA  =     F    use nabla operator in PAW spheres
   LVEL    =     F    velocity operator in full k-point grid
   CSHIFT  =0.1000    complex shift for real part using Kramers Kronig
   OMEGAMAX=  -1.0    maximum frequency
   DEG_THRESHOLD= 0.2000000E-02 threshold for treating states as degnerate
   RTIME   =   -0.100 relaxation time in fs
  (WPLASMAI=    0.000 imaginary part of plasma frequency in eV, 0.658/RTIME)
   DFIELD  = 0.0000000 0.0000000 0.0000000 field for delta impulse in time

  Optional k-point grid parameters
   LKPOINTS_OPT  =     F    use optional k-point grid
   KPOINTS_OPT_MODE=     1    mode for optional k-point grid

 Orbital magnetization related:
   ORBITALMAG=     F  switch on orbital magnetization
   LCHIMAG   =     F  perturbation theory with respect to B field
   DQ        =  0.001000  dq finite difference perturbation B field
   LLRAUG    =     F  two centre corrections for induced B field



--------------------------------------------------------------------------------------------------------


 Static calculation
 charge density and potential will be updated during run
 non-spin polarized calculation
 Conjugate gradient for all bands (Freysoldt, et al. PRB 79, 241103 (2009))
 preconditioned conjugated gradient                                        
 perform sub-space diagonalisation
    before iterative eigenvector-optimisation
 modified Broyden-mixing scheme, WC =      100.0
 initial mixing is a Kerker type mixing with AMIX =  0.4000 and BMIX =      1.0000
 Hartree-type preconditioning will be used
 using additional bands          238
 real space projection scheme for non local part
 use partial core corrections
 no Harris-corrections to forces 
 use gradient corrections 
 use of overlap-Matrix (Vanderbilt PP)
 Gauss-broadening in eV      SIGMA  =   0.05


--------------------------------------------------------------------------------------------------------


  energy-cutoff  :      520.00
  volume of cell :     9881.61
      direct lattice vectors                 reciprocal lattice vectors
    21.138852197  0.000000000  0.000000000     0.047306258  0.000000000  0.000000000
     0.000000000 21.138852197  0.000000000     0.000000000  0.047306258  0.000000000
     0.000000000  0.000000000 22.113885220     0.000000000  0.000000000  0.045220457

  length of vectors
    21.138852197 21.138852197 22.113885220     0.047306258  0.047306258  0.045220457



 k-points in units of 2pi/SCALE and weight: KPOINTS created by Atomic Simulation Env
   0.00000000  0.00000000  0.00000000       1.000

 k-points in reciprocal lattice and weights: KPOINTS created by Atomic Simulation Env
   0.00000000  0.00000000  0.00000000       1.000

 position of ions in fractional coordinates (direct lattice) 
   0.40425337  0.59579463  0.66534562
   0.33213937  0.66790816  0.60202286
   0.56790769  0.43213985  0.60202286
   0.49579416  0.50425337  0.66534562
   0.00000000  0.00000000  0.40698411
   0.10000000  0.10000000  0.40698411
   0.00000000  0.10000000  0.50257497
   0.10000000  0.00000000  0.50257497
   0.00000000  0.20000000  0.40698411
   0.10000000  0.30000000  0.40698411
   0.00000000  0.30000000  0.50257497
   0.10000000  0.20000000  0.50257497
   0.00000000  0.40000000  0.40698411
   0.10000000  0.50000000  0.40698411
   0.00000000  0.50000000  0.50257497
   0.10000000  0.40000000  0.50257497
   0.00000000  0.60000000  0.40698411
   0.10000000  0.70000000  0.40698411
   0.00000000  0.70000000  0.50257497
   0.10000000  0.60000000  0.50257497
   0.00000000  0.80000000  0.40698411
   0.10000000  0.90000000  0.40698411
   0.00000000  0.90000000  0.50257497
   0.10000000  0.80000000  0.50257497
   0.20000000  0.00000000  0.40698411
   0.30000000  0.10000000  0.40698411
   0.20000000  0.10000000  0.50257497
   0.30000000  0.00000000  0.50257497
   0.20000000  0.20000000  0.40698411
   0.30000000  0.30000000  0.40698411
   0.20000000  0.30000000  0.50257497
   0.30000000  0.20000000  0.50257497
   0.20000000  0.40000000  0.40698411
   0.30000000  0.50000000  0.40698411
   0.20000000  0.50000000  0.50257497
   0.30000000  0.40000000  0.50257497
   0.20000000  0.60000000  0.40698411
   0.30000000  0.70000000  0.40698411
   0.20000000  0.70000000  0.50257497
   0.30000000  0.60000000  0.50257497
   0.20000000  0.80000000  0.40698411
   0.30000000  0.90000000  0.40698411
   0.20000000  0.90000000  0.50257497
   0.30000000  0.80000000  0.50257497
   0.40000000  0.00000000  0.40698411
   0.50000000  0.10000000  0.40698411
   0.40000000  0.10000000  0.50257497
   0.50000000  0.00000000  0.50257497
   0.40000000  0.20000000  0.40698411
   0.50000000  0.30000000  0.40698411
   0.40000000  0.30000000  0.50257497
   0.50000000  0.20000000  0.50257497
   0.40000000  0.40000000  0.40698411
   0.50000000  0.50000000  0.40698411
   0.40000000  0.50000000  0.50257497
   0.50000000  0.40000000  0.50257497
   0.40000000  0.60000000  0.40698411
   0.50000000  0.70000000  0.40698411
   0.40000000  0.70000000  0.50257497
   0.50000000  0.60000000  0.50257497
   0.40000000  0.80000000  0.40698411
   0.50000000  0.90000000  0.40698411
   0.40000000  0.90000000  0.50257497
   0.50000000  0.80000000  0.50257497
   0.60000000  0.00000000  0.40698411
   0.70000000  0.10000000  0.40698411
   0.60000000  0.10000000  0.50257497
   0.70000000  0.00000000  0.50257497
   0.60000000  0.20000000  0.40698411
   0.70000000  0.30000000  0.40698411
   0.60000000  0.30000000  0.50257497
   0.70000000  0.20000000  0.50257497
   0.60000000  0.40000000  0.40698411
   0.70000000  0.50000000  0.40698411
   0.60000000  0.50000000  0.50257497
   0.70000000  0.40000000  0.50257497
   0.60000000  0.60000000  0.40698411
   0.70000000  0.70000000  0.40698411
   0.60000000  0.70000000  0.50257497
   0.70000000  0.60000000  0.50257497
   0.60000000  0.80000000  0.40698411
   0.70000000  0.90000000  0.40698411
   0.60000000  0.90000000  0.50257497
   0.70000000  0.80000000  0.50257497
   0.80000000  0.00000000  0.40698411
   0.90000000  0.10000000  0.40698411
   0.80000000  0.10000000  0.50257497
   0.90000000  0.00000000  0.50257497
   0.80000000  0.20000000  0.40698411
   0.90000000  0.30000000  0.40698411
   0.80000000  0.30000000  0.50257497
   0.90000000  0.20000000  0.50257497
   0.80000000  0.40000000  0.40698411
   0.90000000  0.50000000  0.40698411
   0.80000000  0.50000000  0.50257497
   0.90000000  0.40000000  0.50257497
   0.80000000  0.60000000  0.40698411
   0.90000000  0.70000000  0.40698411
   0.80000000  0.70000000  0.50257497
   0.90000000  0.60000000  0.50257497
   0.80000000  0.80000000  0.40698411
   0.90000000  0.90000000  0.40698411
   0.80000000  0.90000000  0.50257497
   0.90000000  0.80000000  0.50257497
   0.00000000  0.00000000  0.50257497
   0.10000000  0.10000000  0.50257497
   0.00000000  0.10000000  0.40698411
   0.10000000  0.00000000  0.40698411
   0.00000000  0.20000000  0.50257497
   0.10000000  0.30000000  0.50257497
   0.00000000  0.30000000  0.40698411
   0.10000000  0.20000000  0.40698411
   0.00000000  0.40000000  0.50257497
   0.10000000  0.50000000  0.50257497
   0.00000000  0.50000000  0.40698411
   0.10000000  0.40000000  0.40698411
   0.00000000  0.60000000  0.50257497
   0.10000000  0.70000000  0.50257497
   0.00000000  0.70000000  0.40698411
   0.10000000  0.60000000  0.40698411
   0.00000000  0.80000000  0.50257497
   0.10000000  0.90000000  0.50257497
   0.00000000  0.90000000  0.40698411
   0.10000000  0.80000000  0.40698411
   0.20000000  0.00000000  0.50257497
   0.30000000  0.10000000  0.50257497
   0.20000000  0.10000000  0.40698411
   0.30000000  0.00000000  0.40698411
   0.20000000  0.20000000  0.50257497
   0.30000000  0.30000000  0.50257497
   0.20000000  0.30000000  0.40698411
   0.30000000  0.20000000  0.40698411
   0.20000000  0.40000000  0.50257497
   0.30000000  0.50000000  0.50257497
   0.20000000  0.50000000  0.40698411
   0.30000000  0.40000000  0.40698411
   0.20000000  0.60000000  0.50257497
   0.30000000  0.70000000  0.50257497
   0.20000000  0.70000000  0.40698411
   0.30000000  0.60000000  0.40698411
   0.20000000  0.80000000  0.50257497
   0.30000000  0.90000000  0.50257497
   0.20000000  0.90000000  0.40698411
   0.30000000  0.80000000  0.40698411
   0.40000000  0.00000000  0.50257497
   0.50000000  0.10000000  0.50257497
   0.40000000  0.10000000  0.40698411
   0.50000000  0.00000000  0.40698411
   0.40000000  0.20000000  0.50257497
   0.50000000  0.30000000  0.50257497
   0.40000000  0.30000000  0.40698411
   0.50000000  0.20000000  0.40698411
   0.40000000  0.40000000  0.50257497
   0.50000000  0.50000000  0.50257497
   0.40000000  0.50000000  0.40698411
   0.50000000  0.40000000  0.40698411
   0.40000000  0.60000000  0.50257497
   0.50000000  0.70000000  0.50257497
   0.40000000  0.70000000  0.40698411
   0.50000000  0.60000000  0.40698411
   0.40000000  0.80000000  0.50257497
   0.50000000  0.90000000  0.50257497
   0.40000000  0.90000000  0.40698411
   0.50000000  0.80000000  0.40698411
   0.60000000  0.00000000  0.50257497
   0.70000000  0.10000000  0.50257497
   0.60000000  0.10000000  0.40698411
   0.70000000  0.00000000  0.40698411
   0.60000000  0.20000000  0.50257497
   0.70000000  0.30000000  0.50257497
   0.60000000  0.30000000  0.40698411
   0.70000000  0.20000000  0.40698411
   0.60000000  0.40000000  0.50257497
   0.70000000  0.50000000  0.50257497
   0.60000000  0.50000000  0.40698411
   0.70000000  0.40000000  0.40698411
   0.60000000  0.60000000  0.50257497
   0.70000000  0.70000000  0.50257497
   0.60000000  0.70000000  0.40698411
   0.70000000  0.60000000  0.40698411
   0.60000000  0.80000000  0.50257497
   0.70000000  0.90000000  0.50257497
   0.60000000  0.90000000  0.40698411
   0.70000000  0.80000000  0.40698411
   0.80000000  0.00000000  0.50257497
   0.90000000  0.10000000  0.50257497
   0.80000000  0.10000000  0.40698411
   0.90000000  0.00000000  0.40698411
   0.80000000  0.20000000  0.50257497
   0.90000000  0.30000000  0.50257497
   0.80000000  0.30000000  0.40698411
   0.90000000  0.20000000  0.40698411
   0.80000000  0.40000000  0.50257497
   0.90000000  0.50000000  0.50257497
   0.80000000  0.50000000  0.40698411
   0.90000000  0.40000000  0.40698411
   0.80000000  0.60000000  0.50257497
   0.90000000  0.70000000  0.50257497
   0.80000000  0.70000000  0.40698411
   0.90000000  0.60000000  0.40698411
   0.80000000  0.80000000  0.50257497
   0.90000000  0.90000000  0.50257497
   0.80000000  0.90000000  0.40698411
   0.90000000  0.80000000  0.40698411

 position of ions in cartesian coordinates  (Angst):
   8.54545229 12.59441469 14.71337663
   7.02104511 14.11881186 13.31306450
  12.00491665  9.13494033 13.31306450
  10.48051947 10.65933751 14.71337663
   0.00000000  0.00000000  9.00000000
   2.11388522  2.11388522  9.00000000
   0.00000000  2.11388522 11.11388522
   2.11388522  0.00000000 11.11388522
   0.00000000  4.22777044  9.00000000
   2.11388522  6.34165566  9.00000000
   0.00000000  6.34165566 11.11388522
   2.11388522  4.22777044 11.11388522
   0.00000000  8.45554088  9.00000000
   2.11388522 10.56942610  9.00000000
   0.00000000 10.56942610 11.11388522
   2.11388522  8.45554088 11.11388522
   0.00000000 12.68331132  9.00000000
   2.11388522 14.79719654  9.00000000
   0.00000000 14.79719654 11.11388522
   2.11388522 12.68331132 11.11388522
   0.00000000 16.91108176  9.00000000
   2.11388522 19.02496698  9.00000000
   0.00000000 19.02496698 11.11388522
   2.11388522 16.91108176 11.11388522
   4.22777044  0.00000000  9.00000000
   6.34165566  2.11388522  9.00000000
   4.22777044  2.11388522 11.11388522
   6.34165566  0.00000000 11.11388522
   4.22777044  4.22777044  9.00000000
   6.34165566  6.34165566  9.00000000
   4.22777044  6.34165566 11.11388522
   6.34165566  4.22777044 11.11388522
   4.22777044  8.45554088  9.00000000
   6.34165566 10.56942610  9.00000000
   4.22777044 10.56942610 11.11388522
   6.34165566  8.45554088 11.11388522
   4.22777044 12.68331132  9.00000000
   6.34165566 14.79719654  9.00000000
   4.22777044 14.79719654 11.11388522
   6.34165566 12.68331132 11.11388522
   4.22777044 16.91108176  9.00000000
   6.34165566 19.02496698  9.00000000
   4.22777044 19.02496698 11.11388522
   6.34165566 16.91108176 11.11388522
   8.45554088  0.00000000  9.00000000
  10.56942610  2.11388522  9.00000000
   8.45554088  2.11388522 11.11388522
  10.56942610  0.00000000 11.11388522
   8.45554088  4.22777044  9.00000000
  10.56942610  6.34165566  9.00000000
   8.45554088  6.34165566 11.11388522
  10.56942610  4.22777044 11.11388522
   8.45554088  8.45554088  9.00000000
  10.56942610 10.56942610  9.00000000
   8.45554088 10.56942610 11.11388522
  10.56942610  8.45554088 11.11388522
   8.45554088 12.68331132  9.00000000
  10.56942610 14.79719654  9.00000000
   8.45554088 14.79719654 11.11388522
  10.56942610 12.68331132 11.11388522
   8.45554088 16.91108176  9.00000000
  10.56942610 19.02496698  9.00000000
   8.45554088 19.02496698 11.11388522
  10.56942610 16.91108176 11.11388522
  12.68331132  0.00000000  9.00000000
  14.79719654  2.11388522  9.00000000
  12.68331132  2.11388522 11.11388522
  14.79719654  0.00000000 11.11388522
  12.68331132  4.22777044  9.00000000
  14.79719654  6.34165566  9.00000000
  12.68331132  6.34165566 11.11388522
  14.79719654  4.22777044 11.11388522
  12.68331132  8.45554088  9.00000000
  14.79719654 10.56942610  9.00000000
  12.68331132 10.56942610 11.11388522
  14.79719654  8.45554088 11.11388522
  12.68331132 12.68331132  9.00000000
  14.79719654 14.79719654  9.00000000
  12.68331132 14.79719654 11.11388522
  14.79719654 12.68331132 11.11388522
  12.68331132 16.91108176  9.00000000
  14.79719654 19.02496698  9.00000000
  12.68331132 19.02496698 11.11388522
  14.79719654 16.91108176 11.11388522
  16.91108176  0.00000000  9.00000000
  19.02496698  2.11388522  9.00000000
  16.91108176  2.11388522 11.11388522
  19.02496698  0.00000000 11.11388522
  16.91108176  4.22777044  9.00000000
  19.02496698  6.34165566  9.00000000
  16.91108176  6.34165566 11.11388522
  19.02496698  4.22777044 11.11388522
  16.91108176  8.45554088  9.00000000
  19.02496698 10.56942610  9.00000000
  16.91108176 10.56942610 11.11388522
  19.02496698  8.45554088 11.11388522
  16.91108176 12.68331132  9.00000000
  19.02496698 14.79719654  9.00000000
  16.91108176 14.79719654 11.11388522
  19.02496698 12.68331132 11.11388522
  16.91108176 16.91108176  9.00000000
  19.02496698 19.02496698  9.00000000
  16.91108176 19.02496698 11.11388522
  19.02496698 16.91108176 11.11388522
   0.00000000  0.00000000 11.11388522
   2.11388522  2.11388522 11.11388522
   0.00000000  2.11388522  9.00000000
   2.11388522  0.00000000  9.00000000
   0.00000000  4.22777044 11.11388522
   2.11388522  6.34165566 11.11388522
   0.00000000  6.34165566  9.00000000
   2.11388522  4.22777044  9.00000000
   0.00000000  8.45554088 11.11388522
   2.11388522 10.56942610 11.11388522
   0.00000000 10.56942610  9.00000000
   2.11388522  8.45554088  9.00000000
   0.00000000 12.68331132 11.11388522
   2.11388522 14.79719654 11.11388522
   0.00000000 14.79719654  9.00000000
   2.11388522 12.68331132  9.00000000
   0.00000000 16.91108176 11.11388522
   2.11388522 19.02496698 11.11388522
   0.00000000 19.02496698  9.00000000
   2.11388522 16.91108176  9.00000000
   4.22777044  0.00000000 11.11388522
   6.34165566  2.11388522 11.11388522
   4.22777044  2.11388522  9.00000000
   6.34165566  0.00000000  9.00000000
   4.22777044  4.22777044 11.11388522
   6.34165566  6.34165566 11.11388522
   4.22777044  6.34165566  9.00000000
   6.34165566  4.22777044  9.00000000
   4.22777044  8.45554088 11.11388522
   6.34165566 10.56942610 11.11388522
   4.22777044 10.56942610  9.00000000
   6.34165566  8.45554088  9.00000000
   4.22777044 12.68331132 11.11388522
   6.34165566 14.79719654 11.11388522
   4.22777044 14.79719654  9.00000000
   6.34165566 12.68331132  9.00000000
   4.22777044 16.91108176 11.11388522
   6.34165566 19.02496698 11.11388522
   4.22777044 19.02496698  9.00000000
   6.34165566 16.91108176  9.00000000
   8.45554088  0.00000000 11.11388522
  10.56942610  2.11388522 11.11388522
   8.45554088  2.11388522  9.00000000
  10.56942610  0.00000000  9.00000000
   8.45554088  4.22777044 11.11388522
  10.56942610  6.34165566 11.11388522
   8.45554088  6.34165566  9.00000000
  10.56942610  4.22777044  9.00000000
   8.45554088  8.45554088 11.11388522
  10.56942610 10.56942610 11.11388522
   8.45554088 10.56942610  9.00000000
  10.56942610  8.45554088  9.00000000
   8.45554088 12.68331132 11.11388522
  10.56942610 14.79719654 11.11388522
   8.45554088 14.79719654  9.00000000
  10.56942610 12.68331132  9.00000000
   8.45554088 16.91108176 11.11388522
  10.56942610 19.02496698 11.11388522
   8.45554088 19.02496698  9.00000000
  10.56942610 16.91108176  9.00000000
  12.68331132  0.00000000 11.11388522
  14.79719654  2.11388522 11.11388522
  12.68331132  2.11388522  9.00000000
  14.79719654  0.00000000  9.00000000
  12.68331132  4.22777044 11.11388522
  14.79719654  6.34165566 11.11388522
  12.68331132  6.34165566  9.00000000
  14.79719654  4.22777044  9.00000000
  12.68331132  8.45554088 11.11388522
  14.79719654 10.56942610 11.11388522
  12.68331132 10.56942610  9.00000000
  14.79719654  8.45554088  9.00000000
  12.68331132 12.68331132 11.11388522
  14.79719654 14.79719654 11.11388522
  12.68331132 14.79719654  9.00000000
  14.79719654 12.68331132  9.00000000
  12.68331132 16.91108176 11.11388522
  14.79719654 19.02496698 11.11388522
  12.68331132 19.02496698  9.00000000
  14.79719654 16.91108176  9.00000000
  16.91108176  0.00000000 11.11388522
  19.02496698  2.11388522 11.11388522
  16.91108176  2.11388522  9.00000000
  19.02496698  0.00000000  9.00000000
  16.91108176  4.22777044 11.11388522
  19.02496698  6.34165566 11.11388522
  16.91108176  6.34165566  9.00000000
  19.02496698  4.22777044  9.00000000
  16.91108176  8.45554088 11.11388522
  19.02496698 10.56942610 11.11388522
  16.91108176 10.56942610  9.00000000
  19.02496698  8.45554088  9.00000000
  16.91108176 12.68331132 11.11388522
[...]
   -.147E+02 -.156E+02 -.685E+03   0.147E+02 0.156E+02 0.690E+03   0.673E-01 0.243E-01 -.377E+01
   -.171E+01 -.840E+01 -.689E+03   0.166E+01 0.840E+01 0.694E+03   0.544E-01 0.709E-02 -.374E+01
   -.770E+01 -.769E+01 0.707E+03   0.767E+01 0.767E+01 -.711E+03   0.303E-01 0.303E-01 0.360E+01
   -.194E+01 -.909E+01 0.708E+03   0.188E+01 0.910E+01 -.712E+03   0.712E-01 -.619E-02 0.360E+01
 -----------------------------------------------------------------------------------------------
   -.731E+00 0.728E+00 0.145E+02   0.199E-11 0.119E-11 0.146E-10   0.280E-02 0.280E-02 -.149E+02


 POSITION                                       TOTAL-FORCE (eV/Angst)
 -----------------------------------------------------------------------------------
      8.54545     12.59441     14.71338         0.003447     -0.002601      0.008894
      7.02105     14.11881     13.31306         0.000541     -0.001236      0.009026
     12.00492      9.13494     13.31306        -0.001236      0.000541      0.009026
     10.48052     10.65934     14.71338        -0.002601      0.003447      0.008894
      0.00000      0.00000      9.00000        -0.008431      0.008407      0.344560
      2.11389      2.11389      9.00000         0.001202      0.015263      0.346365
      0.00000      2.11389     11.11389         0.005420      0.005420     -0.313240
      2.11389      0.00000     11.11389        -0.006963      0.025568     -0.310929
      0.00000      4.22777      9.00000         0.015263      0.001202      0.346365
      2.11389      6.34166      9.00000         0.014032      0.000588      0.350533
      0.00000      6.34166     11.11389         0.023864      0.000730     -0.309770
      2.11389      4.22777     11.11389         0.011395      0.011395     -0.310783
      0.00000      8.45554      9.00000         0.020246     -0.004936      0.348349
      2.11389     10.56943      9.00000        -0.000501     -0.033268      0.351157
      0.00000     10.56943     11.11389         0.008121     -0.007040     -0.303147
      2.11389      8.45554     11.11389         0.028909     -0.009458     -0.299449
      0.00000     12.68331      9.00000        -0.021818     -0.009338      0.349341
      2.11389     14.79720      9.00000        -0.100135     -0.013998      0.356297
      0.00000     14.79720     11.11389        -0.036136     -0.006089     -0.303975
      2.11389     12.68331     11.11389        -0.036571     -0.035867     -0.282022
      0.00000     16.91108      9.00000        -0.039744      0.004649      0.346781
      2.11389     19.02497      9.00000        -0.031320      0.031307      0.340140
      0.00000     19.02497     11.11389        -0.025597      0.006949     -0.310930
      2.11389     16.91108     11.11389        -0.086183      0.008344     -0.298629
      4.22777      0.00000      9.00000        -0.004663      0.039712      0.346784
      6.34166      2.11389      9.00000        -0.004936      0.020246      0.348349
      4.22777      2.11389     11.11389         0.000730      0.023864     -0.309770
      6.34166      0.00000     11.11389         0.006085      0.036087     -0.303973
      4.22777      4.22777      9.00000         0.000588      0.014032      0.350533
      6.34166      6.34166      9.00000        -0.017488      0.012229      0.366061
      4.22777      6.34166     11.11389         0.018178      0.018178     -0.297412
      6.34166      4.22777     11.11389        -0.009458      0.028909     -0.299449
      4.22777      8.45554      9.00000         0.012229     -0.017488      0.366061
      6.34166     10.56943      9.00000         0.003059     -0.085097      0.426671
      4.22777     10.56943     11.11389         0.082692     -0.063697     -0.236967
      6.34166      8.45554     11.11389         0.048641      0.048641     -0.230770
      4.22777     12.68331      9.00000        -0.050505     -0.118984      0.330822
      6.34166     14.79720      9.00000         0.069907     -0.069806     -0.212617
      4.22777     14.79720     11.11389        -0.560624     -0.070940     -0.270437
      6.34166     12.68331     11.11389        -0.012921     -0.959044     -0.321730
      4.22777     16.91108      9.00000        -0.083614      0.083632      0.301380
      6.34166     19.02497      9.00000         0.013997      0.100086      0.356299
      4.22777     19.02497     11.11389        -0.008339      0.086162     -0.298630
      6.34166     16.91108     11.11389         0.070991      0.560633     -0.270445
      8.45554      0.00000      9.00000         0.009331      0.021772      0.349348
     10.56943      2.11389      9.00000        -0.009338     -0.021818      0.349341
      8.45554      2.11389     11.11389        -0.007040      0.008121     -0.303147
     10.56943      0.00000     11.11389         0.007025     -0.008180     -0.303141
      8.45554      4.22777      9.00000        -0.033268     -0.000501      0.351157
     10.56943      6.34166      9.00000        -0.118984     -0.050505      0.330822
      8.45554      6.34166     11.11389        -0.063697      0.082692     -0.236967
     10.56943      4.22777     11.11389        -0.035867     -0.036571     -0.282022
      8.45554      8.45554      9.00000        -0.085097      0.003059      0.426671
     10.56943     10.56943      9.00000        -0.072170      0.072229      0.378008
      8.45554     10.56943     11.11389        -0.021844     -0.021844      0.055156
     10.56943      8.45554     11.11389        -0.959044     -0.012921     -0.321730
      8.45554     12.68331      9.00000         0.072229     -0.072170      0.378008
     10.56943     14.79720      9.00000         0.085103     -0.003069      0.426750
      8.45554     14.79720     11.11389         0.960093      0.013260     -0.322870
     10.56943     12.68331     11.11389         0.021955      0.021955      0.055404
      8.45554     16.91108      9.00000         0.118980      0.050465      0.330831
     10.56943     19.02497      9.00000         0.033252      0.000451      0.351166
      8.45554     19.02497     11.11389         0.035861      0.036513     -0.281995
     10.56943     16.91108     11.11389         0.063669     -0.082819     -0.236883
     12.68331      0.00000      9.00000         0.004925     -0.020288      0.348351
     14.79720      2.11389      9.00000         0.004649     -0.039744      0.346781
     12.68331      2.11389     11.11389        -0.006089     -0.036136     -0.303975
     14.79720      0.00000     11.11389        -0.000752     -0.023906     -0.309772
     12.68331      4.22777      9.00000        -0.013998     -0.100135      0.356297
     14.79720      6.34166      9.00000         0.083632     -0.083614      0.301380
     12.68331      6.34166     11.11389        -0.070940     -0.560624     -0.270437
     14.79720      4.22777     11.11389         0.008344     -0.086183     -0.298629
     12.68331      8.45554      9.00000        -0.069806      0.069907     -0.212617
     14.79720     10.56943      9.00000         0.050465      0.118980      0.330831
     12.68331     10.56943     11.11389         0.013260      0.960093     -0.322870
     14.79720      8.45554     11.11389         0.560633      0.070991     -0.270445
     12.68331     12.68331      9.00000        -0.003069      0.085103      0.426750
     14.79720     14.79720      9.00000        -0.012275      0.017460      0.366083
     12.68331     14.79720     11.11389        -0.048730     -0.048730     -0.230703
     14.79720     12.68331     11.11389        -0.082819      0.063669     -0.236883
     12.68331     16.91108      9.00000         0.017460     -0.012275      0.366083
     14.79720     19.02497      9.00000        -0.000614     -0.014069      0.350536
     12.68331     19.02497     11.11389         0.009433     -0.028969     -0.299435
     14.79720     16.91108     11.11389        -0.018231     -0.018231     -0.297391
     16.91108      0.00000      9.00000        -0.001224     -0.015289      0.346366
     19.02497      2.11389      9.00000         0.008407     -0.008431      0.344560
     16.91108      2.11389     11.11389         0.006949     -0.025597     -0.310930
     19.02497      0.00000     11.11389        -0.005444     -0.005444     -0.313242
     16.91108      4.22777      9.00000         0.031307     -0.031320      0.340140
     19.02497      6.34166      9.00000         0.039712     -0.004663      0.346784
     16.91108      6.34166     11.11389         0.086162     -0.008339     -0.298630
     19.02497      4.22777     11.11389         0.025568     -0.006963     -0.310929
     16.91108      8.45554      9.00000         0.100086      0.013997      0.356299
     19.02497     10.56943      9.00000         0.021772      0.009331      0.349348
     16.91108     10.56943     11.11389         0.036513      0.035861     -0.281995
     19.02497      8.45554     11.11389         0.036087      0.006085     -0.303973
     16.91108     12.68331      9.00000         0.000451      0.033252      0.351166
     19.02497     14.79720      9.00000        -0.020288      0.004925      0.348351
     16.91108     14.79720     11.11389        -0.028969      0.009433     -0.299435
     19.02497     12.68331     11.11389        -0.008180      0.007025     -0.303141
     16.91108     16.91108      9.00000        -0.014069     -0.000614      0.350536
     19.02497     19.02497      9.00000        -0.015289     -0.001224      0.346366
     16.91108     19.02497     11.11389        -0.011424     -0.011424     -0.310776
     19.02497     16.91108     11.11389        -0.023906     -0.000752     -0.309772
      0.00000      0.00000     11.11389         0.009761     -0.009772      0.368886
      2.11389      2.11389     11.11389        -0.001980     -0.014992      0.367540
      0.00000      2.11389      9.00000        -0.003985     -0.003985     -0.401960
      2.11389      0.00000      9.00000         0.012467     -0.024377     -0.401405
      0.00000      4.22777     11.11389        -0.014992     -0.001980      0.367540
      2.11389      6.34166     11.11389        -0.018592     -0.006755      0.361315
      0.00000      6.34166      9.00000        -0.019668      0.001621     -0.403902
      2.11389      4.22777      9.00000        -0.008344     -0.008344     -0.404290
      0.00000      8.45554     11.11389        -0.017591      0.003115      0.361526
      2.11389     10.56943     11.11389         0.001498      0.038946      0.346777
      0.00000     10.56943      9.00000        -0.001991      0.010620     -0.406288
      2.11389      8.45554      9.00000        -0.012457      0.011741     -0.409972
      0.00000     12.68331     11.11389         0.015620      0.013048      0.357135
      2.11389     14.79720     11.11389         0.077195      0.025257      0.346640
      0.00000     14.79720      9.00000         0.034114      0.004316     -0.403925
      2.11389     12.68331      9.00000         0.043269      0.050994     -0.408490
      0.00000     16.91108     11.11389         0.033814     -0.004474      0.362835
      2.11389     19.02497     11.11389         0.042796     -0.042814      0.364374
      0.00000     19.02497      9.00000         0.024369     -0.012482     -0.401404
      2.11389     16.91108      9.00000         0.068107     -0.029993     -0.396071
      4.22777      0.00000     11.11389         0.004453     -0.033814      0.362835
      6.34166      2.11389     11.11389         0.003115     -0.017591      0.361526
      4.22777      2.11389      9.00000         0.001621     -0.019668     -0.403902
      6.34166      0.00000      9.00000        -0.004341     -0.034106     -0.403923
      4.22777      4.22777     11.11389        -0.006755     -0.018592      0.361315
      6.34166      6.34166     11.11389        -0.005854     -0.035651      0.332380
      4.22777      6.34166      9.00000        -0.007847     -0.007847     -0.412909
      6.34166      4.22777      9.00000         0.011741     -0.012457     -0.409972
      4.22777      8.45554     11.11389        -0.035651     -0.005854      0.332380
      6.34166     10.56943     11.11389        -0.063933      0.009856      0.184227
      4.22777     10.56943      9.00000        -0.007777      0.062387     -0.426961
      6.34166      8.45554      9.00000        -0.003301     -0.003301     -0.451237
      4.22777     12.68331     11.11389         0.064523      0.221042      0.280873
      6.34166     14.79720     11.11389        -0.233120      0.233136      0.981169
      4.22777     14.79720      9.00000         0.218482      0.034463     -0.255477
      6.34166     12.68331      9.00000        -0.043485      0.234770     -0.328900
      4.22777     16.91108     11.11389         0.173498     -0.173542      0.374910
      6.34166     19.02497     11.11389        -0.025301     -0.077181      0.346629
      4.22777     19.02497      9.00000         0.029958     -0.068124     -0.396068
      6.34166     16.91108      9.00000        -0.034520     -0.218471     -0.255521
      8.45554      0.00000     11.11389        -0.013073     -0.015596      0.357122
     10.56943      2.11389     11.11389         0.013048      0.015620      0.357135
      8.45554      2.11389      9.00000         0.010620     -0.001991     -0.406288
     10.56943      0.00000      9.00000        -0.010642      0.002009     -0.406293
      8.45554      4.22777     11.11389         0.038946      0.001498      0.346777
     10.56943      6.34166     11.11389         0.221042      0.064523      0.280873
      8.45554      6.34166      9.00000         0.062387     -0.007777     -0.426961
     10.56943      4.22777      9.00000         0.050994      0.043269     -0.408490
      8.45554      8.45554     11.11389         0.009856     -0.063933      0.184227
     10.56943     10.56943     11.11389         0.037109     -0.037483     -0.208397
      8.45554     10.56943      9.00000         0.015670      0.015670     -0.471903
     10.56943      8.45554      9.00000         0.234770     -0.043485     -0.328900
      8.45554     12.68331     11.11389        -0.037483      0.037109     -0.208397
     10.56943     14.79720     11.11389        -0.009797      0.063944      0.184022
      8.45554     14.79720      9.00000        -0.234818      0.043423     -0.328954
     10.56943     12.68331      9.00000        -0.015752     -0.015752     -0.471928
      8.45554     16.91108     11.11389        -0.221089     -0.064358      0.280728
     10.56943     19.02497     11.11389        -0.038967     -0.001467      0.346760
      8.45554     19.02497      9.00000        -0.051021     -0.043257     -0.408496
     10.56943     16.91108      9.00000        -0.062420      0.007800     -0.426993
     12.68331      0.00000     11.11389        -0.003132      0.017611      0.361522
     14.79720      2.11389     11.11389        -0.004474      0.033814      0.362835
     12.68331      2.11389      9.00000         0.004316      0.034114     -0.403925
     14.79720      0.00000      9.00000        -0.001634      0.019675     -0.403904
     12.68331      4.22777     11.11389         0.025257      0.077195      0.346640
     14.79720      6.34166     11.11389        -0.173542      0.173498      0.374910
     12.68331      6.34166      9.00000         0.034463      0.218482     -0.255477
     14.79720      4.22777      9.00000        -0.029993      0.068107     -0.396071
     12.68331      8.45554     11.11389         0.233136     -0.233120      0.981169
     14.79720     10.56943     11.11389        -0.064358     -0.221089      0.280728
     12.68331     10.56943      9.00000         0.043423     -0.234818     -0.328954
     14.79720      8.45554      9.00000        -0.218471     -0.034520     -0.255521
     12.68331     12.68331     11.11389         0.063944     -0.009797      0.184022
     14.79720     14.79720     11.11389         0.035682      0.005867      0.332352
     12.68331     14.79720      9.00000         0.003299      0.003299     -0.451292
     14.79720     12.68331      9.00000         0.007800     -0.062420     -0.426993
     12.68331     16.91108     11.11389         0.005867      0.035682      0.332352
     14.79720     19.02497     11.11389         0.006756      0.018608      0.361313
     12.68331     19.02497      9.00000        -0.011757      0.012471     -0.409981
     14.79720     16.91108      9.00000         0.007851      0.007851     -0.412929
     16.91108      0.00000     11.11389         0.001973      0.014993      0.367537
     19.02497      2.11389     11.11389        -0.009772      0.009761      0.368886
     16.91108      2.11389      9.00000        -0.012482      0.024369     -0.401404
     19.02497      0.00000      9.00000         0.003978      0.003978     -0.401962
     16.91108      4.22777     11.11389        -0.042814      0.042796      0.364374
     19.02497      6.34166     11.11389        -0.033814      0.004453      0.362835
     16.91108      6.34166      9.00000        -0.068124      0.029958     -0.396068
     19.02497      4.22777      9.00000        -0.024377      0.012467     -0.401405
     16.91108      8.45554     11.11389        -0.077181     -0.025301      0.346629
     19.02497     10.56943     11.11389        -0.015596     -0.013073      0.357122
     16.91108     10.56943      9.00000        -0.043257     -0.051021     -0.408496
     19.02497      8.45554      9.00000        -0.034106     -0.004341     -0.403923
     16.91108     12.68331     11.11389        -0.001467     -0.038967      0.346760
     19.02497     14.79720     11.11389         0.017611     -0.003132      0.361522
     16.91108     14.79720      9.00000         0.012471     -0.011757     -0.409981
     19.02497     12.68331      9.00000         0.002009     -0.010642     -0.406293
     16.91108     16.91108     11.11389         0.018608      0.006756      0.361313
     19.02497     19.02497     11.11389         0.014993      0.001973      0.367537
     16.91108     19.02497      9.00000         0.008345      0.008345     -0.404296
     19.02497     16.91108      9.00000         0.019675     -0.001634     -0.403904
 -----------------------------------------------------------------------------------
    total drift:                               -0.727782      0.731141     -0.358622


--------------------------------------------------------------------------------------------------------



  FREE ENERGIE OF THE ION-ELECTRON SYSTEM (eV)
  ---------------------------------------------------
  free  energy   TOTEN  =      -794.07986769 eV

  energy  without entropy=     -794.07986769  energy(sigma->0) =     -794.07986769



--------------------------------------------------------------------------------------------------------


    POTLOK:  cpu time      2.0557: real time      2.0563


--------------------------------------------------------------------------------------------------------


     LOOP+:  cpu time    368.8044: real time    368.9362
    4ORBIT:  cpu time      0.0000: real time      0.0000

 total amount of memory used by VASP MPI-rank0   187379. kBytes
=======================================================================

   base      :      30000. kBytes
   nonlr-proj:      38882. kBytes
   fftplans  :      35474. kBytes
   grid      :      50022. kBytes
   one-center:        793. kBytes
   wavefun   :      32208. kBytes

  
  
 General timing and accounting informations for this job:
 ========================================================
  
                  Total CPU time used (sec):      408.858
                            User time (sec):      406.486
                          System time (sec):        2.372
                         Elapsed time (sec):      410.884
  
                   Maximum memory used (kb):      504092.
                   Average memory used (kb):          N/A
  
                          Minor page faults:       102495
                          Major page faults:            0
                 Voluntary context switches:         9752
