 vasp.6.3.2 27Jun22 (build Jan 05 2024 11:34:19) complex                        
  
 executed on           IFC15_impi date 2024.01.08  19:33:36
 running   64 mpi-ranks, with    1 threads/rank
 distrk:  each k-point on   64 cores,    1 groups
 distr:  one band on NCORE=   2 cores,   32 groups


--------------------------------------------------------------------------------------------------------


 INCAR:
   SYSTEM = MgO-rocksalt
   ISMEAR = 0
   SIGMA = 0.05
   EDIFF = 1E-6
   ALGO = ALL
   ISTART = 0
   IBRION = -1
   NSW = 0
   ISYM = 2
   METAGGA = M06L
   ENCUT = 520
   PREC = Accurate
   LASPH = .TRUE.
   LREAL = Auto
   ISPIN = 1
   NELM = 2000
   NELMIN = 8
   NCORE = 2
   LWAVE = .FALSE.
   LCHARG = .FALSE.

 POTCAR:    PAW_PBE Ag 02Apr2005                  
 POTCAR:    PAW_PBE Ag 02Apr2005                  
   SHA256 =  6550cfa3543261e132c169e1b98a529204624d72be14e2da2e0242bcb74a174d Ag/POTCAR             
   COPYR  = (c) Copyright 02Apr2005 Georg Kresse                                                    
   COPYR  = This file is part of the software VASP. Any use, copying, and all other rights are regul
   COPYR  = If you do not have a valid VASP license, you may not use, copy or distribute this file. 
   VRHFIN =Ag : s1 d10                                                                              
   LEXCH  = PE                                                                                      
   EATOM  =  1037.2675 eV,   76.2370 Ry                                                             
                                                                                                    
   TITEL  = PAW_PBE Ag 02Apr2005                                                                    
   LULTRA =        F    use ultrasoft PP ?                                                          
   IUNSCR =        1    unscreen: 0-lin 1-nonlin 2-no                                               
   RPACOR =    2.000    partial core radius                                                         
   POMASS =  107.868; ZVAL   =   11.000    mass and valenz                                          
   RCORE  =    2.500    outmost cutoff radius                                                       
   RWIGS  =    2.840; RWIGS  =    1.503    wigner-seitz radius (au A)                               
   ENMAX  =  249.844; ENMIN  =  187.383 eV                                                          
   ICORE  =        3    local potential                                                             
   LCOR   =        T    correct aug charges                                                         
   LPAW   =        T    paw PP                                                                      
   EAUG   =  412.496                                                                                
   DEXC   =    0.000                                                                                
   RMAX   =    2.560    core radius for proj-oper                                                   
   RAUG   =    1.300    factor for augmentation sphere                                              
   RDEP   =    2.576    radius for radial grids                                                     
   RDEPT  =    2.072    core radius for aug-charge                                                  
                                                                                                    
   Atomic configuration                                                                             
   12 entries                                                                                       
     n  l   j            E        occ.                                                              
     1  0  0.50    -25324.9161   2.0000                                                             
     2  0  0.50     -3728.5341   2.0000                                                             
     2  1  1.50     -3344.0404   6.0000                                                             
     3  0  0.50      -683.5581   2.0000                                                             
     3  1  1.50      -557.3225   6.0000                                                             
     3  2  2.50      -358.3853  10.0000                                                             
     4  0  0.50       -95.0341   2.0000                                                             
     4  1  1.50       -58.5511   6.0000                                                             
     4  2  2.50        -7.4440  10.0000                                                             
     5  0  0.50        -4.4045   1.0000                                                             
     5  1  0.50        -1.3606   0.0000                                                             
     4  3  2.50        -1.3606   0.0000                                                             
   Description                                                                                      
     l       E           TYP  RCUT    TYP  RCUT                                                     
     2     -7.4439781     23  2.400                                                                 
     2     -8.8045607     23  2.400                                                                 
     0     -4.4044681     23  2.400                                                                 
     0      1.9520038     23  2.400                                                                 
     1     -1.3605826     23  2.500                                                                 
     1     27.2116520     23  2.500                                                                 
     3     -4.0817478     23  2.400                                                                 
  local pseudopotential read in
  partial core-charges read in
  partial kinetic energy density read in
  atomic valenz-charges read in
  non local Contribution for L=           2  read in
    real space projection operators read in
  non local Contribution for L=           2  read in
    real space projection operators read in
  non local Contribution for L=           0  read in
    real space projection operators read in
  non local Contribution for L=           0  read in
    real space projection operators read in
  non local Contribution for L=           1  read in
    real space projection operators read in
  non local Contribution for L=           1  read in
    real space projection operators read in
    PAW grid and wavefunctions read in
 
   number of l-projection  operators is LMAX  =           6
   number of lm-projection operators is LMMAX =          18
 
 -----------------------------------------------------------------------------
|                                                                             |
|               ----> ADVICE to this user running VASP <----                  |
|                                                                             |
|     You have a (more or less) 'small supercell' and for smaller cells       |
|     it is recommended to use the reciprocal-space projection scheme!        |
|     The real-space optimization is not efficient for small cells and it     |
|     is also less accurate ...                                               |
|     Therefore, set LREAL=.FALSE. in the INCAR file.                         |
|                                                                             |
 -----------------------------------------------------------------------------

 Optimization of the real space projectors (new method)

 maximal supplied QI-value         = 15.12
 optimisation between [QCUT,QGAM] = [ 11.64, 23.28] = [ 37.95,151.78] Ry 
 Optimized for a Real-space Cutoff    1.45 Angstroem

   l    n(q)    QCUT    max X(q) W(low)/X(q) W(high)/X(q)  e(spline) 
   2      9    11.641    53.897    0.22E-03    0.42E-04    0.28E-06
   2      9    11.641    52.416    0.23E-03    0.44E-04    0.29E-06
   0     10    11.641   122.045    0.51E-04    0.25E-04    0.16E-06
   0     10    11.641    73.629    0.49E-04    0.24E-04    0.16E-06
   1     10    11.641    15.255    0.99E-04    0.55E-04    0.11E-06
   1     10    11.641     9.562    0.81E-04    0.47E-04    0.95E-07
  PAW_PBE Ag 02Apr2005                  :
 energy of atom  1       EATOM=-1037.2675
 kinetic energy error for atom=    0.0047 (will be added to EATOM!!)
 
 
 POSCAR: Ag
  positions in direct lattice
  velocities in cartesian coordinates

 METAGGA = M06L     LMAXTAU =  6    LMIXTAU =  F

 exchange correlation table for  LEXCH =        8
   RHO(1)=    0.500       N(1)  =     2000
   RHO(2)=  100.500       N(2)  =     4000

 VTST: version 4.1, (05/19/21)

 CHAIN: initializing optimizer
 
 OPT: Using VASP Dynamics algorithm
 CHAIN: Read ICHAIN            0
 
 POSCAR: Ag
  positions in direct lattice
  velocities in cartesian coordinates
 


--------------------------------------------------------------------------------------------------------


 ion  position               nearest neighbor table
   1  0.459  0.344  0.543-   3 2.60   4 2.70
   2  0.532  0.526  0.446-   5 2.60   4 2.63   3 2.74   6 3.04
   3  0.468  0.474  0.555-   1 2.60   6 2.63   2 2.74   4 3.05
   4  0.523  0.396  0.436-   2 2.63   1 2.70   3 3.05
   5  0.541  0.656  0.456-   2 2.60   6 2.71
   6  0.477  0.604  0.564-   3 2.63   5 2.71   2 3.04
 
  LATTYP: Found a simple cubic cell.
 ALAT       =    20.0000000000
  
  Lattice vectors:
  
 A1 = (  20.0000000000,   0.0000000000,   0.0000000000)
 A2 = (   0.0000000000,  20.0000000000,   0.0000000000)
 A3 = (   0.0000000000,   0.0000000000,  20.0000000000)


Analysis of symmetry for initial positions (statically):
=====================================================================
 Subroutine PRICEL returns:
 Original cell was already a primitive cell.
 

 Routine SETGRP: Setting up the symmetry group for a 
 simple cubic supercell.


 Subroutine GETGRP returns: Found  1 space group operations
 (whereof  1 operations were pure point group operations)
 out of a pool of 48 trial point group operations.


The static configuration has the point symmetry C_1 .


Analysis of symmetry for dynamics (positions and initial velocities):
=====================================================================
 Subroutine PRICEL returns:
 Original cell was already a primitive cell.
 

 Routine SETGRP: Setting up the symmetry group for a 
 simple cubic supercell.


 Subroutine GETGRP returns: Found  1 space group operations
 (whereof  1 operations were pure point group operations)
 out of a pool of 48 trial point group operations.


The dynamic configuration has the point symmetry C_1 .


 Subroutine INISYM returns: Found  1 space group operations
 (whereof  1 operations are pure point group operations),
 and found     1 'primitive' translations


----------------------------------------------------------------------------------------

                                     Primitive cell                                     

  volume of cell :    8000.0000

  direct lattice vectors                    reciprocal lattice vectors
    20.000000000  0.000000000  0.000000000     0.050000000  0.000000000  0.000000000
     0.000000000 20.000000000  0.000000000     0.000000000  0.050000000  0.000000000
     0.000000000  0.000000000 20.000000000     0.000000000  0.000000000  0.050000000

  length of vectors
    20.000000000 20.000000000 20.000000000     0.050000000  0.050000000  0.050000000

  position of ions in fractional coordinates (direct lattice)
     0.459156505  0.344440884  0.543437521
     0.531713138  0.526369565  0.445627435
     0.468108492  0.473648908  0.554679367
     0.522675558  0.395690157  0.435604448
     0.540924936  0.655612949  0.456386841
     0.477353056  0.604318885  0.564274097

  ion indices of the primitive-cell ions
   primitive index   ion index
                 1           1
                 2           2
                 3           3
                 4           4
                 5           5
                 6           6

----------------------------------------------------------------------------------------

 
 
 KPOINTS: KPOINTS created by Atomic Simulation Env

Automatic generation of k-mesh.
 Grid dimensions read from file:
 generate k-points for:    1    1    1

 Generating k-lattice:

  Cartesian coordinates                     Fractional coordinates (reciprocal lattice)
     0.050000000  0.000000000  0.000000000     1.000000000  0.000000000  0.000000000
     0.000000000  0.050000000  0.000000000     0.000000000  1.000000000  0.000000000
     0.000000000  0.000000000  0.050000000     0.000000000  0.000000000  1.000000000

  Length of vectors
     0.050000000  0.050000000  0.050000000

  Shift w.r.t. Gamma in fractional coordinates (k-lattice)
     0.000000000  0.000000000  0.000000000

 
 Subroutine IBZKPT returns following result:
 ===========================================
 
 Found      1 irreducible k-points:
 
 Following reciprocal coordinates:
            Coordinates               Weight
  0.000000  0.000000  0.000000      1.000000
 
 Following cartesian coordinates:
            Coordinates               Weight
  0.000000  0.000000  0.000000      1.000000
 


--------------------------------------------------------------------------------------------------------




 Dimension of arrays:
   k-points           NKPTS =      1   k-points in BZ     NKDIM =      1   number of bands    NBANDS=     64
   number of dos      NEDOS =    301   number of ions     NIONS =      6
   non local maximal  LDIM  =      6   non local SUM 2l+1 LMDIM =     18
   total plane-waves  NPLWV = ******
   max r-space proj   IRMAX =   5390   max aug-charges    IRDMAX=  20940
   dimension x,y,z NGX =   150 NGY =  150 NGZ =  150
   dimension x,y,z NGXF=   300 NGYF=  300 NGZF=  300
   support grid    NGXF=   300 NGYF=  300 NGZF=  300
   ions per type =               6
   NGX,Y,Z   is equivalent  to a cutoff of  12.47, 12.47, 12.47 a.u.
   NGXF,Y,Z  is equivalent  to a cutoff of  24.94, 24.94, 24.94 a.u.

 SYSTEM =  MgO-rocksalt                            
 POSCAR =  Ag                                      

 Startparameter for this run:
   NWRITE =      2    write-flag & timer
   PREC   = accura    normal or accurate (medium, high low for compatibility)
   ISTART =      0    job   : 0-new  1-cont  2-samecut
   ICHARG =      2    charge: 1-file 2-atom 10-const
   ISPIN  =      1    spin polarized calculation?
   LNONCOLLINEAR =      F non collinear calculations
   LSORBIT =      F    spin-orbit coupling
   INIWAV =      1    electr: 0-lowe 1-rand  2-diag
   LASPH  =      T    aspherical Exc in radial PAW
 Electronic Relaxation 1
   ENCUT  =  520.0 eV  38.22 Ry    6.18 a.u.  37.19 37.19 37.19*2*pi/ulx,y,z
   ENINI  =  520.0     initial cutoff
   ENAUG  =  412.5 eV  augmentation charge cutoff
   NELM   =   2000;   NELMIN=  8; NELMDL= -5     # of ELM steps 
   EDIFF  = 0.1E-05   stopping-criterion for ELM
   LREAL  =      T    real-space projection
   NLSPLINE    = F    spline interpolate recip. space projectors
   LCOMPAT=      F    compatible to vasp.4.4
   GGA_COMPAT  = T    GGA compatible to vasp.4.4-vasp.4.6
   LMAXPAW     = -100 max onsite density
   LMAXMIX     =    2 max onsite mixed and CHGCAR
   VOSKOWN=      0    Vosko Wilk Nusair interpolation
   ROPT   =   -0.00025
 Ionic relaxation
   EDIFFG = 0.1E-04   stopping-criterion for IOM
   NSW    =      0    number of steps for IOM
   NBLOCK =      1;   KBLOCK =      1    inner block; outer block 
   IBRION =     -1    ionic relax: 0-MD 1-quasi-New 2-CG
   NFREE  =      0    steps in history (QN), initial steepest desc. (CG)
   ISIF   =      2    stress and relaxation
   IWAVPR =     10    prediction:  0-non 1-charg 2-wave 3-comb
   ISYM   =      2    0-nonsym 1-usesym 2-fastsym
   LCORR  =      T    Harris-Foulkes like correction to forces

   POTIM  = 0.5000    time-step for ionic-motion
   TEIN   =    0.0    initial temperature
   TEBEG  =    0.0;   TEEND  =   0.0 temperature during run
   SMASS  =  -3.00    Nose mass-parameter (am)
   estimated Nose-frequenzy (Omega)   =  0.10E-29 period in steps = 0.13E+47 mass=  -0.914E-26a.u.
   SCALEE = 1.0000    scale energy and forces
   NPACO  =    256;   APACO  = 10.0  distance and # of slots for P.C.
   PSTRESS=    0.0 pullay stress

  Mass of Ions in am
   POMASS = 107.87
  Ionic Valenz
   ZVAL   =  11.00
  Atomic Wigner-Seitz radii
   RWIGS  =  -1.00
  virtual crystal weights 
   VCA    =   1.00
   NELECT =      66.0000    total number of electrons
   NUPDOWN=      -1.0000    fix difference up-down

 DOS related values:
   EMIN   =  10.00;   EMAX   =-10.00  energy-range for DOS
   EFERMI =   0.00
   ISMEAR =     0;   SIGMA  =   0.05  broadening in eV -4-tet -1-fermi 0-gaus

 Electronic relaxation 2 (details)
   IALGO  =     58    algorithm
   LDIAG  =      T    sub-space diagonalisation (order eigenvalues)
   LSUBROT=      F    optimize rotation matrix (better conditioning)
   TURBO    =      0    0=normal 1=particle mesh
   IRESTART =      0    0=no restart 2=restart with 2 vectors
   NREBOOT  =      0    no. of reboots
   NMIN     =      0    reboot dimension
   EREF     =   0.00    reference energy to select bands
   IMIX   =      4    mixing-type and parameters
     AMIX     =   0.40;   BMIX     =  1.00
     AMIX_MAG =   1.60;   BMIX_MAG =  1.00
     AMIN     =   0.10
     WC   =   100.;   INIMIX=   1;  MIXPRE=   1;  MAXMIX= -45

 Intra band minimization:
   WEIMIN = 0.0000     energy-eigenvalue tresh-hold
   EBREAK =  0.39E-08  absolut break condition
   DEPER  =   0.30     relativ break condition  

   TIME   =   0.40     timestep for ELM

  volume/ion in A,a.u.               =    1333.33      8997.78
  Fermi-wavevector in a.u.,A,eV,Ry     =   0.330795  0.625113  1.488826  0.109426
  Thomas-Fermi vector in A             =   1.226404
 
 Write flags
   LWAVE        =      F    write WAVECAR
   LDOWNSAMPLE  =      F    k-point downsampling of WAVECAR
   LCHARG       =      F    write CHGCAR
   LVTOT        =      F    write LOCPOT, total local potential
   LVHAR        =      F    write LOCPOT, Hartree potential only
   LELF         =      F    write electronic localiz. function (ELF)
   LORBIT       =      0    0 simple, 1 ext, 2 COOP (PROOUT), +10 PAW based schemes


 Dipole corrections
   LMONO  =      F    monopole corrections only (constant potential shift)
   LDIPOL =      F    correct potential (dipole corrections)
   IDIPOL =      0    1-x, 2-y, 3-z, 4-all directions 
   EPSILON=  1.0000000 bulk dielectric constant

 Exchange correlation treatment:
   GGA     =    --    GGA type
   LEXCH   =     8    internal setting for exchange type
   LIBXC   =     F    Libxc                    
   VOSKOWN =     0    Vosko Wilk Nusair interpolation
   LHFCALC =     F    Hartree Fock is set to
   LHFONE  =     F    Hartree Fock one center treatment
   AEXX    =    0.0000 exact exchange contribution

 Linear response parameters
   LEPSILON=     F    determine dielectric tensor
   LRPA    =     F    only Hartree local field effects (RPA)
   LNABLA  =     F    use nabla operator in PAW spheres
   LVEL    =     F    velocity operator in full k-point grid
   CSHIFT  =0.1000    complex shift for real part using Kramers Kronig
   OMEGAMAX=  -1.0    maximum frequency
   DEG_THRESHOLD= 0.2000000E-02 threshold for treating states as degnerate
   RTIME   =   -0.100 relaxation time in fs
  (WPLASMAI=    0.000 imaginary part of plasma frequency in eV, 0.658/RTIME)
   DFIELD  = 0.0000000 0.0000000 0.0000000 field for delta impulse in time
 
  Optional k-point grid parameters
   LKPOINTS_OPT  =     F    use optional k-point grid
   KPOINTS_OPT_MODE=     1    mode for optional k-point grid
 
 Orbital magnetization related:
   ORBITALMAG=     F  switch on orbital magnetization
   LCHIMAG   =     F  perturbation theory with respect to B field
   DQ        =  0.001000  dq finite difference perturbation B field
   LLRAUG    =     F  two centre corrections for induced B field



--------------------------------------------------------------------------------------------------------


 Static calculation
 charge density and potential will be updated during run
 non-spin polarized calculation
 Conjugate gradient for all bands (Freysoldt, et al. PRB 79, 241103 (2009))
 preconditioned conjugated gradient                                        
 perform sub-space diagonalisation
    before iterative eigenvector-optimisation
 modified Broyden-mixing scheme, WC =      100.0
 initial mixing is a Kerker type mixing with AMIX =  0.4000 and BMIX =      1.0000
 Hartree-type preconditioning will be used
 using additional bands           31
 real space projection scheme for non local part
 use partial core corrections
 no Harris-corrections to forces 
 use gradient corrections 
 use of overlap-Matrix (Vanderbilt PP)
 Gauss-broadening in eV      SIGMA  =   0.05


--------------------------------------------------------------------------------------------------------


  energy-cutoff  :      520.00
  volume of cell :     8000.00
      direct lattice vectors                 reciprocal lattice vectors
    20.000000000  0.000000000  0.000000000     0.050000000  0.000000000  0.000000000
     0.000000000 20.000000000  0.000000000     0.000000000  0.050000000  0.000000000
     0.000000000  0.000000000 20.000000000     0.000000000  0.000000000  0.050000000

  length of vectors
    20.000000000 20.000000000 20.000000000     0.050000000  0.050000000  0.050000000


 
 k-points in units of 2pi/SCALE and weight: KPOINTS created by Atomic Simulation Env
   0.00000000  0.00000000  0.00000000       1.000
 
 k-points in reciprocal lattice and weights: KPOINTS created by Atomic Simulation Env
   0.00000000  0.00000000  0.00000000       1.000
 
 position of ions in fractional coordinates (direct lattice) 
   0.45915651  0.34444088  0.54343752
   0.53171314  0.52636957  0.44562743
   0.46810849  0.47364891  0.55467937
   0.52267556  0.39569016  0.43560445
   0.54092494  0.65561295  0.45638684
   0.47735306  0.60431888  0.56427410
 
 position of ions in cartesian coordinates  (Angst):
   9.18313010  6.88881767 10.86875042
  10.63426275 10.52739130  8.91254869
   9.36216984  9.47297816 11.09358734
  10.45351117  7.91380313  8.71208896
  10.81849872 13.11225899  9.12773682
   9.54706112 12.08637770 11.28548195
 


--------------------------------------------------------------------------------------------------------


 k-point   1 :   0.0000 0.0000 0.0000  plane waves:  215503

 maximum and minimum number of plane-waves per node :    107789   107714

 maximum number of plane-waves:    215503
 maximum index in each direction: 
   IXMAX=   37   IYMAX=   37   IZMAX=   37
   IXMIN=  -37   IYMIN=  -37   IZMIN=  -37


 real space projection operators:
  total allocation   :       4371.19 KBytes
  max/ min on nodes  :       2185.73       2185.45


 parallel 3D FFT for wavefunctions:
    minimum data exchange during FFTs selected (reduces bandwidth)
 parallel 3D FFT for charge:
    minimum data exchange during FFTs selected (reduces bandwidth)


 total amount of memory used by VASP MPI-rank0   255622. kBytes
=======================================================================

   base      :      30000. kBytes
   nonlr-proj:       3232. kBytes
   fftplans  :      64991. kBytes
   grid      :     147000. kBytes
   one-center:         46. kBytes
   wavefun   :      10353. kBytes
 
     INWAV:  cpu time      0.0001: real time      0.0001
 Broyden mixing: mesh for mixing (old mesh)
   NGX = 75   NGY = 75   NGZ = 75
  (NGX  =300   NGY  =300   NGZ  =300)
  gives a total of 421875 points

 initial charge density was supplied:
 charge density of overlapping atoms calculated
 number of electron      66.0000000 magnetization 
 keeping initial charge density in first step


--------------------------------------------------------------------------------------------------------


 Maximum index for non-local projection operator         2596
 Maximum index for augmentation-charges          596 (set IRDMAX)


--------------------------------------------------------------------------------------------------------


 First call to EWALD:  gamma=   0.089
 Maximum number of real-space cells 3x 3x 3
 Maximum number of reciprocal cells 3x 3x 3

    FEWALD:  cpu time      0.0066: real time      0.0066


--------------------------------------- Iteration      1(   1)  ---------------------------------------


    POTLOK:  cpu time      1.3818: real time      1.3860
    SETDIJ:  cpu time      4.7101: real time      4.7128
    TRIAL :  cpu time      6.1302: real time      6.1825
    CORREC:  cpu time      0.0016: real time      0.0016
    --------------------------------------------
      LOOP:  cpu time     12.2318: real time     12.2948

 eigenvalue-minimisations  :   128
 total energy-change (2. order) : 0.4472135E+03  (-0.1241075E+04)
 number of electron      66.0000000 magnetization 
 augmentation part       66.0000000 magnetization 

 Free energy of the ion-electron system (eV)
  ---------------------------------------------------
  alpha Z        PSCENC =         3.82760131
  Ewald energy   TEWEN  =      3468.15398447
  -Hartree energ DENC   =     -9412.04390781
  -exchange      EXHF   =         0.00000000
  -V(xc)+E(xc)   XCENC  =      -240.74290964
  PAW double counting   =      6107.02917595    -5790.77861164
  entropy T*S    EENTRO =        -0.06186896
  eigenvalues    EBANDS =        88.25332892
  atomic energy  EATOM  =      6223.57668875
  ---------------------------------------------------
  free energy    TOTEN  =       447.21348135 eV

  energy without entropy =      447.27535031  energy(sigma->0) =      447.24441583


--------------------------------------------------------------------------------------------------------




--------------------------------------- Iteration      1(   2)  ---------------------------------------


    TRIAL :  cpu time      9.3325: real time      9.3413
    CORREC:  cpu time      0.0014: real time      0.0014
    --------------------------------------------
      LOOP:  cpu time      9.3363: real time      9.3525

 eigenvalue-minimisations  :   256
 total energy-change (2. order) :-0.3085500E+03  (-0.2882908E+03)
 number of electron      66.0000000 magnetization 
 augmentation part       66.0000000 magnetization 

 Free energy of the ion-electron system (eV)
  ---------------------------------------------------
  alpha Z        PSCENC =         3.82760131
  Ewald energy   TEWEN  =      3468.15398447
  -Hartree energ DENC   =     -9412.04390781
  -exchange      EXHF   =         0.00000000
  -V(xc)+E(xc)   XCENC  =      -240.74290964
  PAW double counting   =      6107.02917595    -5790.77861164
  entropy T*S    EENTRO =        -0.00137226
  eigenvalues    EBANDS =      -220.35712993
  atomic energy  EATOM  =      6223.57668875
  ---------------------------------------------------
  free energy    TOTEN  =       138.66351920 eV

  energy without entropy =      138.66489146  energy(sigma->0) =      138.66420533


--------------------------------------------------------------------------------------------------------




--------------------------------------- Iteration      1(   3)  ---------------------------------------


    TRIAL :  cpu time      9.2960: real time      9.2975
    CORREC:  cpu time      0.0009: real time      0.0009
    --------------------------------------------
      LOOP:  cpu time      9.2990: real time      9.3073

 eigenvalue-minimisations  :   256
 total energy-change (2. order) :-0.1242695E+03  (-0.1191736E+03)
 number of electron      66.0000000 magnetization 
 augmentation part       66.0000000 magnetization 

 Free energy of the ion-electron system (eV)
  ---------------------------------------------------
  alpha Z        PSCENC =         3.82760131
  Ewald energy   TEWEN  =      3468.15398447
  -Hartree energ DENC   =     -9412.04390781
  -exchange      EXHF   =         0.00000000
  -V(xc)+E(xc)   XCENC  =      -240.74290964
  PAW double counting   =      6107.02917595    -5790.77861164
  entropy T*S    EENTRO =        -0.00000001
  eigenvalues    EBANDS =      -344.62803418
  atomic energy  EATOM  =      6223.57668875
  ---------------------------------------------------
  free energy    TOTEN  =        14.39398720 eV

  energy without entropy =       14.39398721  energy(sigma->0) =       14.39398720


--------------------------------------------------------------------------------------------------------




--------------------------------------- Iteration      1(   4)  ---------------------------------------


    TRIAL :  cpu time      5.9295: real time      5.9301
    CORREC:  cpu time      0.0008: real time      0.0008
    --------------------------------------------
      LOOP:  cpu time      5.9322: real time      5.9400

 eigenvalue-minimisations  :   128
 total energy-change (2. order) :-0.6328835E+01  (-0.6266612E+01)
 number of electron      66.0000000 magnetization 
 augmentation part       66.0000000 magnetization 

 Free energy of the ion-electron system (eV)
  ---------------------------------------------------
  alpha Z        PSCENC =         3.82760131
  Ewald energy   TEWEN  =      3468.15398447
  -Hartree energ DENC   =     -9412.04390781
  -exchange      EXHF   =         0.00000000
  -V(xc)+E(xc)   XCENC  =      -240.74290964
  PAW double counting   =      6107.02917595    -5790.77861164
  entropy T*S    EENTRO =        -0.00000001
  eigenvalues    EBANDS =      -350.95686881
  atomic energy  EATOM  =      6223.57668875
  ---------------------------------------------------
  free energy    TOTEN  =         8.06515258 eV

  energy without entropy =        8.06515259  energy(sigma->0) =        8.06515258


--------------------------------------------------------------------------------------------------------




--------------------------------------- Iteration      1(   5)  ---------------------------------------


    TRIAL :  cpu time      7.6100: real time      7.6119
    CORREC:  cpu time      0.0008: real time      0.0008
    CHARGE:  cpu time      1.0253: real time      1.0257
    --------------------------------------------
      LOOP:  cpu time      8.6445: real time      8.6469

 eigenvalue-minimisations  :   192
 total energy-change (2. order) :-0.9941033E-01  (-0.9940891E-01)
 number of electron      66.0000009 magnetization 
 augmentation part       35.5252789 magnetization 

 Free energy of the ion-electron system (eV)
  ---------------------------------------------------
  alpha Z        PSCENC =         3.82760131
  Ewald energy   TEWEN  =      3468.15398447
  -Hartree energ DENC   =     -9412.04390781
  -exchange      EXHF   =         0.00000000
  -V(xc)+E(xc)   XCENC  =      -240.74290964
  PAW double counting   =      6107.02917595    -5790.77861164
  entropy T*S    EENTRO =        -0.00000001
  eigenvalues    EBANDS =      -351.05627913
  atomic energy  EATOM  =      6223.57668875
  ---------------------------------------------------
  free energy    TOTEN  =         7.96574225 eV

  energy without entropy =        7.96574226  energy(sigma->0) =        7.96574226


--------------------------------------------------------------------------------------------------------




--------------------------------------- Iteration      1(   6)  ---------------------------------------


    POTLOK:  cpu time      4.3805: real time      4.3823
    SETDIJ:  cpu time      4.4645: real time      4.4667
    TRIAL :  cpu time      5.4077: real time      5.4133
    CORREC:  cpu time     10.8600: real time     10.8659
    CHARGE:  cpu time      1.0014: real time      1.0015
    --------------------------------------------
      LOOP:  cpu time     26.1164: real time     26.1394

 eigenvalue-minimisations  :     0
 total energy-change (2. order) :-0.7620267E+02  (-0.1916979E+02)
 number of electron      66.0000008 magnetization 
 augmentation part       32.4404002 magnetization 

 Free energy of the ion-electron system (eV)
  ---------------------------------------------------
  alpha Z        PSCENC =         3.82760131
  Ewald energy   TEWEN  =      3468.15398447
  -Hartree energ DENC   =     -9637.28455300
  -exchange      EXHF   =         0.00000000
  -V(xc)+E(xc)   XCENC  =      -172.81847604
  PAW double counting   =      8767.06471025    -8435.36587129
  entropy T*S    EENTRO =        -0.00000000
  eigenvalues    EBANDS =      -285.39100946
  atomic energy  EATOM  =      6223.57668875
  ---------------------------------------------------
  free energy    TOTEN  =       -68.23692502 eV

  energy without entropy =      -68.23692502  energy(sigma->0) =      -68.23692502


--------------------------------------------------------------------------------------------------------




--------------------------------------- Iteration      1(   7)  ---------------------------------------


    POTLOK:  cpu time      4.1778: real time      4.1791
    SETDIJ:  cpu time      4.2574: real time      4.2667
    TRIAL :  cpu time      5.3019: real time      5.3034
    CORREC:  cpu time     10.5537: real time     10.5586
    CHARGE:  cpu time      0.9872: real time      0.9874
    --------------------------------------------
      LOOP:  cpu time     25.2879: real time     25.3052

 eigenvalue-minimisations  :     0
 total energy-change (2. order) :-0.1940944E+02  (-0.3902986E+01)
 number of electron      66.0000008 magnetization 
 augmentation part       32.2519923 magnetization 

 Free energy of the ion-electron system (eV)
  ---------------------------------------------------
  alpha Z        PSCENC =         3.82760131
  Ewald energy   TEWEN  =      3468.15398447
  -Hartree energ DENC   =     -9290.62707476
  -exchange      EXHF   =         0.00000000
  -V(xc)+E(xc)   XCENC  =      -163.15410754
  PAW double counting   =      7409.60135213    -7096.78179537
  entropy T*S    EENTRO =        -0.00000000
  eigenvalues    EBANDS =      -642.24301832
  atomic energy  EATOM  =      6223.57668875
  ---------------------------------------------------
  free energy    TOTEN  =       -87.64636933 eV

  energy without entropy =      -87.64636933  energy(sigma->0) =      -87.64636933


--------------------------------------------------------------------------------------------------------




--------------------------------------- Iteration      1(   8)  ---------------------------------------


    POTLOK:  cpu time      4.0170: real time      4.0175
    SETDIJ:  cpu time      4.2574: real time      4.2602
    TRIAL :  cpu time      5.3326: real time      5.3358
    CORREC:  cpu time     10.3130: real time     10.3169
    CHARGE:  cpu time      0.9932: real time      0.9933
    --------------------------------------------
      LOOP:  cpu time     24.9159: real time     24.9337

 eigenvalue-minimisations  :     0
 total energy-change (2. order) :-0.3962538E+01  (-0.6644128E+00)
 number of electron      66.0000008 magnetization 
 augmentation part       32.2568908 magnetization 

 Free energy of the ion-electron system (eV)
  ---------------------------------------------------
  alpha Z        PSCENC =         3.82760131
  Ewald energy   TEWEN  =      3468.15398447
  -Hartree energ DENC   =     -9431.92690672
  -exchange      EXHF   =         0.00000000
  -V(xc)+E(xc)   XCENC  =      -158.79029174
  PAW double counting   =      7113.13244816    -6802.57039903
  entropy T*S    EENTRO =        -0.00000000
  eigenvalues    EBANDS =      -507.01203293
  atomic energy  EATOM  =      6223.57668875
  ---------------------------------------------------
  free energy    TOTEN  =       -91.60890772 eV

  energy without entropy =      -91.60890772  energy(sigma->0) =      -91.60890772


--------------------------------------------------------------------------------------------------------




--------------------------------------- Iteration      1(   9)  ---------------------------------------


    POTLOK:  cpu time      3.5512: real time      3.5525
    SETDIJ:  cpu time      4.2808: real time      4.2836
    TRIAL :  cpu time      5.3012: real time      5.3041
    CORREC:  cpu time     10.0611: real time     10.0659
    CHARGE:  cpu time      0.9970: real time      0.9975
    --------------------------------------------
      LOOP:  cpu time     24.1950: real time     24.2137

 eigenvalue-minimisations  :     0
 total energy-change (2. order) :-0.6378557E+00  (-0.1758732E+00)
 number of electron      66.0000008 magnetization 
 augmentation part       32.1967408 magnetization 

 Free energy of the ion-electron system (eV)
  ---------------------------------------------------
  alpha Z        PSCENC =         3.82760131
  Ewald energy   TEWEN  =      3468.15398447
  -Hartree energ DENC   =     -9435.70742861
  -exchange      EXHF   =         0.00000000
  -V(xc)+E(xc)   XCENC  =      -158.56112839
  PAW double counting   =      7217.64472067    -6907.22830850
  entropy T*S    EENTRO =        -0.00000000
  eigenvalues    EBANDS =      -503.95289312
  atomic energy  EATOM  =      6223.57668875
  ---------------------------------------------------
  free energy    TOTEN  =       -92.24676343 eV

  energy without entropy =      -92.24676343  energy(sigma->0) =      -92.24676343


--------------------------------------------------------------------------------------------------------




--------------------------------------- Iteration      1(  10)  ---------------------------------------


    POTLOK:  cpu time      3.3462: real time      3.3475
    SETDIJ:  cpu time      4.2538: real time      4.2565
    TRIAL :  cpu time      5.3330: real time      5.3343
    CORREC:  cpu time      9.7978: real time      9.8007
    CHARGE:  cpu time      0.9921: real time      0.9931
    --------------------------------------------
      LOOP:  cpu time     23.7326: real time     23.7420

 eigenvalue-minimisations  :     0
 total energy-change (2. order) :-0.1738039E+00  (-0.6204384E-01)
 number of electron      66.0000008 magnetization 
 augmentation part       32.2328862 magnetization 

 Free energy of the ion-electron system (eV)
  ---------------------------------------------------
  alpha Z        PSCENC =         3.82760131
  Ewald energy   TEWEN  =      3468.15398447
  -Hartree energ DENC   =     -9435.21244091
  -exchange      EXHF   =         0.00000000
  -V(xc)+E(xc)   XCENC  =      -158.44646117
  PAW double counting   =      7426.29656869    -7116.44090109
  entropy T*S    EENTRO =        -0.00000000
  eigenvalues    EBANDS =      -504.17560738
  atomic energy  EATOM  =      6223.57668875
  ---------------------------------------------------
  free energy    TOTEN  =       -92.42056732 eV

  energy without entropy =      -92.42056732  energy(sigma->0) =      -92.42056732


--------------------------------------------------------------------------------------------------------




--------------------------------------- Iteration      1(  11)  ---------------------------------------


    POTLOK:  cpu time      3.1277: real time      3.1284
    SETDIJ:  cpu time      4.2481: real time      4.2509
    TRIAL :  cpu time      5.3169: real time      5.3181
    CORREC:  cpu time      9.6216: real time      9.6268
    CHARGE:  cpu time      0.9888: real time      0.9889
    --------------------------------------------
      LOOP:  cpu time     23.3072: real time     23.3242

 eigenvalue-minimisations  :     0
 total energy-change (2. order) :-0.6178719E-01  (-0.2813439E-01)
 number of electron      66.0000008 magnetization 
 augmentation part       32.2442211 magnetization 

 Free energy of the ion-electron system (eV)
  ---------------------------------------------------
  alpha Z        PSCENC =         3.82760131
  Ewald energy   TEWEN  =      3468.15398447
  -Hartree energ DENC   =     -9444.87490664
  -exchange      EXHF   =         0.00000000
  -V(xc)+E(xc)   XCENC  =      -158.58178586
  PAW double counting   =      7586.34643253    -7276.41541953
  entropy T*S    EENTRO =        -0.00000000
  eigenvalues    EBANDS =      -494.51494955
  atomic energy  EATOM  =      6223.57668875
  ---------------------------------------------------
  free energy    TOTEN  =       -92.48235452 eV

  energy without entropy =      -92.48235452  energy(sigma->0) =      -92.48235452


--------------------------------------------------------------------------------------------------------




--------------------------------------- Iteration      1(  12)  ---------------------------------------


    POTLOK:  cpu time      2.8562: real time      2.8581
    SETDIJ:  cpu time      4.2656: real time      4.2676
    TRIAL :  cpu time      5.3170: real time      5.3179
    CORREC:  cpu time      9.3348: real time      9.3418
    CHARGE:  cpu time      0.9971: real time      0.9974
    --------------------------------------------
      LOOP:  cpu time     22.7762: real time     22.7954

 eigenvalue-minimisations  :     0
 total energy-change (2. order) :-0.2784112E-01  (-0.9536118E-02)
 number of electron      66.0000008 magnetization 
 augmentation part       32.2319447 magnetization 

 Free energy of the ion-electron system (eV)
  ---------------------------------------------------
  alpha Z        PSCENC =         3.82760131
  Ewald energy   TEWEN  =      3468.15398447
  -Hartree energ DENC   =     -9443.94027825
  -exchange      EXHF   =         0.00000000
  -V(xc)+E(xc)   XCENC  =      -158.70570146
  PAW double counting   =      7663.94691411    -7354.09366050
  entropy T*S    EENTRO =        -0.00000000
  eigenvalues    EBANDS =      -495.27574407
  atomic energy  EATOM  =      6223.57668875
  ---------------------------------------------------
  free energy    TOTEN  =       -92.51019564 eV

  energy without entropy =      -92.51019564  energy(sigma->0) =      -92.51019564


--------------------------------------------------------------------------------------------------------




--------------------------------------- Iteration      1(  13)  ---------------------------------------


    POTLOK:  cpu time      2.6474: real time      2.6487
    SETDIJ:  cpu time      4.2533: real time      4.2552
    TRIAL :  cpu time      5.2889: real time      5.2903
    CORREC:  cpu time      9.1662: real time      9.1697
    CHARGE:  cpu time      0.9936: real time      0.9937
    --------------------------------------------
      LOOP:  cpu time     22.3527: real time     22.3676

 eigenvalue-minimisations  :     0
 total energy-change (2. order) :-0.9548188E-02  (-0.4488043E-02)
 number of electron      66.0000008 magnetization 
 augmentation part       32.2293495 magnetization 

 Free energy of the ion-electron system (eV)
  ---------------------------------------------------
  alpha Z        PSCENC =         3.82760131
  Ewald energy   TEWEN  =      3468.15398447
  -Hartree energ DENC   =     -9442.08258902
  -exchange      EXHF   =         0.00000000
  -V(xc)+E(xc)   XCENC  =      -158.69750144
  PAW double counting   =      7658.25734190    -7348.59612959
  entropy T*S    EENTRO =        -0.00000000
  eigenvalues    EBANDS =      -496.95914020
  atomic energy  EATOM  =      6223.57668875
  ---------------------------------------------------
  free energy    TOTEN  =       -92.51974383 eV

  energy without entropy =      -92.51974383  energy(sigma->0) =      -92.51974383


--------------------------------------------------------------------------------------------------------




--------------------------------------- Iteration      1(  14)  ---------------------------------------


    POTLOK:  cpu time      2.4856: real time      2.4865
    SETDIJ:  cpu time      4.2551: real time      4.2592
    TRIAL :  cpu time      5.2978: real time      5.2996
    CORREC:  cpu time      9.1184: real time      9.1220
    CHARGE:  cpu time      0.9966: real time      0.9966
    --------------------------------------------
      LOOP:  cpu time     22.1640: real time     22.1748

 eigenvalue-minimisations  :     0
 total energy-change (2. order) :-0.4485351E-02  (-0.2114869E-02)
 number of electron      66.0000008 magnetization 
 augmentation part       32.2249050 magnetization 

 Free energy of the ion-electron system (eV)
  ---------------------------------------------------
  alpha Z        PSCENC =         3.82760131
  Ewald energy   TEWEN  =      3468.15398447
  -Hartree energ DENC   =     -9444.20251066
  -exchange      EXHF   =         0.00000000
  -V(xc)+E(xc)   XCENC  =      -158.66329023
  PAW double counting   =      7632.05326457    -7322.48985852
  entropy T*S    EENTRO =        -0.00000000
  eigenvalues    EBANDS =      -494.78010887
  atomic energy  EATOM  =      6223.57668875
  ---------------------------------------------------
  free energy    TOTEN  =       -92.52422918 eV

  energy without entropy =      -92.52422918  energy(sigma->0) =      -92.52422918


--------------------------------------------------------------------------------------------------------




--------------------------------------- Iteration      1(  15)  ---------------------------------------


    POTLOK:  cpu time      2.4855: real time      2.4865
    SETDIJ:  cpu time      4.2564: real time      4.2592
    TRIAL :  cpu time      5.3651: real time      5.3654
    CORREC:  cpu time      9.1076: real time      9.1123
    CHARGE:  cpu time      0.9914: real time      0.9937
    --------------------------------------------
      LOOP:  cpu time     22.2102: real time     22.2274

 eigenvalue-minimisations  :     0
 total energy-change (2. order) :-0.2106526E-02  (-0.1077222E-02)
 number of electron      66.0000008 magnetization 
 augmentation part       32.2201096 magnetization 

 Free energy of the ion-electron system (eV)
  ---------------------------------------------------
  alpha Z        PSCENC =         3.82760131
  Ewald energy   TEWEN  =      3468.15398447
  -Hartree energ DENC   =     -9445.40860191
  -exchange      EXHF   =         0.00000000
  -V(xc)+E(xc)   XCENC  =      -158.63114157
  PAW double counting   =      7611.26616622    -7301.75813563
  entropy T*S    EENTRO =        -0.00000000
  eigenvalues    EBANDS =      -493.55289735
  atomic energy  EATOM  =      6223.57668875
  ---------------------------------------------------
  free energy    TOTEN  =       -92.52633570 eV

  energy without entropy =      -92.52633570  energy(sigma->0) =      -92.52633570


--------------------------------------------------------------------------------------------------------




--------------------------------------- Iteration      1(  16)  ---------------------------------------


    POTLOK:  cpu time      2.4725: real time      2.4729
    SETDIJ:  cpu time      4.2534: real time      4.2563
    TRIAL :  cpu time      5.3100: real time      5.3111
    CORREC:  cpu time      9.1313: real time      9.1364
    CHARGE:  cpu time      0.9921: real time      0.9923
    --------------------------------------------
      LOOP:  cpu time     22.1623: real time     22.1814

 eigenvalue-minimisations  :     0
 total energy-change (2. order) :-0.1080194E-02  (-0.7147937E-03)
 number of electron      66.0000008 magnetization 
 augmentation part       32.2228586 magnetization 

 Free energy of the ion-electron system (eV)
  ---------------------------------------------------
  alpha Z        PSCENC =         3.82760131
  Ewald energy   TEWEN  =      3468.15398447
  -Hartree energ DENC   =     -9444.81243696
  -exchange      EXHF   =         0.00000000
  -V(xc)+E(xc)   XCENC  =      -158.62198889
  PAW double counting   =      7605.28073652    -7295.79851385
  entropy T*S    EENTRO =        -0.00000000
  eigenvalues    EBANDS =      -494.13348724
  atomic energy  EATOM  =      6223.57668875
  ---------------------------------------------------
  free energy    TOTEN  =       -92.52741590 eV

  energy without entropy =      -92.52741590  energy(sigma->0) =      -92.52741590


--------------------------------------------------------------------------------------------------------




--------------------------------------- Iteration      1(  17)  ---------------------------------------


    POTLOK:  cpu time      2.4819: real time      2.4832
    SETDIJ:  cpu time      4.2483: real time      4.2511
    TRIAL :  cpu time      5.3220: real time      5.3247
    CORREC:  cpu time      9.1420: real time      9.1438
    CHARGE:  cpu time      0.9959: real time      0.9960
    --------------------------------------------
      LOOP:  cpu time     22.2000: real time     22.2087

 eigenvalue-minimisations  :     0
 total energy-change (2. order) :-0.7077729E-03  (-0.3560142E-03)
 number of electron      66.0000008 magnetization 
 augmentation part       32.2254249 magnetization 

 Free energy of the ion-electron system (eV)
  ---------------------------------------------------
  alpha Z        PSCENC =         3.82760131
  Ewald energy   TEWEN  =      3468.15398447
  -Hartree energ DENC   =     -9445.02163668
  -exchange      EXHF   =         0.00000000
  -V(xc)+E(xc)   XCENC  =      -158.63437738
  PAW double counting   =      7610.70877649    -7301.19964282
  entropy T*S    EENTRO =        -0.00000000
  eigenvalues    EBANDS =      -493.93951781
  atomic energy  EATOM  =      6223.57668875
  ---------------------------------------------------
  free energy    TOTEN  =       -92.52812367 eV

  energy without entropy =      -92.52812367  energy(sigma->0) =      -92.52812367


--------------------------------------------------------------------------------------------------------




--------------------------------------- Iteration      1(  18)  ---------------------------------------


    POTLOK:  cpu time      2.4747: real time      2.4758
    SETDIJ:  cpu time      4.2718: real time      4.2738
    TRIAL :  cpu time      5.3001: real time      5.3011
    CORREC:  cpu time      9.1340: real time      9.1373
    CHARGE:  cpu time      0.9942: real time      0.9943
    --------------------------------------------
      LOOP:  cpu time     22.1782: real time     22.1923

 eigenvalue-minimisations  :     0
 total energy-change (2. order) :-0.3516934E-03  (-0.1326432E-03)
 number of electron      66.0000008 magnetization 
 augmentation part       32.2236271 magnetization 

 Free energy of the ion-electron system (eV)
  ---------------------------------------------------
  alpha Z        PSCENC =         3.82760131
  Ewald energy   TEWEN  =      3468.15398447
  -Hartree energ DENC   =     -9445.74804355
  -exchange      EXHF   =         0.00000000
  -V(xc)+E(xc)   XCENC  =      -158.63873743
  PAW double counting   =      7617.57794308    -7308.05240131
  entropy T*S    EENTRO =        -0.00000000
  eigenvalues    EBANDS =      -493.22551069
  atomic energy  EATOM  =      6223.57668875
  ---------------------------------------------------
  free energy    TOTEN  =       -92.52847536 eV

  energy without entropy =      -92.52847536  energy(sigma->0) =      -92.52847536


--------------------------------------------------------------------------------------------------------




--------------------------------------- Iteration      1(  19)  ---------------------------------------


    POTLOK:  cpu time      2.4838: real time      2.4865
    SETDIJ:  cpu time      4.2527: real time      4.2555
    TRIAL :  cpu time      5.3265: real time      5.3294
    CORREC:  cpu time      9.1191: real time      9.1226
    CHARGE:  cpu time      0.9908: real time      0.9909
    --------------------------------------------
      LOOP:  cpu time     22.1828: real time     22.1949

 eigenvalue-minimisations  :     0
 total energy-change (2. order) :-0.1336675E-03  (-0.5469733E-04)
 number of electron      66.0000008 magnetization 
 augmentation part       32.2230480 magnetization 

 Free energy of the ion-electron system (eV)
  ---------------------------------------------------
  alpha Z        PSCENC =         3.82760131
  Ewald energy   TEWEN  =      3468.15398447
  -Hartree energ DENC   =     -9445.60100965
  -exchange      EXHF   =         0.00000000
  -V(xc)+E(xc)   XCENC  =      -158.63467854
  PAW double counting   =      7619.62239782    -7310.10997456
  entropy T*S    EENTRO =        -0.00000000
  eigenvalues    EBANDS =      -493.36361863
  atomic energy  EATOM  =      6223.57668875
  ---------------------------------------------------
  free energy    TOTEN  =       -92.52860903 eV

  energy without entropy =      -92.52860903  energy(sigma->0) =      -92.52860903


--------------------------------------------------------------------------------------------------------




--------------------------------------- Iteration      1(  20)  ---------------------------------------


    POTLOK:  cpu time      2.4581: real time      2.4593
    SETDIJ:  cpu time      4.2611: real time      4.2636
    TRIAL :  cpu time      5.3411: real time      5.3415
    CORREC:  cpu time      9.1555: real time      9.1603
    CHARGE:  cpu time      0.9939: real time      0.9945
    --------------------------------------------
      LOOP:  cpu time     22.2128: real time     22.2295

 eigenvalue-minimisations  :     0
 total energy-change (2. order) :-0.5518216E-04  (-0.2033048E-04)
 number of electron      66.0000008 magnetization 
 augmentation part       32.2240078 magnetization 

 Free energy of the ion-electron system (eV)
  ---------------------------------------------------
  alpha Z        PSCENC =         3.82760131
  Ewald energy   TEWEN  =      3468.15398447
  -Hartree energ DENC   =     -9445.40042322
  -exchange      EXHF   =         0.00000000
  -V(xc)+E(xc)   XCENC  =      -158.63515244
  PAW double counting   =      7618.89119024    -7309.38309814
  entropy T*S    EENTRO =        -0.00000000
  eigenvalues    EBANDS =      -493.55945518
  atomic energy  EATOM  =      6223.57668875
  ---------------------------------------------------
  free energy    TOTEN  =       -92.52866421 eV

  energy without entropy =      -92.52866421  energy(sigma->0) =      -92.52866421


--------------------------------------------------------------------------------------------------------




--------------------------------------- Iteration      1(  21)  ---------------------------------------


    POTLOK:  cpu time      2.4614: real time      2.4618
    SETDIJ:  cpu time      4.2570: real time      4.2598
    TRIAL :  cpu time      5.3039: real time      5.3051
    CORREC:  cpu time      9.1169: real time      9.1220
    CHARGE:  cpu time      0.9912: real time      0.9911
    --------------------------------------------
      LOOP:  cpu time     22.1415: real time     22.1510

 eigenvalue-minimisations  :     0
 total energy-change (2. order) :-0.2021107E-04  (-0.7476834E-05)
 number of electron      66.0000008 magnetization 
 augmentation part       32.2239899 magnetization 

 Free energy of the ion-electron system (eV)
  ---------------------------------------------------
  alpha Z        PSCENC =         3.82760131
  Ewald energy   TEWEN  =      3468.15398447
  -Hartree energ DENC   =     -9445.48007722
  -exchange      EXHF   =         0.00000000
  -V(xc)+E(xc)   XCENC  =      -158.63786391
  PAW double counting   =      7617.60031874    -7308.08645689
  entropy T*S    EENTRO =        -0.00000000
  eigenvalues    EBANDS =      -493.48287968
  atomic energy  EATOM  =      6223.57668875
  ---------------------------------------------------
  free energy    TOTEN  =       -92.52868442 eV

  energy without entropy =      -92.52868442  energy(sigma->0) =      -92.52868442


--------------------------------------------------------------------------------------------------------




--------------------------------------- Iteration      1(  22)  ---------------------------------------


    POTLOK:  cpu time      2.4804: real time      2.4817
    SETDIJ:  cpu time      4.2583: real time      4.2628
    TRIAL :  cpu time      5.2953: real time      5.2965
    CORREC:  cpu time      9.1168: real time      9.1210
    CHARGE:  cpu time      0.9891: real time      0.9894
    --------------------------------------------
      LOOP:  cpu time     22.1431: real time     22.1619

 eigenvalue-minimisations  :     0
 total energy-change (2. order) :-0.7635175E-05  (-0.2615179E-05)
 number of electron      66.0000008 magnetization 
 augmentation part       32.2236939 magnetization 

 Free energy of the ion-electron system (eV)
  ---------------------------------------------------
  alpha Z        PSCENC =         3.82760131
  Ewald energy   TEWEN  =      3468.15398447
  -Hartree energ DENC   =     -9445.48011254
  -exchange      EXHF   =         0.00000000
  -V(xc)+E(xc)   XCENC  =      -158.63732311
  PAW double counting   =      7616.67013084    -7307.15649442
  entropy T*S    EENTRO =        -0.00000000
  eigenvalues    EBANDS =      -493.48316736
  atomic energy  EATOM  =      6223.57668875
  ---------------------------------------------------
  free energy    TOTEN  =       -92.52869206 eV

  energy without entropy =      -92.52869206  energy(sigma->0) =      -92.52869206


--------------------------------------------------------------------------------------------------------




--------------------------------------- Iteration      1(  23)  ---------------------------------------


    POTLOK:  cpu time      2.4628: real time      2.4643
    SETDIJ:  cpu time      4.2574: real time      4.2597
    TRIAL :  cpu time      5.3334: real time      5.3359
    CORREC:  cpu time      9.1194: real time      9.1262
    CHARGE:  cpu time      0.9961: real time      0.9967
    --------------------------------------------
      LOOP:  cpu time     22.1786: real time     22.1925

 eigenvalue-minimisations  :     0
 total energy-change (2. order) :-0.2328541E-05  (-0.1983232E-05)
 number of electron      66.0000008 magnetization 
 augmentation part       32.2235440 magnetization 

 Free energy of the ion-electron system (eV)
  ---------------------------------------------------
  alpha Z        PSCENC =         3.82760131
  Ewald energy   TEWEN  =      3468.15398447
  -Hartree energ DENC   =     -9445.42883283
  -exchange      EXHF   =         0.00000000
  -V(xc)+E(xc)   XCENC  =      -158.63634497
  PAW double counting   =      7616.43322350    -7306.92132198
  entropy T*S    EENTRO =        -0.00000000
  eigenvalues    EBANDS =      -493.53369263
  atomic energy  EATOM  =      6223.57668875
  ---------------------------------------------------
  free energy    TOTEN  =       -92.52869439 eV

  energy without entropy =      -92.52869439  energy(sigma->0) =      -92.52869439


--------------------------------------------------------------------------------------------------------




--------------------------------------- Iteration      1(  24)  ---------------------------------------


    POTLOK:  cpu time      2.4638: real time      2.4655
    SETDIJ:  cpu time      4.2565: real time      4.2594
    TRIAL :  cpu time      5.3389: real time      5.3429
    CORREC:  cpu time      9.1118: real time      9.1168
    CHARGE:  cpu time      0.9948: real time      0.9949
    --------------------------------------------
      LOOP:  cpu time     22.1690: real time     22.1900

 eigenvalue-minimisations  :     0
 total energy-change (2. order) :-0.1971446E-05  (-0.1421297E-05)
 number of electron      66.0000008 magnetization 
 augmentation part       32.2237219 magnetization 

 Free energy of the ion-electron system (eV)
  ---------------------------------------------------
  alpha Z        PSCENC =         3.82760131
  Ewald energy   TEWEN  =      3468.15398447
  -Hartree energ DENC   =     -9445.38621696
  -exchange      EXHF   =         0.00000000
  -V(xc)+E(xc)   XCENC  =      -158.63577780
  PAW double counting   =      7616.45054529    -7306.93930285
  entropy T*S    EENTRO =        -0.00000000
  eigenvalues    EBANDS =      -493.57621857
  atomic energy  EATOM  =      6223.57668875
  ---------------------------------------------------
  free energy    TOTEN  =       -92.52869636 eV

  energy without entropy =      -92.52869636  energy(sigma->0) =      -92.52869636


--------------------------------------------------------------------------------------------------------




--------------------------------------- Iteration      1(  25)  ---------------------------------------


    POTLOK:  cpu time      2.4667: real time      2.4680
    SETDIJ:  cpu time      4.2509: real time      4.2554
    TRIAL :  cpu time      5.3426: real time      5.3427
    CORREC:  cpu time     36.5059: real time     36.5244
    CHARGE:  cpu time      0.9968: real time      0.9971
    --------------------------------------------
      LOOP:  cpu time     49.5735: real time     49.5983

 eigenvalue-minimisations  :     0
 total energy-change (2. order) :-0.1462347E-05  (-0.4992497E-05)
 number of electron      66.0000008 magnetization 
 augmentation part       32.2245987 magnetization 

 Free energy of the ion-electron system (eV)
  ---------------------------------------------------
  alpha Z        PSCENC =         3.82760131
  Ewald energy   TEWEN  =      3468.15398447
  -Hartree energ DENC   =     -9445.38393756
  -exchange      EXHF   =         0.00000000
  -V(xc)+E(xc)   XCENC  =      -158.63601451
  PAW double counting   =      7616.66404784    -7307.15128753
  entropy T*S    EENTRO =        -0.00000000
  eigenvalues    EBANDS =      -493.57978059
  atomic energy  EATOM  =      6223.57668875
  ---------------------------------------------------
  free energy    TOTEN  =       -92.52869782 eV

  energy without entropy =      -92.52869782  energy(sigma->0) =      -92.52869782


--------------------------------------------------------------------------------------------------------




--------------------------------------- Iteration      1(  26)  ---------------------------------------


    POTLOK:  cpu time      2.4858: real time      2.4870
    SETDIJ:  cpu time      4.2464: real time      4.2492
    TRIAL :  cpu time      5.3516: real time      5.3519
    CORREC:  cpu time      9.0934: real time      9.0976
    CHARGE:  cpu time      0.9972: real time      0.9973
    --------------------------------------------
      LOOP:  cpu time     22.1779: real time     22.1930

 eigenvalue-minimisations  :     0
 total energy-change (2. order) : 0.9121246E-05  (-0.7663803E-05)
 number of electron      66.0000008 magnetization 
 augmentation part       32.2237646 magnetization 

 Free energy of the ion-electron system (eV)
  ---------------------------------------------------
  alpha Z        PSCENC =         3.82760131
  Ewald energy   TEWEN  =      3468.15398447
  -Hartree energ DENC   =     -9445.39229233
  -exchange      EXHF   =         0.00000000
  -V(xc)+E(xc)   XCENC  =      -158.63768949
  PAW double counting   =      7617.89672331    -7308.37664990
  entropy T*S    EENTRO =        -0.00000000
  eigenvalues    EBANDS =      -493.57705482
  atomic energy  EATOM  =      6223.57668875
  ---------------------------------------------------
  free energy    TOTEN  =       -92.52868870 eV

  energy without entropy =      -92.52868870  energy(sigma->0) =      -92.52868870


--------------------------------------------------------------------------------------------------------




--------------------------------------- Iteration      1(  27)  ---------------------------------------


    POTLOK:  cpu time      2.4921: real time      2.4923
    SETDIJ:  cpu time      4.2489: real time      4.2534
    TRIAL :  cpu time      5.3140: real time      5.3152
    CORREC:  cpu time      9.1368: real time      9.1403
    CHARGE:  cpu time      0.9911: real time      0.9912
    --------------------------------------------
      LOOP:  cpu time     22.1865: real time     22.2028

 eigenvalue-minimisations  :     0
 total energy-change (2. order) :-0.6369328E-05  (-0.2229547E-05)
 number of electron      66.0000008 magnetization 
 augmentation part       32.2237753 magnetization 

 Free energy of the ion-electron system (eV)
  ---------------------------------------------------
  alpha Z        PSCENC =         3.82760131
  Ewald energy   TEWEN  =      3468.15398447
  -Hartree energ DENC   =     -9445.28891034
  -exchange      EXHF   =         0.00000000
  -V(xc)+E(xc)   XCENC  =      -158.63577287
  PAW double counting   =      7617.52874412    -7308.01414732
  entropy T*S    EENTRO =        -0.00000000
  eigenvalues    EBANDS =      -493.67688319
  atomic energy  EATOM  =      6223.57668875
  ---------------------------------------------------
  free energy    TOTEN  =       -92.52869507 eV

  energy without entropy =      -92.52869507  energy(sigma->0) =      -92.52869507


--------------------------------------------------------------------------------------------------------




--------------------------------------- Iteration      1(  28)  ---------------------------------------


    POTLOK:  cpu time      2.4874: real time      2.4885
    SETDIJ:  cpu time      4.2654: real time      4.2697
    TRIAL :  cpu time      5.3075: real time      5.3085
    CORREC:  cpu time      9.1254: real time      9.1309
    CHARGE:  cpu time      0.9976: real time      0.9982
    --------------------------------------------
      LOOP:  cpu time     22.1865: real time     22.2060

 eigenvalue-minimisations  :     0
 total energy-change (2. order) :-0.2130721E-05  (-0.1225652E-05)
 number of electron      66.0000008 magnetization 
 augmentation part       32.2239190 magnetization 

 Free energy of the ion-electron system (eV)
  ---------------------------------------------------
  alpha Z        PSCENC =         3.82760131
  Ewald energy   TEWEN  =      3468.15398447
  -Hartree energ DENC   =     -9445.32882380
  -exchange      EXHF   =         0.00000000
  -V(xc)+E(xc)   XCENC  =      -158.63573286
  PAW double counting   =      7617.17428732    -7307.65992114
  entropy T*S    EENTRO =        -0.00000000
  eigenvalues    EBANDS =      -493.63678125
  atomic energy  EATOM  =      6223.57668875
  ---------------------------------------------------
  free energy    TOTEN  =       -92.52869720 eV

  energy without entropy =      -92.52869720  energy(sigma->0) =      -92.52869720


--------------------------------------------------------------------------------------------------------




--------------------------------------- Iteration      1(  29)  ---------------------------------------


    POTLOK:  cpu time      2.5029: real time      2.5041
    SETDIJ:  cpu time      4.2621: real time      4.2642
    TRIAL :  cpu time      5.3311: real time      5.3323
    CORREC:  cpu time      9.1046: real time      9.1081
    CHARGE:  cpu time      0.9809: real time      0.9819
    --------------------------------------------
      LOOP:  cpu time     22.1856: real time     22.2009

 eigenvalue-minimisations  :     0
 total energy-change (2. order) :-0.1203620E-05  (-0.4947205E-06)
 number of electron      66.0000008 magnetization 
 augmentation part       32.2238738 magnetization 

 Free energy of the ion-electron system (eV)
  ---------------------------------------------------
  alpha Z        PSCENC =         3.82760131
  Ewald energy   TEWEN  =      3468.15398447
  -Hartree energ DENC   =     -9445.36639853
  -exchange      EXHF   =         0.00000000
  -V(xc)+E(xc)   XCENC  =      -158.63634060
  PAW double counting   =      7616.86515488    -7307.35002302
  entropy T*S    EENTRO =        -0.00000000
  eigenvalues    EBANDS =      -493.59936567
  atomic energy  EATOM  =      6223.57668875
  ---------------------------------------------------
  free energy    TOTEN  =       -92.52869840 eV

  energy without entropy =      -92.52869840  energy(sigma->0) =      -92.52869840


--------------------------------------------------------------------------------------------------------




--------------------------------------- Iteration      1(  30)  ---------------------------------------


    POTLOK:  cpu time      2.4827: real time      2.4825
    SETDIJ:  cpu time      4.2405: real time      4.2452
    TRIAL :  cpu time      5.3589: real time      5.3600
    CORREC:  cpu time      9.1131: real time      9.1197
    EDDIAG:  cpu time      1.4039: real time      1.4045
    CHARGE:  cpu time      0.9986: real time      0.9987
    --------------------------------------------
      LOOP:  cpu time     23.6079: real time     23.6210

 eigenvalue-minimisations  :     0
 total energy-change (2. order) :-0.5593120E-06  (-0.1795415E-06)
 number of electron      66.0000008 magnetization 
 augmentation part       32.2238164 magnetization 

 Free energy of the ion-electron system (eV)
  ---------------------------------------------------
  alpha Z        PSCENC =         3.82760131
  Ewald energy   TEWEN  =      3468.15398447
  -Hartree energ DENC   =     -9445.36189604
  -exchange      EXHF   =         0.00000000
  -V(xc)+E(xc)   XCENC  =      -158.63653151
  PAW double counting   =      7616.73219619    -7307.21736616
  entropy T*S    EENTRO =        -0.00000000
  eigenvalues    EBANDS =      -493.60337598
  atomic energy  EATOM  =      6223.57668875
  ---------------------------------------------------
  free energy    TOTEN  =       -92.52869896 eV

  energy without entropy =      -92.52869896  energy(sigma->0) =      -92.52869896


--------------------------------------------------------------------------------------------------------


  average scaling for gradient   1.0759


 average (electrostatic) potential at core
  the test charge radii are     1.1249
  (the norm of the test charge is              1.0000)
       1 -67.2841       2 -66.8855       3 -66.8811       4 -66.8891       5 -67.2805
       6 -66.8898
 
 
 
 E-fermi :  -3.6059     XC(G=0):  -0.4499     alpha+bet : -0.1722

 Fermi energy:        -3.6058881810

 k-point     1 :       0.0000    0.0000    0.0000
  band No.  band energies     occupation 
      1      -8.9939      2.00000
      2      -8.8632      2.00000
      3      -8.7590      2.00000
      4      -8.6614      2.00000
      5      -8.4411      2.00000
      6      -8.3955      2.00000
      7      -8.3441      2.00000
      8      -8.3051      2.00000
      9      -8.2370      2.00000
     10      -8.1261      2.00000
     11      -8.0940      2.00000
     12      -7.9223      2.00000
     13      -7.8933      2.00000
     14      -7.7912      2.00000
     15      -7.7026      2.00000
     16      -7.5766      2.00000
     17      -7.5114      2.00000
     18      -7.2948      2.00000
     19      -7.2714      2.00000
     20      -7.2686      2.00000
     21      -7.2370      2.00000
     22      -7.2268      2.00000
     23      -7.0634      2.00000
     24      -7.0616      2.00000
     25      -7.0603      2.00000
     26      -6.9477      2.00000
     27      -6.9454      2.00000
     28      -6.8460      2.00000
     29      -6.8195      2.00000
     30      -6.5708      2.00000
     31      -6.3841      2.00000
     32      -5.3632      2.00000
     33      -3.8280      2.00000
     34      -3.3834      0.00000
     35      -2.4291      0.00000
     36      -1.5742      0.00000
     37      -1.2231      0.00000
     38      -1.0242      0.00000
     39      -0.5163      0.00000
     40      -0.4826      0.00000
     41      -0.0856      0.00000
     42       0.1484      0.00000
     43       0.2014      0.00000
     44       0.2416      0.00000
     45       0.2806      0.00000
     46       0.3170      0.00000
     47       0.4501      0.00000
     48       0.4882      0.00000
     49       0.5131      0.00000
     50       0.5628      0.00000
     51       0.6375      0.00000
     52       0.6581      0.00000
     53       0.6926      0.00000
     54       0.7101      0.00000
     55       0.7154      0.00000
     56       0.7456      0.00000
     57       0.7856      0.00000
     58       0.8015      0.00000
     59       0.8213      0.00000
     60       0.8834      0.00000
     61       0.9576      0.00000
     62       1.0104      0.00000
     63       1.0644      0.00000
     64       1.1043      0.00000


--------------------------------------------------------------------------------------------------------


 soft charge-density along one line, spin component           1
         0         1         2         3         4         5         6         7         8         9
 total charge-density along one line
 
 pseudopotential strength for first ion, spin component:           1
-11.488   0.003   0.004   0.002   0.001 -11.423   0.003   0.004
  0.003 -11.492   0.001  -0.004  -0.001   0.003 -11.426   0.001
  0.004   0.001 -11.478   0.002  -0.014   0.004   0.001 -11.413
  0.002  -0.004   0.002 -11.469   0.003   0.002  -0.004   0.002
  0.001  -0.001  -0.014   0.003 -11.491   0.001  -0.001  -0.014
-11.423   0.003   0.004   0.002   0.001 -11.334   0.003   0.004
  0.003 -11.426   0.001  -0.004  -0.001   0.003 -11.337   0.001
  0.004   0.001 -11.413   0.002  -0.014   0.004   0.001 -11.324
  0.002  -0.004   0.002 -11.405   0.002   0.002  -0.004   0.002
  0.001  -0.001  -0.014   0.002 -11.426   0.001  -0.001  -0.013
  0.004  -0.002  -0.000  -0.008  -0.010   0.004  -0.002  -0.000
  0.006  -0.003  -0.000  -0.013  -0.017   0.006  -0.003  -0.000
 -0.002   0.003   0.008  -0.001   0.014  -0.002   0.002   0.007
 -0.001  -0.018   0.001  -0.001  -0.001  -0.001  -0.015   0.000
 -0.019  -0.001   0.003   0.001  -0.004  -0.016  -0.001   0.002
 -0.002   0.003   0.010  -0.001   0.016  -0.001   0.002   0.007
 -0.001  -0.020   0.001  -0.001  -0.001  -0.001  -0.016  -0.001
 -0.021  -0.001   0.003   0.001  -0.004  -0.018  -0.001   0.003
 total augmentation occupancy for first ion, spin component:           1
  2.578  -0.111   0.006  -0.082  -0.028  -0.467   0.118   0.008   0.092   0.029  -0.352   0.127  -0.037   0.044  -0.065   0.002
 -0.111   2.699  -0.066   0.124   0.005   0.118  -0.602   0.091  -0.144   0.007   0.178  -0.070   0.024  -0.115   0.042   0.000
  0.006  -0.066   2.537  -0.043   0.093   0.008   0.091  -0.456   0.077  -0.171   0.130  -0.045   0.044   0.056  -0.012   0.002
 -0.082   0.124  -0.043   2.549   0.013   0.092  -0.144   0.077  -0.421   0.020   0.590  -0.206   0.033  -0.075   0.051  -0.004
 -0.028   0.005   0.093   0.013   2.640   0.029   0.007  -0.171   0.020  -0.591   0.934  -0.323   0.115   0.006  -0.006  -0.001
 -0.467   0.118   0.008   0.092   0.029   0.357  -0.124  -0.021  -0.101  -0.029   0.302  -0.108   0.043  -0.041   0.075  -0.006
  0.118  -0.602   0.091  -0.144   0.007  -0.124   0.504  -0.113   0.161  -0.018  -0.147   0.059  -0.024   0.123  -0.040   0.003
  0.008   0.091  -0.456   0.077  -0.171  -0.021  -0.113   0.370  -0.107   0.241  -0.116   0.038  -0.063  -0.069   0.012   0.008
  0.092  -0.144   0.077  -0.421   0.020  -0.101   0.161  -0.107   0.293  -0.049  -0.507   0.177  -0.031   0.083  -0.058   0.004
  0.029   0.007  -0.171   0.020  -0.591  -0.029  -0.018   0.241  -0.049   0.536  -0.812   0.277  -0.145  -0.012   0.011   0.019
 -0.352   0.178   0.130   0.590   0.934   0.302  -0.147  -0.116  -0.507  -0.812   5.109  -1.691   0.414  -0.140   0.123  -0.055
  0.127  -0.070  -0.045  -0.206  -0.323  -0.108   0.059   0.038   0.177   0.277  -1.691   0.561  -0.140   0.051  -0.043   0.019
 -0.037   0.024   0.044   0.033   0.115   0.043  -0.024  -0.063  -0.031  -0.145   0.414  -0.140   0.055  -0.008   0.009  -0.008
  0.044  -0.115   0.056  -0.075   0.006  -0.041   0.123  -0.069   0.083  -0.012  -0.140   0.051  -0.008   0.051  -0.022   0.001
 -0.065   0.042  -0.012   0.051  -0.006   0.075  -0.040   0.012  -0.058   0.011   0.123  -0.043   0.009  -0.022   0.024  -0.001
  0.002   0.000   0.002  -0.004  -0.001  -0.006   0.003   0.008   0.004   0.019  -0.055   0.019  -0.008   0.001  -0.001   0.001
 -0.005  -0.002  -0.003   0.006  -0.001   0.005  -0.014   0.008  -0.010   0.001   0.019  -0.007   0.001  -0.006   0.002  -0.000
 -0.008  -0.005   0.004  -0.003  -0.003  -0.009   0.005  -0.001   0.007  -0.001  -0.017   0.006  -0.001   0.002  -0.003   0.000


------------------------ aborting loop because EDIFF is reached ----------------------------------------


    FORLOC:  cpu time      0.0561: real time      0.0560
    FORNL :  cpu time      0.6116: real time      0.6112
    STRESS:  cpu time     16.1078: real time     16.1133
    FORCOR:  cpu time      2.3071: real time      2.3080
    OFIELD:  cpu time      0.0035: real time      0.0035

  FORCE on cell =-STRESS in cart. coord.  units (eV):
  Direction    XX          YY          ZZ          XY          YZ          ZX
  --------------------------------------------------------------------------------------
  Alpha Z     3.82760     3.82760     3.82760
  Ewald    -812.54606  3549.00178   731.69633   559.15848   -62.01969 -1157.53399
  Hartree  1542.25498  5113.07831  2790.02411   446.96134   -45.62370  -924.72609
  E(xc)    -156.99230  -155.95807  -156.54669     0.14158    -0.00391    -0.34502
  Local   -1693.70722 -9595.68840 -4478.59736 -1001.61042   106.40459  2076.36723
  n-local  -131.43588  -133.86912  -130.81120    -0.42245     0.30447    -0.37847
  augment   414.11848   406.28480   411.66485    -1.08278     0.12384     1.94446
  Kinetic   834.67629   815.58505   829.40312    -2.68939     0.45767     4.23303
  Fock        0.00000     0.00000     0.00000     0.00000     0.00000     0.00000
  -------------------------------------------------------------------------------------
  Total       0.19588     2.26194     0.66075     0.45636    -0.35674    -0.43885
  in kB       0.03923     0.45300     0.13233     0.09140    -0.07144    -0.08789
  external pressure =        0.21 kB  Pullay stress =        0.00 kB


 VOLUME and BASIS-vectors are now :
 -----------------------------------------------------------------------------
  energy-cutoff  :      520.00
  volume of cell :     8000.00
      direct lattice vectors                 reciprocal lattice vectors
    20.000000000  0.000000000  0.000000000     0.050000000  0.000000000  0.000000000
     0.000000000 20.000000000  0.000000000     0.000000000  0.050000000  0.000000000
     0.000000000  0.000000000 20.000000000     0.000000000  0.000000000  0.050000000

  length of vectors
    20.000000000 20.000000000 20.000000000     0.050000000  0.050000000  0.050000000


 FORCES acting on ions:
    Electron-Ion                     Ewald-Force                    Non-Local-Force
 -----------------------------------------------------------------------------------------------
   0.172E+03 0.509E+03 -.211E+03   -.170E+03 -.503E+03 0.209E+03   -.181E+01 -.678E+01 0.190E+01
   -.201E+03 -.599E+02 0.369E+03   0.202E+03 0.604E+02 -.370E+03   -.525E+00 -.465E+00 0.832E+00
   0.202E+03 0.605E+02 -.370E+03   -.202E+03 -.610E+02 0.371E+03   0.516E+00 0.418E+00 -.825E+00
   -.168E+03 0.369E+03 0.392E+03   0.168E+03 -.366E+03 -.390E+03   0.997E+00 -.340E+01 -.255E+01
   -.172E+03 -.508E+03 0.212E+03   0.171E+03 0.502E+03 -.210E+03   0.180E+01 0.678E+01 -.189E+01
   0.168E+03 -.370E+03 -.392E+03   -.167E+03 0.367E+03 0.390E+03   -.992E+00 0.344E+01 0.255E+01
 -----------------------------------------------------------------------------------------------
   0.804E-02 0.720E-02 -.131E-01   -.568E-13 0.000E+00 0.568E-13   -.848E-02 -.920E-02 0.119E-01
 
 
 POSITION                                       TOTAL-FORCE (eV/Angst)
 -----------------------------------------------------------------------------------
      9.18313      6.88882     10.86875        -0.092691     -0.280210      0.110344
     10.63426     10.52739      8.91255         0.080491      0.101890     -0.136470
      9.36217      9.47298     11.09359        -0.082277     -0.104053      0.138822
     10.45351      7.91380      8.71209         0.047162     -0.130162     -0.111389
     10.81850     13.11226      9.12774         0.093207      0.278390     -0.110960
      9.54706     12.08638     11.28548        -0.045893      0.134145      0.109653
[...]
  462                      map_scatter                           0.668645            114  10
  463            m_sumb_d                              0.850876                       19   5
  464            fft3d_mpi                             1.092203                       38   5
  465              fftbrc_mpi                            0.965243                     38   6
  466                fftbas_plan_mpi                       0.965118                   38   7
  467                  dfftw_execute                         0.455848                114   8
  468                  map_backward                          0.183084                 38   8
  469                    map_gather                            0.108041               38   9
  470                    m_alltoallv_z                         0.064469               38   9
  471                    map_scatter                           0.009979               38   9
  472                  map_forward                           0.299617                 38   8
  473                    map_gather                            0.049314               19   9
  474                    m_alltoallv_z                         0.132775               19   9
  475                    map_scatter                           0.117054               19   9
  476          fft3d_mpi                             0.559515                         19   4
  477            fftbrc_mpi                            0.519509                       19   5
  478              fftbas_plan_mpi                       0.519455                     19   6
  479                dfftw_execute                         0.204360                   57   7
  480                map_forward                           0.301188                   38   7
  481                  map_gather                            0.041411                 19   8
  482                  m_alltoallv_z                         0.141406                 19   8
  483                  map_scatter                           0.117983                 19   8
  484          m_sumb_d                              0.023174                         18   4
  485        potxc_metagga                         2.178364                            1   3
  486          fft3d_mpi                             0.425744                         14   4
  487            fftbrc_mpi                            0.405604                       14   5
  488              fftbas_plan_mpi                       0.405568                     14   6
  489                dfftw_execute                         0.147879                   42   7
  490                map_forward                           0.125354                   16   7
  491                  map_gather                            0.016464                  8   8
  492                  m_alltoallv_z                         0.060367                  8   8
  493                  map_scatter                           0.048373                  8   8
  494                map_backward                          0.122478                   12   7
  495                  map_gather                            0.027176                  6   8
  496                  m_alltoallv_z                         0.082086                  6   8
  497                  map_scatter                           0.013101                  6   8
  498          m_sumb_d                              0.001569                          3   4
  499        fortau                                0.056081                            1   3
  500          m_sumb_d                              0.001787                          1   4
  501        forhar                                0.054574                            1   3
  502          m_sumb_d                              0.000186                          1   4
  503        strehar                               0.018002                            1   3
  504          m_sumb_d                              0.000157                          1   4
  505        m_bcast_d                             0.001235                            2   3
  506      potlok                                0.183546                              1   2
  507        fft3d_mpi                             0.143738                            5   3
  508          fftbrc_mpi                            0.133137                          5   4
  509            fftbas_plan_mpi                       0.133124                        5   5
  510              dfftw_execute                         0.058584                     15   6
  511              map_forward                           0.043212                      6   6
  512                map_gather                            0.004742                    4   7
  513                m_alltoallv_z                         0.016459                    4   7
  514                map_scatter                           0.021923                    4   7
  515              map_backward                          0.027899                      4   6
  516                map_gather                            0.009936                    2   7
  517                m_alltoallv_z                         0.013273                    2   7
  518                map_scatter                           0.004642                    2   7
  519        pothar                                0.005800                            1   3
  520          m_sumb_d                              0.001090                          1   4
  521        m_bcast_d                             0.012932                            1   3
  522      potlok_metagga                        2.293835                              1   2
  523        fft3d_mpi                             0.527756                           17   3
  524          fftbrc_mpi                            0.493328                         17   4
  525            fftbas_plan_mpi                       0.493275                       17   5
  526              dfftw_execute                         0.197617                     51   6
  527              map_forward                           0.171721                     22   6
  528                map_gather                            0.020193                   13   7
  529                m_alltoallv_z                         0.079319                   13   7
  530                map_scatter                           0.071943                   13   7
  531              map_backward                          0.112132                     12   6
  532                map_gather                            0.026153                    6   7
  533                m_alltoallv_z                         0.072791                    6   7
  534                map_scatter                           0.013075                    6   7
  535        m_sumb_d                              0.001093                            3   3
  536        m_bcast_d                             0.025397                            2   3
  537      set_dd_magatom                        0.000001                              1   2
  538      set_dd_paw                            4.517028                              1   2
  539        set_rsgf_all                          0.000001                            1   3
  540        m_sumb_d                              4.516812                            7   3
  541      m_bcast_d                             0.000192                              2   2
 
 Flat profile
 ============
 
             routine name                   CPU           calls
 ---------------------------------------------------------------
 m_sumb_d                              246.348815        3191
 dfftw_execute                         177.412916       13515
 potlok_metagga                        110.156214          55
 total_time                             23.284300           1
 m_alltoallv_z                          21.012668        4797
 map_scatter                            20.247255        4797
 map_gather                             18.118471        4797
 fftwav_mpi                             16.542766        1724
 map_forward                            14.499270        5192
 kinhamil_tau                           11.302668         308
 set_kineden                             6.672253          73
 m_alltoall_d                            4.633098        2066
 eccp_tau                                3.472672         216
 fft3d_mpi                               3.196606        4505
 fftbas_plan_mpi                         3.015617        4505
 edwav                                   2.887720          53
 m_bcast_d                               1.948126         249
 potxc_metagga                           1.751051           1
 fftext_mpi                              1.710088        1282
 vhamil                                  1.438887          92
 potlok                                  1.182049          55
 lincom                                  1.057374         166
 pw_charge                               0.839844         108
 orth1                                   0.737628         280
 soft_charge                             0.728679          54
 m_bcast_z                               0.491760         106
 lapack                                  0.484125          40
 redis_pw                                0.439669         458
 augmentation_charge                     0.410228          54
 elmin_all                               0.310005           1
 stretau                                 0.307046           1
 w1_dscal                                0.247834          50
 pothar                                  0.243632          55
 ggemm                                   0.225666          50
 rspher_all                              0.165938          14
 eddav                                   0.149729           5
 phaser                                  0.142559          43
 setdij_                                 0.136431          82
 fft_gq                                  0.108108          54
 set_charge                              0.104813          54
 w1_copy                                 0.079840         120
 racc0                                   0.061729          50
 forloc                                  0.055841           1
 forhar                                  0.054388           1
 fortau                                  0.054294           1
 rpro1                                   0.045225          80
 inisym                                  0.045040           1
 map_backward                            0.039999        3818
 choleski                                0.034988          54
 stufak                                  0.033658           1
 crrexp_mul_work_add                     0.033075         540
 crrexp_mul_wave                         0.028683         636
 apply_precond                           0.026459          30
 strelo                                  0.018859           1
 strehar                                 0.017845           1
 gemm                                    0.017395         240
 redis_proj                              0.016825         877
 rpromu_gemm                             0.016312          78
 setup_precond                           0.011363          10
 set_dd_paw                              0.010620          56
 force_and_stress                        0.009804           1
 fftbas_mpi                              0.009800        3006
 eddiag                                  0.007895          29
 densta                                  0.007216          65
 overl                                   0.006643         225
 orthch                                  0.005538          54
 fewald                                  0.005364           1
 fftbrc_mpi                              0.004605        1499
 rpro_isp                                0.004242          13
 brgrid                                  0.003284           1
 racc0mu                                 0.002719          40
 depsum                                  0.002704          54
 strkin                                  0.001500           1
 rpromu                                  0.001180          13
 hamiltmu_tau                            0.001106          40
 newband                                 0.001051          45
 overl1                                  0.000983          40
 rsp                                     0.000788           1
 hamilt_local_tau                        0.000787          52
 strnlr                                  0.000597           1
 redis_pw_all                            0.000488          53
 raccmu_                                 0.000477          40
 redis_pw_over_bands                     0.000301          54
 crpa_reader                             0.000289           1
 fornlr                                  0.000221           1
 fordep                                  0.000173           1
 w1_projall                              0.000159          30
 set_rsgf_all                            0.000107          56
 rcp                                     0.000087           1
 truncate_high_frequency_w1              0.000050          50
 proall                                  0.000037           1
 vectorpot                               0.000025           1
 rotate_active_occupied_orbital          0.000022           1
 posmap                                  0.000019           2
 set_dd_magatom                          0.000010           2
 shift_bands_between_low_high            0.000007           1
 ---------------------------------------------------------------
  summed up times    698.947296142578     
 
 Accumulative profile
 ====================
 
             routine name                   CPU           calls
 ---------------------------------------------------------------
 total_time                            698.947296           1
 elmin_all                             644.498060           1
 fft3d_mpi                             257.557208        4505
 fftbas_plan_mpi                       254.346197        4505
 m_sumb_d                              246.348815        3191
 set_dd_paw                            239.146994          56
 fftbas_mpi                            212.514938        3006
 dfftw_execute                         177.412916       13515
 kinhamil_tau                          170.838687         308
 fftwav_mpi                            145.669628        1724
 potlok_metagga                        140.241783          55
 edwav                                 134.595935          53
 eccp_tau                              121.845738         216
 fftext_mpi                             85.111077        1282
 set_kineden                            51.554791          73
 map_forward                            49.144001        5192
 fftbrc_mpi                             41.845664        1499
 eddiag                                 38.761992          29
 eddav                                  38.355049           5
 hamilt_local_tau                       30.322262          52
 map_backward                           24.773662        3818
 hamiltmu_tau                           23.674197          40
 force_and_stress                       23.195944           1
 m_alltoallv_z                          21.012668        4797
 map_scatter                            20.247255        4797
 map_gather                             18.118471        4797
 set_charge                             15.700101          54
 stretau                                14.390091           1
 soft_charge                            13.582724          54
 potlok                                 10.180752          55
 newband                                 6.900075          45
 m_alltoall_d                            4.633098        2066
 redis_pw                                3.818968         458
 rpro_isp                                2.225561          13
 potxc_metagga                           2.178364           1
 augmentation_charge                     1.989883          54
 m_bcast_d                               1.948126         249
 fft_gq                                  1.708630          54
 strnlr                                  1.643175           1
 vhamil                                  1.438887          92
 redis_proj                              1.270624         877
 lincom                                  1.057374         166
 pw_charge                               0.839844         108
 orth1                                   0.737628         280
 orthch                                  0.643693          54
 fornlr                                  0.595144           1
 m_bcast_z                               0.491760         106
 lapack                                  0.484125          40
 redis_pw_over_bands                     0.368995          54
 redis_pw_all                            0.368694          53
 pothar                                  0.364768          55
 w1_dscal                                0.247834          50
 setdij_                                 0.235136          82
 ggemm                                   0.225666          50
 proall                                  0.219218           1
 rspher_all                              0.165938          14
 rpro1                                   0.143646          80
 phaser                                  0.142559          43
 racc0                                   0.091546          50
 w1_copy                                 0.079840         120
 raccmu_                                 0.077580          40
 racc0mu                                 0.076121          40
 densta                                  0.059818          65
 fortau                                  0.056081           1
 forloc                                  0.055973           1
 forhar                                  0.054574           1
 w1_projall                              0.048737          30
 inisym                                  0.045059           1
 choleski                                0.034988          54
 stufak                                  0.033658           1
 crrexp_mul_work_add                     0.033075         540
 rpromu                                  0.031782          13
 crrexp_mul_wave                         0.028683         636
 apply_precond                           0.026459          30
 depsum                                  0.022680          54
 strelo                                  0.021801           1
 strehar                                 0.018002           1
 gemm                                    0.017395         240
 rpromu_gemm                             0.016312          78
 fordep                                  0.015897           1
 setup_precond                           0.011994          10
 overl                                   0.006643         225
 fewald                                  0.006585           1
 brgrid                                  0.003284           1
 strkin                                  0.002179           1
 overl1                                  0.000983          40
 rsp                                     0.000788           1
 crpa_reader                             0.000289           1
 set_rsgf_all                            0.000107          56
 rcp                                     0.000087           1
 truncate_high_frequency_w1              0.000050          50
 vectorpot                               0.000025           1
 rotate_active_occupied_orbital          0.000022           1
 posmap                                  0.000019           2
 set_dd_magatom                          0.000010           2
 shift_bands_between_low_high            0.000007           1
 ---------------------------------------------------------------
 
Profiling took   0.093160  0.033278  0.008999  0.007652 seconds
Profiling took   0.120754 seconds
