 vasp.6.3.0 20Jan22 (build Apr  1 2022 16:44:48) complex                         
 executed on        HPECrayEX_GCC date 2023.01.09  10:56:11
 running  768 mpi-ranks, with    1 threads/rank
 distrk:  each k-point on  384 cores,    2 groups
 distr:  one band on NCORE=   4 cores,   96 groups


--------------------------------------------------------------------------------------------------------


 INCAR:
   SYSTEM = MgO-rocksalt
   ISMEAR = 0
   SIGMA = 0.05
   EDIFF = 1E-6
   ALGO = ALL
   ISTART = 0
   IBRION = -1
   NSW = 0
   ISYM = 2
   DIPOL = 0.5 0.5 0.5
   IDIPOL = 3
   LDIPOL = .TRUE.
   GGA = PE
   IVDW = 212
   LVDWEXPANSION = .TRUE.
   ENCUT = 520
   PREC = Accurate
   LASPH = .TRUE.
   LREAL = Auto
   ISPIN = 1
   NELM = 200
   NELMIN = 8
   NCORE = 4
   KPAR = 2
   LWAVE = .FALSE.
   LCHARG = .FALSE.

 POTCAR:    PAW_PBE Au 04Oct2007                  
 POTCAR:    PAW_PBE Mg_pv 13Apr2007               
 POTCAR:    PAW_PBE O 08Apr2002                   
 POTCAR:    PAW_PBE Au 04Oct2007                  
   SHA256 =  d0044ae04e2bdce24051b198fc5c053d722a5bc6fe3c3b100514a13fc5d2db88 Au/POTCAR             
   COPYR  = (c) Copyright 04Oct2007 Georg Kresse                                                    
   COPYR  = This file is part of the software VASP. Any use, copying, and all other rights are regul
   COPYR  = If you do not have a valid VASP license, you may not use, copy or distribute this file. 
   VRHFIN =Au: s1d10                                                                                
   LEXCH  = PE                                                                                      
   EATOM  =   926.0867 eV,   68.0654 Ry                                                             
                                                                                                    
   TITEL  = PAW_PBE Au 04Oct2007                                                                    
   LULTRA =        F    use ultrasoft PP ?                                                          
   IUNSCR =        1    unscreen: 0-lin 1-nonlin 2-no                                               
   RPACOR =    2.330    partial core radius                                                         
   POMASS =  196.966; ZVAL   =   11.000    mass and valenz                                          
   RCORE  =    2.500    outmost cutoff radius                                                       
   RWIGS  =    2.840; RWIGS  =    1.503    wigner-seitz radius (au A)                               
   ENMAX  =  229.943; ENMIN  =  172.457 eV                                                          
   ICORE  =        3    local potential                                                             
   LCOR   =        T    correct aug charges                                                         
   LPAW   =        T    paw PP                                                                      
   EAUG   =  356.670                                                                                
   DEXC   =    0.000                                                                                
   RMAX   =    2.562    core radius for proj-oper                                                   
   RAUG   =    1.300    factor for augmentation sphere                                              
   RDEP   =    2.598    radius for radial grids                                                     
   RDEPT  =    2.193    core radius for aug-charge                                                  
                                                                                                    
   Atomic configuration                                                                             
   16 entries                                                                                       
     n  l   j            E        occ.                                                              
     1  0  0.50    -80748.5001   2.0000                                                             
     2  0  0.50    -14244.7466   2.0000                                                             
     2  1  1.50    -12310.9591   6.0000                                                             
     3  0  0.50     -3362.1768   2.0000                                                             
     3  1  1.50     -2801.5463   6.0000                                                             
     3  2  2.50     -2203.8206  10.0000                                                             
     4  0  0.50      -729.8168   2.0000                                                             
     4  1  1.50      -546.0527   6.0000                                                             
     4  2  2.50      -325.7302  10.0000                                                             
     4  3  3.50       -81.1472  14.0000                                                             
     5  0  0.50      -108.3201   2.0000                                                             
     5  1  1.50       -59.7479   6.0000                                                             
     5  2  2.50        -6.8783  10.0000                                                             
     6  0  0.50        -5.7602   1.0000                                                             
     6  1  1.50        -6.8029   0.0000                                                             
     5  3  2.50        -1.3606   0.0000                                                             
   Description                                                                                      
     l       E           TYP  RCUT    TYP  RCUT                                                     
     2     -6.8782861     23  2.500                                                                 
     2     -8.2388687     23  2.500                                                                 
     0     -5.7601759     23  2.500                                                                 
     0     -0.8493231     23  2.500                                                                 
     1     -2.7211652     23  2.500                                                                 
     1     27.2116520     23  2.500                                                                 
     3     -1.3605826     23  2.500                                                                 
  local pseudopotential read in
  partial core-charges read in
  partial kinetic energy density read in
  atomic valenz-charges read in
  non local Contribution for L=           2  read in
    real space projection operators read in
  non local Contribution for L=           2  read in
    real space projection operators read in
  non local Contribution for L=           0  read in
    real space projection operators read in
  non local Contribution for L=           0  read in
    real space projection operators read in
  non local Contribution for L=           1  read in
    real space projection operators read in
  non local Contribution for L=           1  read in
    real space projection operators read in
    PAW grid and wavefunctions read in

   number of l-projection  operators is LMAX  =           6
   number of lm-projection operators is LMMAX =          18

 POTCAR:    PAW_PBE Mg_pv 13Apr2007               
   SHA256 =  f474ac0dd33840b9ae76c01d57fea79fdf77cdfbb07d5ade72c65f83c709b62b Mg_pv/POTCAR          
   COPYR  = (c) Copyright 13Apr2007 Georg Kresse                                                    
   COPYR  = This file is part of the software VASP. Any use, copying, and all other rights are regul
   COPYR  = If you do not have a valid VASP license, you may not use, copy or distribute this file. 
   VRHFIN =Mg: p6s2                                                                                 
   LEXCH  = PE                                                                                      
   EATOM  =  1056.7344 eV,   77.6678 Ry                                                             
                                                                                                    
   TITEL  = PAW_PBE Mg_pv 13Apr2007                                                                 
   LULTRA =        F    use ultrasoft PP ?                                                          
   IUNSCR =        1    unscreen: 0-lin 1-nonlin 2-no                                               
   RPACOR =    1.500    partial core radius                                                         
   POMASS =   24.305; ZVAL   =    8.000    mass and valenz                                          
   RCORE  =    2.000    outmost cutoff radius                                                       
   RWIGS  =    2.000; RWIGS  =    1.058    wigner-seitz radius (au A)                               
   ENMAX  =  403.929; ENMIN  =  302.947 eV                                                          
   RCLOC  =    1.506    cutoff for local pot                                                        
   LCOR   =        T    correct aug charges                                                         
   LPAW   =        T    paw PP                                                                      
   EAUG   =  758.780                                                                                
   DEXC   =    0.000                                                                                
   RMAX   =    2.045    core radius for proj-oper                                                   
   RAUG   =    1.300    factor for augmentation sphere                                              
   RDEP   =    2.025    radius for radial grids                                                     
   RDEPT  =    1.557    core radius for aug-charge                                                  
                                                                                                    
   Atomic configuration                                                                             
    5 entries                                                                                       
     n  l   j            E        occ.                                                              
     1  0  0.50     -1259.6230   2.0000                                                             
     2  0  0.50       -79.8442   2.0000                                                             
     2  1  1.50       -46.6121   6.0000                                                             
     3  0  0.50        -4.7055   2.0000                                                             
     3  2  1.50        -1.3606   0.0000                                                             
   Description                                                                                      
     l       E           TYP  RCUT    TYP  RCUT                                                     
     1    -46.6121073     23  1.600                                                                 
     1      2.7211652     23  1.600                                                                 
     0     -4.7054661     23  2.000                                                                 
     0     61.2262170     23  2.000                                                                 
     2     -1.3605826     23  2.000                                                                 
  local pseudopotential read in
  partial core-charges read in
  partial kinetic energy density read in
  atomic valenz-charges read in
  non local Contribution for L=           1  read in
    real space projection operators read in
  non local Contribution for L=           1  read in
    real space projection operators read in
  non local Contribution for L=           0  read in
    real space projection operators read in
  non local Contribution for L=           0  read in
    real space projection operators read in
  non local Contribution for L=           2  read in
    real space projection operators read in
    PAW grid and wavefunctions read in

   number of l-projection  operators is LMAX  =           5
   number of lm-projection operators is LMMAX =          13

 POTCAR:    PAW_PBE O 08Apr2002                   
   SHA256 =  818f92134a0a090dccd8ba1447fa70422a3b330e708bb4f08108d8ae51209ddf O/POTCAR              
   COPYR  = (c) Copyright 08Apr2002 Georg Kresse                                                    
   COPYR  = This file is part of the software VASP. Any use, copying, and all other rights are regul
   COPYR  = If you do not have a valid VASP license, you may not use, copy or distribute this file. 
   VRHFIN =O: s2p4                                                                                  
   LEXCH  = PE                                                                                      
   EATOM  =   432.3788 eV,   31.7789 Ry                                                             
                                                                                                    
   TITEL  = PAW_PBE O 08Apr2002                                                                     
   LULTRA =        F    use ultrasoft PP ?                                                          
   IUNSCR =        1    unscreen: 0-lin 1-nonlin 2-no                                               
   RPACOR =    1.200    partial core radius                                                         
   POMASS =   16.000; ZVAL   =    6.000    mass and valenz                                          
   RCORE  =    1.520    outmost cutoff radius                                                       
   RWIGS  =    1.550; RWIGS  =    0.820    wigner-seitz radius (au A)                               
   ENMAX  =  400.000; ENMIN  =  300.000 eV                                                          
   ICORE  =        2    local potential                                                             
   LCOR   =        T    correct aug charges                                                         
   LPAW   =        T    paw PP                                                                      
   EAUG   =  605.392                                                                                
   DEXC   =    0.000                                                                                
   RMAX   =    1.553    core radius for proj-oper                                                   
   RAUG   =    1.300    factor for augmentation sphere                                              
   RDEP   =    1.550    radius for radial grids                                                     
   RDEPT  =    1.329    core radius for aug-charge                                                  
                                                                                                    
   Atomic configuration                                                                             
    4 entries                                                                                       
     n  l   j            E        occ.                                                              
     1  0  0.50      -514.6923   2.0000                                                             
     2  0  0.50       -23.9615   2.0000                                                             
     2  1  0.50        -9.0305   4.0000                                                             
     3  2  1.50        -9.5241   0.0000                                                             
   Description                                                                                      
     l       E           TYP  RCUT    TYP  RCUT                                                     
     0    -23.9615318     23  1.200                                                                 
     0     -9.5240782     23  1.200                                                                 
     1     -9.0304911     23  1.520                                                                 
     1      8.1634956     23  1.520                                                                 
     2     -9.5240782      7  1.500                                                                 
  local pseudopotential read in
  partial core-charges read in
  partial kinetic energy density read in
  kinetic energy density of atom read in
  atomic valenz-charges read in
  non local Contribution for L=           0  read in
    real space projection operators read in
  non local Contribution for L=           0  read in
    real space projection operators read in
  non local Contribution for L=           1  read in
    real space projection operators read in
  non local Contribution for L=           1  read in
    real space projection operators read in
    PAW grid and wavefunctions read in

   number of l-projection  operators is LMAX  =           4
   number of lm-projection operators is LMMAX =           8

 Optimization of the real space projectors (new method)

 maximal supplied QI-value         = 15.12
 optimisation between [QCUT,QGAM] = [ 11.64, 23.28] = [ 37.95,151.78] Ry 
 Optimized for a Real-space Cutoff    1.49 Angstroem

   l    n(q)    QCUT    max X(q) W(low)/X(q) W(high)/X(q)  e(spline) 
   2      9    11.641    60.898    0.24E-03    0.10E-03    0.19E-06
   2      9    11.641    58.894    0.25E-03    0.10E-03    0.19E-06
   0     10    11.641   109.617    0.73E-04    0.33E-04    0.11E-06
   0     10    11.641    75.026    0.71E-04    0.32E-04    0.11E-06
   1     10    11.641    16.344    0.27E-04    0.97E-04    0.16E-06
   1     10    11.641    10.160    0.23E-04    0.77E-04    0.13E-06
 Optimization of the real space projectors (new method)

 maximal supplied QI-value         = 18.90
 optimisation between [QCUT,QGAM] = [ 11.53, 23.24] = [ 37.21,151.29] Ry 
 Optimized for a Real-space Cutoff    1.28 Angstroem

   l    n(q)    QCUT    max X(q) W(low)/X(q) W(high)/X(q)  e(spline) 
   1      8    11.527     2.974    0.44E-04    0.56E-04    0.12E-06
   1      8    11.527     4.279    0.12E-03    0.12E-03    0.26E-06
   0      9    11.527    16.381    0.46E-04    0.64E-04    0.78E-07
   0      9    11.527     5.611    0.26E-04    0.43E-04    0.55E-07
   2      8    11.527     4.652    0.22E-03    0.72E-04    0.47E-07
 Optimization of the real space projectors (new method)

 maximal supplied QI-value         = 24.76
 optimisation between [QCUT,QGAM] = [ 11.64, 23.27] = [ 37.91,151.63] Ry 
 Optimized for a Real-space Cutoff    1.14 Angstroem

   l    n(q)    QCUT    max X(q) W(low)/X(q) W(high)/X(q)  e(spline) 
   0      8    11.635    20.381    0.10E-03    0.33E-03    0.24E-06
   0      8    11.635    15.268    0.11E-03    0.35E-03    0.26E-06
   1      7    11.635     5.964    0.24E-03    0.31E-03    0.30E-06
   1      7    11.635     5.382    0.22E-03    0.25E-03    0.26E-06
  PAW_PBE Au 04Oct2007                  :
 energy of atom  1       EATOM= -926.0867
 kinetic energy error for atom=    0.0034 (will be added to EATOM!!)
  PAW_PBE Mg_pv 13Apr2007               :
 energy of atom  2       EATOM=-1056.7344
 kinetic energy error for atom=    0.0340 (will be added to EATOM!!)
  PAW_PBE O 08Apr2002                   :
 energy of atom  3       EATOM= -432.3788
 kinetic energy error for atom=    0.0208 (will be added to EATOM!!)


 POSCAR: Au Mg  O
  positions in direct lattice
  velocities in cartesian coordinates
 exchange correlation table for  LEXCH =        8
   RHO(1)=    0.500       N(1)  =     2000
   RHO(2)=  100.500       N(2)  =     4000



--------------------------------------------------------------------------------------------------------


 ion  position               nearest neighbor table
   1  0.400  0.425  0.603- 153 2.29   2 2.53  55 2.73
   2  0.400  0.510  0.684-   1 2.53   3 2.68   4 2.74
   3  0.400  0.633  0.713-   4 2.57   2 2.68
   4  0.400  0.605  0.600- 157 2.16   3 2.57   2 2.74  59 2.95  40 3.02  60 3.02
   5  0.000  0.000  0.407- 107 2.11 108 2.11 123 2.11 188 2.11 105 2.11
   6  0.100  0.100  0.407- 107 2.11 108 2.11 112 2.11 127 2.11 106 2.11
   7  0.000  0.100  0.503- 105 2.11 106 2.11 109 2.11 186 2.11 107 2.11
   8  0.100  0.000  0.503- 105 2.11 106 2.11 122 2.11 125 2.11 108 2.11
   9  0.000  0.200  0.407- 111 2.11 107 2.11 112 2.11 192 2.11 109 2.11
  10  0.100  0.300  0.407- 112 2.11 111 2.11 116 2.11 131 2.11 110 2.11
  11  0.000  0.300  0.503- 109 2.11 110 2.11 113 2.11 190 2.11 111 2.11
  12  0.100  0.200  0.503- 110 2.11 109 2.11 106 2.11 129 2.11 112 2.11
  13  0.000  0.400  0.407- 111 2.11 115 2.11 116 2.11 196 2.11 113 2.11
  14  0.100  0.500  0.407- 115 2.11 116 2.11 120 2.11 135 2.11 114 2.11
  15  0.000  0.500  0.503- 113 2.11 114 2.11 117 2.11 194 2.11 115 2.11
  16  0.100  0.400  0.503- 110 2.11 113 2.11 114 2.11 133 2.11 116 2.11
  17  0.000  0.600  0.407- 115 2.11 119 2.11 120 2.11 200 2.11 117 2.11
  18  0.100  0.700  0.407- 124 2.11 120 2.11 119 2.11 139 2.11 118 2.11
  19  0.000  0.700  0.503- 121 2.11 118 2.11 117 2.11 198 2.11 119 2.11
  20  0.100  0.600  0.503- 114 2.11 117 2.11 118 2.11 137 2.11 120 2.11
  21  0.000  0.800  0.407- 119 2.11 123 2.11 124 2.11 204 2.11 121 2.11
  22  0.100  0.900  0.407- 108 2.11 123 2.11 124 2.11 143 2.11 122 2.11
  23  0.000  0.900  0.503- 105 2.11 121 2.11 122 2.11 202 2.11 123 2.11
  24  0.100  0.800  0.503- 118 2.11 121 2.11 122 2.11 141 2.11 124 2.11
  25  0.200  0.000  0.407- 128 2.11 127 2.11 108 2.11 143 2.11 125 2.11
  26  0.300  0.100  0.407- 127 2.11 128 2.11 132 2.11 147 2.11 126 2.11
  27  0.200  0.100  0.503- 126 2.11 125 2.11 106 2.11 129 2.11 127 2.11
  28  0.300  0.000  0.503- 125 2.11 126 2.11 142 2.11 145 2.11 128 2.11
  29  0.200  0.200  0.407- 131 2.11 132 2.11 112 2.11 127 2.11 129 2.11
  30  0.300  0.300  0.407- 131 2.11 132 2.11 136 2.11 151 2.11 130 2.11
  31  0.200  0.300  0.503- 129 2.11 130 2.11 110 2.11 133 2.11 131 2.11
  32  0.300  0.200  0.503- 129 2.11 130 2.11 126 2.11 149 2.11 132 2.11
  33  0.200  0.400  0.407- 136 2.11 131 2.11 135 2.11 116 2.11 133 2.11
  34  0.300  0.500  0.407- 135 2.11 136 2.11 140 2.11 155 2.11 134 2.11
  35  0.200  0.500  0.503- 134 2.11 133 2.11 114 2.11 137 2.11 135 2.11
  36  0.300  0.400  0.503- 133 2.11 130 2.11 134 2.11 153 2.11 136 2.11
  37  0.200  0.600  0.407- 140 2.11 135 2.11 139 2.11 120 2.11 137 2.11
  38  0.300  0.700  0.407- 139 2.11 144 2.11 140 2.11 159 2.11 138 2.11
  39  0.200  0.700  0.503- 138 2.11 141 2.11 118 2.11 137 2.11 139 2.11
  40  0.300  0.600  0.503- 137 2.11 134 2.11 138 2.11 157 2.11 140 2.11   4 3.02
  41  0.200  0.800  0.407- 139 2.11 144 2.11 143 2.11 124 2.11 141 2.11
  42  0.300  0.900  0.407- 143 2.11 128 2.11 144 2.11 163 2.11 142 2.11
  43  0.200  0.900  0.503- 142 2.11 125 2.11 141 2.11 122 2.11 143 2.11
  44  0.300  0.800  0.503- 138 2.11 141 2.11 142 2.11 161 2.11 144 2.11
  45  0.400  0.000  0.407- 128 2.11 147 2.11 148 2.11 163 2.11 145 2.11
  46  0.500  0.100  0.407- 147 2.11 148 2.11 152 2.11 167 2.11 146 2.11
  47  0.400  0.100  0.503- 126 2.11 145 2.11 146 2.11 149 2.11 147 2.11
  48  0.500  0.000  0.503- 145 2.11 146 2.11 162 2.11 165 2.11 148 2.11
  49  0.400  0.200  0.407- 151 2.11 147 2.11 132 2.11 152 2.11 149 2.11
  50  0.500  0.300  0.407- 152 2.11 151 2.11 156 2.11 171 2.11 150 2.11
  51  0.400  0.300  0.503- 149 2.11 130 2.11 150 2.11 153 2.11 151 2.11
  52  0.500  0.200  0.503- 150 2.11 149 2.11 146 2.11 169 2.11 152 2.11
  53  0.400  0.400  0.407- 136 2.11 151 2.11 155 2.11 156 2.11 153 2.11
  54  0.500  0.500  0.407- 155 2.11 156 2.11 160 2.11 175 2.11 154 2.11
  55  0.400  0.500  0.503- 134 2.11 153 2.11 154 2.11 157 2.11 155 2.11   1 2.73
  56  0.500  0.400  0.503- 150 2.11 153 2.11 154 2.11 173 2.11 156 2.11
  57  0.400  0.600  0.407- 140 2.11 155 2.11 159 2.11 160 2.11 157 2.11
  58  0.500  0.700  0.407- 164 2.11 160 2.11 159 2.11 179 2.11 158 2.11
  59  0.400  0.700  0.503- 161 2.11 157 2.11 158 2.11 138 2.11 159 2.11   4 2.95
  60  0.500  0.600  0.503- 154 2.11 157 2.11 158 2.11 177 2.11 160 2.11   4 3.02
  61  0.400  0.800  0.407- 159 2.11 144 2.11 163 2.11 164 2.11 161 2.11
  62  0.500  0.900  0.407- 148 2.11 163 2.11 164 2.11 183 2.11 162 2.11
  63  0.400  0.900  0.503- 142 2.11 145 2.11 161 2.11 162 2.11 163 2.11
  64  0.500  0.800  0.503- 158 2.11 161 2.11 162 2.11 181 2.11 164 2.11
  65  0.600  0.000  0.407- 148 2.11 167 2.11 168 2.11 183 2.11 165 2.11
  66  0.700  0.100  0.407- 187 2.11 168 2.11 172 2.11 167 2.11 166 2.11
  67  0.600  0.100  0.503- 146 2.11 165 2.11 166 2.11 169 2.11 167 2.11
  68  0.700  0.000  0.503- 185 2.11 166 2.11 182 2.11 165 2.11 168 2.11
  69  0.600  0.200  0.407- 171 2.11 167 2.11 152 2.11 172 2.11 169 2.11
  70  0.700  0.300  0.407- 172 2.11 191 2.11 176 2.11 171 2.11 170 2.11
  71  0.600  0.300  0.503- 169 2.11 150 2.11 170 2.11 173 2.11 171 2.11
  72  0.700  0.200  0.503- 170 2.11 189 2.11 166 2.11 169 2.11 172 2.11
  73  0.600  0.400  0.407- 156 2.11 171 2.11 175 2.11 176 2.11 173 2.11
  74  0.700  0.500  0.407- 195 2.11 176 2.11 180 2.11 175 2.11 174 2.11
  75  0.600  0.500  0.503- 154 2.11 173 2.11 174 2.11 177 2.11 175 2.11
  76  0.700  0.400  0.503- 193 2.11 173 2.11 174 2.11 170 2.11 176 2.11
  77  0.600  0.600  0.407- 160 2.11 175 2.11 179 2.11 180 2.11 177 2.11
  78  0.700  0.700  0.407- 184 2.11 199 2.11 179 2.11 180 2.11 178 2.11
  79  0.600  0.700  0.503- 181 2.11 177 2.11 178 2.11 158 2.11 179 2.11
  80  0.700  0.600  0.503- 197 2.11 177 2.11 178 2.11 174 2.11 180 2.11
  81  0.600  0.800  0.407- 179 2.11 164 2.11 183 2.11 184 2.11 181 2.11
  82  0.700  0.900  0.407- 203 2.11 183 2.11 184 2.11 168 2.11 182 2.11
  83  0.600  0.900  0.503- 162 2.11 165 2.11 181 2.11 182 2.11 183 2.11
  84  0.700  0.800  0.503- 178 2.11 201 2.11 182 2.11 181 2.11 184 2.11
  85  0.800  0.000  0.407- 168 2.11 187 2.11 188 2.11 203 2.11 185 2.11
  86  0.900  0.100  0.407- 107 2.11 187 2.11 188 2.11 192 2.11 186 2.11
  87  0.800  0.100  0.503- 166 2.11 185 2.11 186 2.11 189 2.11 187 2.11
  88  0.900  0.000  0.503- 105 2.11 185 2.11 186 2.11 202 2.11 188 2.11
  89  0.800  0.200  0.407- 172 2.11 191 2.11 187 2.11 192 2.11 189 2.11
  90  0.900  0.300  0.407- 192 2.11 191 2.11 111 2.11 196 2.11 190 2.11
  91  0.800  0.300  0.503- 170 2.11 189 2.11 190 2.11 193 2.11 191 2.11
  92  0.900  0.200  0.503- 190 2.11 186 2.11 189 2.11 109 2.11 192 2.11
  93  0.800  0.400  0.407- 176 2.11 191 2.11 195 2.11 196 2.11 193 2.11
  94  0.900  0.500  0.407- 115 2.11 195 2.11 196 2.11 200 2.11 194 2.11
  95  0.800  0.500  0.503- 174 2.11 193 2.11 194 2.11 197 2.11 195 2.11
  96  0.900  0.400  0.503- 113 2.11 190 2.11 193 2.11 194 2.11 196 2.11
  97  0.800  0.600  0.407- 180 2.11 195 2.11 199 2.11 200 2.11 197 2.11
  98  0.900  0.700  0.407- 204 2.11 199 2.11 200 2.11 119 2.11 198 2.11
  99  0.800  0.700  0.503- 178 2.11 201 2.11 198 2.11 197 2.11 199 2.11
 100  0.900  0.600  0.503- 117 2.11 194 2.11 197 2.11 198 2.11 200 2.11
 101  0.800  0.800  0.407- 184 2.11 199 2.11 203 2.11 204 2.11 201 2.11
 102  0.900  0.900  0.407- 123 2.11 188 2.11 203 2.11 204 2.11 202 2.11
 103  0.800  0.900  0.503- 182 2.11 185 2.11 201 2.11 202 2.11 203 2.11
 104  0.900  0.800  0.503- 198 2.11 121 2.11 201 2.11 202 2.11 204 2.11
 105  0.000  0.000  0.503-   7 2.11   8 2.11  23 2.11  88 2.11   5 2.11
 106  0.100  0.100  0.503-   7 2.11   8 2.11  12 2.11  27 2.11   6 2.11
 107  0.000  0.100  0.407-   5 2.11   6 2.11   9 2.11  86 2.11   7 2.11
 108  0.100  0.000  0.407-   5 2.11   6 2.11  22 2.11  25 2.11   8 2.11
 109  0.000  0.200  0.503-  11 2.11   7 2.11  12 2.11  92 2.11   9 2.11
 110  0.100  0.300  0.503-  12 2.11  11 2.11  16 2.11  31 2.11  10 2.11
 111  0.000  0.300  0.407-   9 2.11  10 2.11  13 2.11  90 2.11  11 2.11
 112  0.100  0.200  0.407-  10 2.11   9 2.11   6 2.11  29 2.11  12 2.11
 113  0.000  0.400  0.503-  11 2.11  15 2.11  16 2.11  96 2.11  13 2.11
 114  0.100  0.500  0.503-  15 2.11  16 2.11  20 2.11  35 2.11  14 2.11
 115  0.000  0.500  0.407-  13 2.11  14 2.11  17 2.11  94 2.11  15 2.11
 116  0.100  0.400  0.407-  10 2.11  13 2.11  14 2.11  33 2.11  16 2.11
 117  0.000  0.600  0.503-  15 2.11  19 2.11  20 2.11 100 2.11  17 2.11
 118  0.100  0.700  0.503-  24 2.11  20 2.11  19 2.11  39 2.11  18 2.11
 119  0.000  0.700  0.407-  21 2.11  18 2.11  17 2.11  98 2.11  19 2.11
 120  0.100  0.600  0.407-  14 2.11  17 2.11  18 2.11  37 2.11  20 2.11
 121  0.000  0.800  0.503-  19 2.11  23 2.11  24 2.11 104 2.11  21 2.11
 122  0.100  0.900  0.503-   8 2.11  23 2.11  24 2.11  43 2.11  22 2.11
 123  0.000  0.900  0.407-   5 2.11  21 2.11  22 2.11 102 2.11  23 2.11
 124  0.100  0.800  0.407-  18 2.11  21 2.11  22 2.11  41 2.11  24 2.11
 125  0.200  0.000  0.503-  28 2.11  27 2.11   8 2.11  43 2.11  25 2.11
 126  0.300  0.100  0.503-  27 2.11  28 2.11  32 2.11  47 2.11  26 2.11
 127  0.200  0.100  0.407-  26 2.11  25 2.11   6 2.11  29 2.11  27 2.11
 128  0.300  0.000  0.407-  25 2.11  26 2.11  42 2.11  45 2.11  28 2.11
 129  0.200  0.200  0.503-  31 2.11  32 2.11  12 2.11  27 2.11  29 2.11
 130  0.300  0.300  0.503-  31 2.11  32 2.11  36 2.11  51 2.11  30 2.11
 131  0.200  0.300  0.407-  29 2.11  30 2.11  10 2.11  33 2.11  31 2.11
 132  0.300  0.200  0.407-  29 2.11  30 2.11  26 2.11  49 2.11  32 2.11
 133  0.200  0.400  0.503-  36 2.11  31 2.11  35 2.11  16 2.11  33 2.11
 134  0.300  0.500  0.503-  35 2.11  36 2.11  40 2.11  55 2.11  34 2.11
 135  0.200  0.500  0.407-  34 2.11  33 2.11  14 2.11  37 2.11  35 2.11
 136  0.300  0.400  0.407-  33 2.11  30 2.11  34 2.11  53 2.11  36 2.11
 137  0.200  0.600  0.503-  40 2.11  35 2.11  39 2.11  20 2.11  37 2.11
 138  0.300  0.700  0.503-  39 2.11  44 2.11  40 2.11  59 2.11  38 2.11
 139  0.200  0.700  0.407-  38 2.11  41 2.11  18 2.11  37 2.11  39 2.11
 140  0.300  0.600  0.407-  37 2.11  34 2.11  38 2.11  57 2.11  40 2.11
 141  0.200  0.800  0.503-  39 2.11  44 2.11  43 2.11  24 2.11  41 2.11
 142  0.300  0.900  0.503-  43 2.11  28 2.11  44 2.11  63 2.11  42 2.11
 143  0.200  0.900  0.407-  42 2.11  25 2.11  41 2.11  22 2.11  43 2.11
 144  0.300  0.800  0.407-  38 2.11  41 2.11  42 2.11  61 2.11  44 2.11
 145  0.400  0.000  0.503-  28 2.11  47 2.11  48 2.11  63 2.11  45 2.11
 146  0.500  0.100  0.503-  47 2.11  48 2.11  52 2.11  67 2.11  46 2.11
 147  0.400  0.100  0.407-  26 2.11  45 2.11  46 2.11  49 2.11  47 2.11
 148  0.500  0.000  0.407-  45 2.11  46 2.11  62 2.11  65 2.11  48 2.11
 149  0.400  0.200  0.503-  51 2.11  47 2.11  32 2.11  52 2.11  49 2.11
 150  0.500  0.300  0.503-  52 2.11  51 2.11  56 2.11  71 2.11  50 2.11
 151  0.400  0.300  0.407-  49 2.11  30 2.11  50 2.11  53 2.11  51 2.11
 152  0.500  0.200  0.407-  50 2.11  49 2.11  46 2.11  69 2.11  52 2.11
 153  0.400  0.400  0.503-  36 2.11  51 2.11  55 2.11  56 2.11  53 2.11   1 2.29
 154  0.500  0.500  0.503-  55 2.11  56 2.11  60 2.11  75 2.11  54 2.11
 155  0.400  0.500  0.407-  34 2.11  53 2.11  54 2.11  57 2.11  55 2.11
 156  0.500  0.400  0.407-  50 2.11  53 2.11  54 2.11  73 2.11  56 2.11
 157  0.400  0.600  0.503-  40 2.11  55 2.11  59 2.11  60 2.11  57 2.11   4 2.16
 158  0.500  0.700  0.503-  64 2.11  60 2.11  59 2.11  79 2.11  58 2.11
 159  0.400  0.700  0.407-  61 2.11  57 2.11  58 2.11  38 2.11  59 2.11
 160  0.500  0.600  0.407-  54 2.11  57 2.11  58 2.11  77 2.11  60 2.11
 161  0.400  0.800  0.503-  59 2.11  44 2.11  63 2.11  64 2.11  61 2.11
 162  0.500  0.900  0.503-  48 2.11  63 2.11  64 2.11  83 2.11  62 2.11
 163  0.400  0.900  0.407-  42 2.11  45 2.11  61 2.11  62 2.11  63 2.11
 164  0.500  0.800  0.407-  58 2.11  61 2.11  62 2.11  81 2.11  64 2.11
 165  0.600  0.000  0.503-  48 2.11  67 2.11  68 2.11  83 2.11  65 2.11
 166  0.700  0.100  0.503-  87 2.11  68 2.11  72 2.11  67 2.11  66 2.11
 167  0.600  0.100  0.407-  46 2.11  65 2.11  66 2.11  69 2.11  67 2.11
 168  0.700  0.000  0.407-  85 2.11  66 2.11  82 2.11  65 2.11  68 2.11
 169  0.600  0.200  0.503-  71 2.11  67 2.11  52 2.11  72 2.11  69 2.11
 170  0.700  0.300  0.503-  72 2.11  91 2.11  76 2.11  71 2.11  70 2.11
 171  0.600  0.300  0.407-  69 2.11  50 2.11  70 2.11  73 2.11  71 2.11
 172  0.700  0.200  0.407-  70 2.11  89 2.11  66 2.11  69 2.11  72 2.11
 173  0.600  0.400  0.503-  56 2.11  71 2.11  75 2.11  76 2.11  73 2.11
 174  0.700  0.500  0.503-  95 2.11  76 2.11  80 2.11  75 2.11  74 2.11
 175  0.600  0.500  0.407-  54 2.11  73 2.11  74 2.11  77 2.11  75 2.11
 176  0.700  0.400  0.407-  93 2.11  73 2.11  74 2.11  70 2.11  76 2.11
 177  0.600  0.600  0.503-  60 2.11  75 2.11  79 2.11  80 2.11  77 2.11
 178  0.700  0.700  0.503-  84 2.11  99 2.11  79 2.11  80 2.11  78 2.11
 179  0.600  0.700  0.407-  81 2.11  77 2.11  78 2.11  58 2.11  79 2.11
 180  0.700  0.600  0.407-  97 2.11  77 2.11  78 2.11  74 2.11  80 2.11
 181  0.600  0.800  0.503-  79 2.11  64 2.11  83 2.11  84 2.11  81 2.11
 182  0.700  0.900  0.503- 103 2.11  83 2.11  84 2.11  68 2.11  82 2.11
 183  0.600  0.900  0.407-  62 2.11  65 2.11  81 2.11  82 2.11  83 2.11
 184  0.700  0.800  0.407-  78 2.11 101 2.11  82 2.11  81 2.11  84 2.11
 185  0.800  0.000  0.503-  68 2.11  87 2.11  88 2.11 103 2.11  85 2.11
 186  0.900  0.100  0.503-   7 2.11  87 2.11  88 2.11  92 2.11  86 2.11
 187  0.800  0.100  0.407-  66 2.11  85 2.11  86 2.11  89 2.11  87 2.11
 188  0.900  0.000  0.407-   5 2.11  85 2.11  86 2.11 102 2.11  88 2.11
 189  0.800  0.200  0.503-  72 2.11  91 2.11  87 2.11  92 2.11  89 2.11
 190  0.900  0.300  0.503-  92 2.11  91 2.11  11 2.11  96 2.11  90 2.11
 191  0.800  0.300  0.407-  70 2.11  89 2.11  90 2.11  93 2.11  91 2.11
 192  0.900  0.200  0.407-  90 2.11  86 2.11  89 2.11   9 2.11  92 2.11
 193  0.800  0.400  0.503-  76 2.11  91 2.11  95 2.11  96 2.11  93 2.11
 194  0.900  0.500  0.503-  15 2.11  95 2.11  96 2.11 100 2.11  94 2.11
 195  0.800  0.500  0.407-  74 2.11  93 2.11  94 2.11  97 2.11  95 2.11
 196  0.900  0.400  0.407-  13 2.11  90 2.11  93 2.11  94 2.11  96 2.11
 197  0.800  0.600  0.503-  80 2.11  95 2.11  99 2.11 100 2.11  97 2.11
 198  0.900  0.700  0.503- 104 2.11  99 2.11 100 2.11  19 2.11  98 2.11
 199  0.800  0.700  0.407-  78 2.11 101 2.11  98 2.11  97 2.11  99 2.11
 200  0.900  0.600  0.407-  17 2.11  94 2.11  97 2.11  98 2.11 100 2.11
 201  0.800  0.800  0.503-  84 2.11  99 2.11 103 2.11 104 2.11 101 2.11
 202  0.900  0.900  0.503-  23 2.11  88 2.11 103 2.11 104 2.11 102 2.11
 203  0.800  0.900  0.407-  82 2.11  85 2.11 101 2.11 102 2.11 103 2.11
 204  0.900  0.800  0.407-  98 2.11  21 2.11 101 2.11 102 2.11 104 2.11

  LATTYP: Found a simple tetragonal cell.
 ALAT       =    21.1388521970
 C/A-ratio  =     1.0461251639
  
  Lattice vectors:
  
 A1 = (  21.1388521970,   0.0000000000,   0.0000000000)
 A2 = (   0.0000000000,  21.1388521970,   0.0000000000)
 A3 = (   0.0000000000,   0.0000000000,  22.1138852197)


Analysis of symmetry for initial positions (statically):
=====================================================================
 Subroutine PRICEL returns:
 Original cell was already a primitive cell.
 

 Routine SETGRP: Setting up the symmetry group for a 
 simple tetragonal supercell.


 Subroutine GETGRP returns: Found  1 space group operations
 (whereof  1 operations were pure point group operations)
 out of a pool of 16 trial point group operations.


The static configuration has the point symmetry C_1 .


Analysis of symmetry for dynamics (positions and initial velocities):
=====================================================================
 Subroutine PRICEL returns:
 Original cell was already a primitive cell.
 

 Routine SETGRP: Setting up the symmetry group for a 
 simple tetragonal supercell.


 Subroutine GETGRP returns: Found  1 space group operations
 (whereof  1 operations were pure point group operations)
 out of a pool of 16 trial point group operations.


The dynamic configuration has the point symmetry C_1 .


Analysis of constrained symmetry for selective dynamics:
=====================================================================
 Subroutine PRICEL returns:
 Original cell was already a primitive cell.
 

 Routine SETGRP: Setting up the symmetry group for a 
 simple tetragonal supercell.


 Subroutine GETGRP returns: Found  1 space group operations
 (whereof  1 operations were pure point group operations)
 out of a pool of 16 trial point group operations.


The constrained configuration has the point symmetry C_1 .


 Subroutine INISYM returns: Found  1 space group operations
 (whereof  1 operations are pure point group operations),
 and found     1 'primitive' translations


----------------------------------------------------------------------------------------

                                     Primitive cell                                     

  volume of cell :    9881.6133

  direct lattice vectors                    reciprocal lattice vectors
    21.138852197  0.000000000  0.000000000     0.047306258  0.000000000  0.000000000
     0.000000000 21.138852197  0.000000000     0.000000000  0.047306258  0.000000000
     0.000000000  0.000000000 22.113885220     0.000000000  0.000000000  0.045220457

  length of vectors
    21.138852197 21.138852197 22.113885220     0.047306258  0.047306258  0.045220457

  position of ions in fractional coordinates (direct lattice)
     0.399951201  0.425242954  0.603301976
     0.399957296  0.509675129  0.684179581
     0.400053355  0.632584174  0.713145052
     0.399972466  0.604759939  0.599963044
     0.000000000  0.000000000  0.406984115
     0.100000000  0.100000000  0.406984115
     0.000000000  0.100000000  0.502574971
     0.100000000  0.000000000  0.502574971
     0.000000000  0.200000000  0.406984115
     0.100000000  0.300000000  0.406984115
     0.000000000  0.300000000  0.502574971
     0.100000000  0.200000000  0.502574971
     0.000000000  0.400000000  0.406984115
     0.100000000  0.500000000  0.406984115
     0.000000000  0.500000000  0.502574971
     0.100000000  0.400000000  0.502574971
     0.000000000  0.600000000  0.406984115
     0.100000000  0.700000000  0.406984115
     0.000000000  0.700000000  0.502574971
     0.100000000  0.600000000  0.502574971
     0.000000000  0.800000000  0.406984115
     0.100000000  0.900000000  0.406984115
     0.000000000  0.900000000  0.502574971
     0.100000000  0.800000000  0.502574971
     0.200000000  0.000000000  0.406984115
     0.300000000  0.100000000  0.406984115
     0.200000000  0.100000000  0.502574971
     0.300000000  0.000000000  0.502574971
     0.200000000  0.200000000  0.406984115
     0.300000000  0.300000000  0.406984115
     0.200000000  0.300000000  0.502574971
     0.300000000  0.200000000  0.502574971
     0.200000000  0.400000000  0.406984115
     0.300000000  0.500000000  0.406984115
     0.200000000  0.500000000  0.502574971
     0.300000000  0.400000000  0.502574971
     0.200000000  0.600000000  0.406984115
     0.300000000  0.700000000  0.406984115
     0.200000000  0.700000000  0.502574971
     0.300000000  0.600000000  0.502574971
     0.200000000  0.800000000  0.406984115
     0.300000000  0.900000000  0.406984115
     0.200000000  0.900000000  0.502574971
     0.300000000  0.800000000  0.502574971
     0.400000000  0.000000000  0.406984115
     0.500000000  0.100000000  0.406984115
     0.400000000  0.100000000  0.502574971
     0.500000000  0.000000000  0.502574971
     0.400000000  0.200000000  0.406984115
     0.500000000  0.300000000  0.406984115
     0.400000000  0.300000000  0.502574971
     0.500000000  0.200000000  0.502574971
     0.400000000  0.400000000  0.406984115
     0.500000000  0.500000000  0.406984115
     0.400000000  0.500000000  0.502574971
     0.500000000  0.400000000  0.502574971
     0.400000000  0.600000000  0.406984115
     0.500000000  0.700000000  0.406984115
     0.400000000  0.700000000  0.502574971
     0.500000000  0.600000000  0.502574971
     0.400000000  0.800000000  0.406984115
     0.500000000  0.900000000  0.406984115
     0.400000000  0.900000000  0.502574971
     0.500000000  0.800000000  0.502574971
     0.600000000  0.000000000  0.406984115
     0.700000000  0.100000000  0.406984115
     0.600000000  0.100000000  0.502574971
     0.700000000  0.000000000  0.502574971
     0.600000000  0.200000000  0.406984115
     0.700000000  0.300000000  0.406984115
     0.600000000  0.300000000  0.502574971
     0.700000000  0.200000000  0.502574971
     0.600000000  0.400000000  0.406984115
     0.700000000  0.500000000  0.406984115
     0.600000000  0.500000000  0.502574971
     0.700000000  0.400000000  0.502574971
     0.600000000  0.600000000  0.406984115
     0.700000000  0.700000000  0.406984115
     0.600000000  0.700000000  0.502574971
     0.700000000  0.600000000  0.502574971
     0.600000000  0.800000000  0.406984115
     0.700000000  0.900000000  0.406984115
     0.600000000  0.900000000  0.502574971
     0.700000000  0.800000000  0.502574971
     0.800000000  0.000000000  0.406984115
     0.900000000  0.100000000  0.406984115
     0.800000000  0.100000000  0.502574971
     0.900000000  0.000000000  0.502574971
     0.800000000  0.200000000  0.406984115
     0.900000000  0.300000000  0.406984115
     0.800000000  0.300000000  0.502574971
     0.900000000  0.200000000  0.502574971
     0.800000000  0.400000000  0.406984115
     0.900000000  0.500000000  0.406984115
     0.800000000  0.500000000  0.502574971
     0.900000000  0.400000000  0.502574971
     0.800000000  0.600000000  0.406984115
     0.900000000  0.700000000  0.406984115
     0.800000000  0.700000000  0.502574971
     0.900000000  0.600000000  0.502574971
     0.800000000  0.800000000  0.406984115
     0.900000000  0.900000000  0.406984115
     0.800000000  0.900000000  0.502574971
     0.900000000  0.800000000  0.502574971
     0.000000000  0.000000000  0.502574971
     0.100000000  0.100000000  0.502574971
     0.000000000  0.100000000  0.406984115
     0.100000000  0.000000000  0.406984115
     0.000000000  0.200000000  0.502574971
     0.100000000  0.300000000  0.502574971
     0.000000000  0.300000000  0.406984115
     0.100000000  0.200000000  0.406984115
     0.000000000  0.400000000  0.502574971
     0.100000000  0.500000000  0.502574971
     0.000000000  0.500000000  0.406984115
     0.100000000  0.400000000  0.406984115
     0.000000000  0.600000000  0.502574971
     0.100000000  0.700000000  0.502574971
     0.000000000  0.700000000  0.406984115
     0.100000000  0.600000000  0.406984115
     0.000000000  0.800000000  0.502574971
     0.100000000  0.900000000  0.502574971
     0.000000000  0.900000000  0.406984115
     0.100000000  0.800000000  0.406984115
     0.200000000  0.000000000  0.502574971
     0.300000000  0.100000000  0.502574971
     0.200000000  0.100000000  0.406984115
     0.300000000  0.000000000  0.406984115
     0.200000000  0.200000000  0.502574971
     0.300000000  0.300000000  0.502574971
     0.200000000  0.300000000  0.406984115
     0.300000000  0.200000000  0.406984115
     0.200000000  0.400000000  0.502574971
     0.300000000  0.500000000  0.502574971
     0.200000000  0.500000000  0.406984115
     0.300000000  0.400000000  0.406984115
     0.200000000  0.600000000  0.502574971
     0.300000000  0.700000000  0.502574971
     0.200000000  0.700000000  0.406984115
     0.300000000  0.600000000  0.406984115
     0.200000000  0.800000000  0.502574971
     0.300000000  0.900000000  0.502574971
     0.200000000  0.900000000  0.406984115
     0.300000000  0.800000000  0.406984115
     0.400000000  0.000000000  0.502574971
     0.500000000  0.100000000  0.502574971
     0.400000000  0.100000000  0.406984115
     0.500000000  0.000000000  0.406984115
     0.400000000  0.200000000  0.502574971
     0.500000000  0.300000000  0.502574971
     0.400000000  0.300000000  0.406984115
     0.500000000  0.200000000  0.406984115
     0.400000000  0.400000000  0.502574971
     0.500000000  0.500000000  0.502574971
     0.400000000  0.500000000  0.406984115
     0.500000000  0.400000000  0.406984115
     0.400000000  0.600000000  0.502574971
     0.500000000  0.700000000  0.502574971
     0.400000000  0.700000000  0.406984115
     0.500000000  0.600000000  0.406984115
     0.400000000  0.800000000  0.502574971
     0.500000000  0.900000000  0.502574971
     0.400000000  0.900000000  0.406984115
     0.500000000  0.800000000  0.406984115
     0.600000000  0.000000000  0.502574971
     0.700000000  0.100000000  0.502574971
     0.600000000  0.100000000  0.406984115
     0.700000000  0.000000000  0.406984115
     0.600000000  0.200000000  0.502574971
     0.700000000  0.300000000  0.502574971
     0.600000000  0.300000000  0.406984115
     0.700000000  0.200000000  0.406984115
     0.600000000  0.400000000  0.502574971
     0.700000000  0.500000000  0.502574971
     0.600000000  0.500000000  0.406984115
     0.700000000  0.400000000  0.406984115
     0.600000000  0.600000000  0.502574971
     0.700000000  0.700000000  0.502574971
     0.600000000  0.700000000  0.406984115
     0.700000000  0.600000000  0.406984115
     0.600000000  0.800000000  0.502574971
     0.700000000  0.900000000  0.502574971
     0.600000000  0.900000000  0.406984115
     0.700000000  0.800000000  0.406984115
     0.800000000  0.000000000  0.502574971
     0.900000000  0.100000000  0.502574971
     0.800000000  0.100000000  0.406984115
     0.900000000  0.000000000  0.406984115
     0.800000000  0.200000000  0.502574971
     0.900000000  0.300000000  0.502574971
     0.800000000  0.300000000  0.406984115
     0.900000000  0.200000000  0.406984115
     0.800000000  0.400000000  0.502574971
     0.900000000  0.500000000  0.502574971
     0.800000000  0.500000000  0.406984115
     0.900000000  0.400000000  0.406984115
     0.800000000  0.600000000  0.502574971
     0.900000000  0.700000000  0.502574971
     0.800000000  0.700000000  0.406984115
     0.900000000  0.600000000  0.406984115
     0.800000000  0.800000000  0.502574971
     0.900000000  0.900000000  0.502574971
     0.800000000  0.900000000  0.406984115
     0.900000000  0.800000000  0.406984115

  ion indices of the primitive-cell ions
   primitive index   ion index
                 1           1
                 2           2
                 3           3
                 4           4
                 5           5
                 6           6
                 7           7
                 8           8
                 9           9
                10          10
                11          11
                12          12
                13          13
                14          14
                15          15
                16          16
                17          17
                18          18
                19          19
                20          20
                21          21
                22          22
                23          23
                24          24
                25          25
                26          26
                27          27
                28          28
                29          29
                30          30
                31          31
                32          32
                33          33
                34          34
                35          35
                36          36
                37          37
                38          38
                39          39
                40          40
                41          41
                42          42
                43          43
                44          44
                45          45
                46          46
                47          47
                48          48
                49          49
                50          50
                51          51
                52          52
                53          53
                54          54
                55          55
                56          56
                57          57
                58          58
                59          59
                60          60
                61          61
                62          62
                63          63
                64          64
                65          65
                66          66
                67          67
                68          68
                69          69
                70          70
                71          71
                72          72
                73          73
                74          74
                75          75
                76          76
                77          77
                78          78
                79          79
                80          80
                81          81
                82          82
                83          83
                84          84
                85          85
                86          86
                87          87
                88          88
                89          89
                90          90
                91          91
                92          92
                93          93
                94          94
                95          95
                96          96
                97          97
                98          98
                99          99
               100         100
               101         101
               102         102
               103         103
               104         104
               105         105
               106         106
               107         107
               108         108
               109         109
               110         110
               111         111
               112         112
               113         113
               114         114
               115         115
               116         116
               117         117
               118         118
               119         119
               120         120
               121         121
               122         122
               123         123
               124         124
               125         125
               126         126
               127         127
               128         128
               129         129
               130         130
               131         131
               132         132
               133         133
               134         134
               135         135
               136         136
               137         137
               138         138
               139         139
               140         140
               141         141
               142         142
               143         143
               144         144
               145         145
               146         146
               147         147
               148         148
               149         149
               150         150
               151         151
               152         152
               153         153
               154         154
               155         155
               156         156
               157         157
               158         158
               159         159
               160         160
               161         161
               162         162
               163         163
               164         164
               165         165
               166         166
               167         167
               168         168
               169         169
               170         170
               171         171
               172         172
               173         173
               174         174
               175         175
               176         176
               177         177
               178         178
               179         179
               180         180
               181         181
               182         182
               183         183
               184         184
               185         185
               186         186
               187         187
               188         188
               189         189
               190         190
               191         191
               192         192
               193         193
               194         194
               195         195
               196         196
               197         197
               198         198
               199         199
               200         200
               201         201
               202         202
               203         203
               204         204

----------------------------------------------------------------------------------------



 KPOINTS: KPOINTS created by Atomic Simulation Env

Automatic generation of k-mesh.
 Grid dimensions read from file:
 generate k-points for:    4    4    1

 Generating k-lattice:

  Cartesian coordinates                     Fractional coordinates (reciprocal lattice)
     0.011826565  0.000000000  0.000000000     0.250000000  0.000000000  0.000000000
     0.000000000  0.011826565  0.000000000     0.000000000  0.250000000  0.000000000
     0.000000000  0.000000000  0.045220457     0.000000000  0.000000000  1.000000000

  Length of vectors
     0.011826565  0.011826565  0.045220457

  Shift w.r.t. Gamma in fractional coordinates (k-lattice)
     0.500000000  0.500000000  0.000000000

 
 Subroutine IBZKPT returns following result:
 ===========================================
 
 Found      8 irreducible k-points:
 
 Following reciprocal coordinates:
            Coordinates               Weight
  0.125000  0.125000  0.000000      2.000000
 -0.125000  0.125000  0.000000      2.000000
  0.375000  0.125000  0.000000      2.000000
 -0.125000  0.375000  0.000000      2.000000
 -0.375000  0.125000  0.000000      2.000000
  0.125000  0.375000  0.000000      2.000000
  0.375000  0.375000  0.000000      2.000000
 -0.375000  0.375000  0.000000      2.000000
 
 Following cartesian coordinates:
            Coordinates               Weight
  0.005913  0.005913  0.000000      2.000000
 -0.005913  0.005913  0.000000      2.000000
  0.017740  0.005913  0.000000      2.000000
 -0.005913  0.017740  0.000000      2.000000
 -0.017740  0.005913  0.000000      2.000000
  0.005913  0.017740  0.000000      2.000000
  0.017740  0.017740  0.000000      2.000000
 -0.017740  0.017740  0.000000      2.000000
 


--------------------------------------------------------------------------------------------------------




 Dimension of arrays:
   k-points           NKPTS =      8   k-points in BZ     NKDIM =      8   number of bands    NBANDS=    960
   number of dos      NEDOS =    301   number of ions     NIONS =    204
   non local maximal  LDIM  =      6   non local SUM 2l+1 LMDIM =     18
   total plane-waves  NPLWV = ******
   max r-space proj   IRMAX =   6070   max aug-charges    IRDMAX=  26812
   dimension x,y,z NGX =   160 NGY =  160 NGZ =  168
   dimension x,y,z NGXF=   320 NGYF=  320 NGZF=  336
   support grid    NGXF=   320 NGYF=  320 NGZF=  336
   ions per type =               4 100 100
   NGX,Y,Z   is equivalent  to a cutoff of  12.58, 12.58, 12.63 a.u.
   NGXF,Y,Z  is equivalent  to a cutoff of  25.17, 25.17, 25.26 a.u.

 SYSTEM =  MgO-rocksalt                            
 POSCAR =  Au Mg  O                                

 Startparameter for this run:
   NWRITE =      2    write-flag & timer
   PREC   = accura    normal or accurate (medium, high low for compatibility)
   ISTART =      0    job   : 0-new  1-cont  2-samecut
   ICHARG =      2    charge: 1-file 2-atom 10-const
   ISPIN  =      1    spin polarized calculation?
   LNONCOLLINEAR =      F non collinear calculations
   LSORBIT =      F    spin-orbit coupling
   INIWAV =      1    electr: 0-lowe 1-rand  2-diag
   LASPH  =      T    aspherical Exc in radial PAW
 Electronic Relaxation 1
   ENCUT  =  520.0 eV  38.22 Ry    6.18 a.u.  39.30 39.30 41.12*2*pi/ulx,y,z
   ENINI  =  520.0     initial cutoff
   ENAUG  =  758.8 eV  augmentation charge cutoff
   NELM   =    200;   NELMIN=  8; NELMDL= -5     # of ELM steps 
   EDIFF  = 0.1E-05   stopping-criterion for ELM
   LREAL  =      T    real-space projection
   NLSPLINE    = F    spline interpolate recip. space projectors
   LCOMPAT=      F    compatible to vasp.4.4
   GGA_COMPAT  = T    GGA compatible to vasp.4.4-vasp.4.6
   LMAXPAW     = -100 max onsite density
   LMAXMIX     =    2 max onsite mixed and CHGCAR
   VOSKOWN=      0    Vosko Wilk Nusair interpolation
   ROPT   =   -0.00025  -0.00025  -0.00025
 Ionic relaxation
   EDIFFG = 0.1E-04   stopping-criterion for IOM
   NSW    =      0    number of steps for IOM
   NBLOCK =      1;   KBLOCK =      1    inner block; outer block 
   IBRION =     -1    ionic relax: 0-MD 1-quasi-New 2-CG
   NFREE  =      0    steps in history (QN), initial steepest desc. (CG)
   ISIF   =      2    stress and relaxation
   IWAVPR =     10    prediction:  0-non 1-charg 2-wave 3-comb
   ISYM   =      2    0-nonsym 1-usesym 2-fastsym
   LCORR  =      T    Harris-Foulkes like correction to forces

   POTIM  = 0.5000    time-step for ionic-motion
   TEIN   =    0.0    initial temperature
   TEBEG  =    0.0;   TEEND  =   0.0 temperature during run
   SMASS  =  -3.00    Nose mass-parameter (am)
   estimated Nose-frequenzy (Omega)   =  0.10E-29 period in steps = 0.13E+47 mass=  -0.102E-25a.u.
   SCALEE = 1.0000    scale energy and forces
   NPACO  =    256;   APACO  = 10.0  distance and # of slots for P.C.
   PSTRESS=    0.0 pullay stress

  Mass of Ions in am
   POMASS = 196.97 24.30 16.00
  Ionic Valenz
   ZVAL   =  11.00  8.00  6.00
  Atomic Wigner-Seitz radii
   RWIGS  =  -1.00 -1.00 -1.00
  virtual crystal weights 
   VCA    =   1.00  1.00  1.00
   NELECT =    1444.0000    total number of electrons
   NUPDOWN=      -1.0000    fix difference up-down

 DOS related values:
   EMIN   =  10.00;   EMAX   =-10.00  energy-range for DOS
   EFERMI =   0.00
   ISMEAR =     0;   SIGMA  =   0.05  broadening in eV -4-tet -1-fermi 0-gaus

 Electronic relaxation 2 (details)
   IALGO  =     58    algorithm
   LDIAG  =      T    sub-space diagonalisation (order eigenvalues)
   LSUBROT=      F    optimize rotation matrix (better conditioning)
   TURBO    =      0    0=normal 1=particle mesh
   IRESTART =      0    0=no restart 2=restart with 2 vectors
   NREBOOT  =      0    no. of reboots
   NMIN     =      0    reboot dimension
   EREF     =   0.00    reference energy to select bands
   IMIX   =      4    mixing-type and parameters
     AMIX     =   0.40;   BMIX     =  1.00
     AMIX_MAG =   1.60;   BMIX_MAG =  1.00
     AMIN     =   0.10
     WC   =   100.;   INIMIX=   1;  MIXPRE=   1;  MAXMIX= -45

 Intra band minimization:
   WEIMIN = 0.0000     energy-eigenvalue tresh-hold
   EBREAK =  0.26E-09  absolut break condition
   DEPER  =   0.30     relativ break condition  

   TIME   =   0.40     timestep for ELM

  volume/ion in A,a.u.               =      48.44       326.88
  Fermi-wavevector in a.u.,A,eV,Ry     =   0.862293  1.629497 10.116590  0.743548
  Thomas-Fermi vector in A             =   1.980073

 Write flags
   LWAVE        =      F    write WAVECAR
   LDOWNSAMPLE  =      F    k-point downsampling of WAVECAR
   LCHARG       =      F    write CHGCAR
   LVTOT        =      F    write LOCPOT, total local potential
   LVHAR        =      F    write LOCPOT, Hartree potential only
   LELF         =      F    write electronic localiz. function (ELF)
   LORBIT       =      0    0 simple, 1 ext, 2 COOP (PROOUT), +10 PAW based schemes


 Dipole corrections
   LMONO  =      F    monopole corrections only (constant potential shift)
   LDIPOL =      T    correct potential (dipole corrections)
   IDIPOL =      3    1-x, 2-y, 3-z, 4-all directions 
   EPSILON=  1.0000000 bulk dielectric constant

 Exchange correlation treatment:
   GGA     =    PE    GGA type
   LEXCH   =     8    internal setting for exchange type
   LIBXC   =     F    Libxc                    
   VOSKOWN =     0    Vosko Wilk Nusair interpolation
   LHFCALC =     F    Hartree Fock is set to
   LHFONE  =     F    Hartree Fock one center treatment
   AEXX    =    0.0000 exact exchange contribution

 Linear response parameters
   LEPSILON=     F    determine dielectric tensor
   LRPA    =     F    only Hartree local field effects (RPA)
   LNABLA  =     F    use nabla operator in PAW spheres
   LVEL    =     F    velocity operator in full k-point grid
   CSHIFT  =0.1000    complex shift for real part using Kramers Kronig
   OMEGAMAX=  -1.0    maximum frequency
   DEG_THRESHOLD= 0.2000000E-02 threshold for treating states as degnerate
   RTIME   =   -0.100 relaxation time in fs
  (WPLASMAI=    0.000 imaginary part of plasma frequency in eV, 0.658/RTIME)
   DFIELD  = 0.0000000 0.0000000 0.0000000 field for delta impulse in time

  Optional k-point grid parameters
   LKPOINTS_OPT  =     F    use optional k-point grid
   KPOINTS_OPT_MODE=     1    mode for optional k-point grid

 Orbital magnetization related:
   ORBITALMAG=     F  switch on orbital magnetization
   LCHIMAG   =     F  perturbation theory with respect to B field
   DQ        =  0.001000  dq finite difference perturbation B field
   LLRAUG    =     F  two centre corrections for induced B field



--------------------------------------------------------------------------------------------------------


 Static calculation
 charge density and potential will be updated during run
 non-spin polarized calculation
 Conjugate gradient for all bands (Freysoldt, et al. PRB 79, 241103 (2009))
 preconditioned conjugated gradient                                        
 perform sub-space diagonalisation
    before iterative eigenvector-optimisation
 modified Broyden-mixing scheme, WC =      100.0
 initial mixing is a Kerker type mixing with AMIX =  0.4000 and BMIX =      1.0000
 Hartree-type preconditioning will be used
 using additional bands          238
 real space projection scheme for non local part
 use partial core corrections
 no Harris-corrections to forces 
 use gradient corrections 
 use of overlap-Matrix (Vanderbilt PP)
 Gauss-broadening in eV      SIGMA  =   0.05


--------------------------------------------------------------------------------------------------------


  energy-cutoff  :      520.00
  volume of cell :     9881.61
      direct lattice vectors                 reciprocal lattice vectors
    21.138852197  0.000000000  0.000000000     0.047306258  0.000000000  0.000000000
     0.000000000 21.138852197  0.000000000     0.000000000  0.047306258  0.000000000
     0.000000000  0.000000000 22.113885220     0.000000000  0.000000000  0.045220457

  length of vectors
    21.138852197 21.138852197 22.113885220     0.047306258  0.047306258  0.045220457



 k-points in units of 2pi/SCALE and weight: KPOINTS created by Atomic Simulation Env
   0.00591328  0.00591328  0.00000000       0.125
  -0.00591328  0.00591328  0.00000000       0.125
   0.01773985  0.00591328  0.00000000       0.125
  -0.00591328  0.01773985  0.00000000       0.125
  -0.01773985  0.00591328  0.00000000       0.125
   0.00591328  0.01773985  0.00000000       0.125
   0.01773985  0.01773985  0.00000000       0.125
  -0.01773985  0.01773985  0.00000000       0.125

 k-points in reciprocal lattice and weights: KPOINTS created by Atomic Simulation Env
   0.12500000  0.12500000  0.00000000       0.125
  -0.12500000  0.12500000  0.00000000       0.125
   0.37500000  0.12500000  0.00000000       0.125
  -0.12500000  0.37500000  0.00000000       0.125
  -0.37500000  0.12500000  0.00000000       0.125
   0.12500000  0.37500000  0.00000000       0.125
   0.37500000  0.37500000  0.00000000       0.125
  -0.37500000  0.37500000  0.00000000       0.125

 position of ions in fractional coordinates (direct lattice) 
   0.39995120  0.42524295  0.60330198
   0.39995730  0.50967513  0.68417958
   0.40005335  0.63258417  0.71314505
   0.39997247  0.60475994  0.59996304
   0.00000000  0.00000000  0.40698411
   0.10000000  0.10000000  0.40698411
   0.00000000  0.10000000  0.50257497
   0.10000000  0.00000000  0.50257497
   0.00000000  0.20000000  0.40698411
   0.10000000  0.30000000  0.40698411
   0.00000000  0.30000000  0.50257497
   0.10000000  0.20000000  0.50257497
   0.00000000  0.40000000  0.40698411
   0.10000000  0.50000000  0.40698411
   0.00000000  0.50000000  0.50257497
   0.10000000  0.40000000  0.50257497
   0.00000000  0.60000000  0.40698411
   0.10000000  0.70000000  0.40698411
   0.00000000  0.70000000  0.50257497
   0.10000000  0.60000000  0.50257497
   0.00000000  0.80000000  0.40698411
   0.10000000  0.90000000  0.40698411
   0.00000000  0.90000000  0.50257497
   0.10000000  0.80000000  0.50257497
   0.20000000  0.00000000  0.40698411
   0.30000000  0.10000000  0.40698411
   0.20000000  0.10000000  0.50257497
   0.30000000  0.00000000  0.50257497
   0.20000000  0.20000000  0.40698411
   0.30000000  0.30000000  0.40698411
   0.20000000  0.30000000  0.50257497
   0.30000000  0.20000000  0.50257497
   0.20000000  0.40000000  0.40698411
   0.30000000  0.50000000  0.40698411
   0.20000000  0.50000000  0.50257497
   0.30000000  0.40000000  0.50257497
   0.20000000  0.60000000  0.40698411
   0.30000000  0.70000000  0.40698411
   0.20000000  0.70000000  0.50257497
   0.30000000  0.60000000  0.50257497
   0.20000000  0.80000000  0.40698411
   0.30000000  0.90000000  0.40698411
   0.20000000  0.90000000  0.50257497
   0.30000000  0.80000000  0.50257497
   0.40000000  0.00000000  0.40698411
   0.50000000  0.10000000  0.40698411
   0.40000000  0.10000000  0.50257497
   0.50000000  0.00000000  0.50257497
   0.40000000  0.20000000  0.40698411
   0.50000000  0.30000000  0.40698411
   0.40000000  0.30000000  0.50257497
   0.50000000  0.20000000  0.50257497
   0.40000000  0.40000000  0.40698411
   0.50000000  0.50000000  0.40698411
   0.40000000  0.50000000  0.50257497
   0.50000000  0.40000000  0.50257497
   0.40000000  0.60000000  0.40698411
   0.50000000  0.70000000  0.40698411
   0.40000000  0.70000000  0.50257497
   0.50000000  0.60000000  0.50257497
   0.40000000  0.80000000  0.40698411
   0.50000000  0.90000000  0.40698411
   0.40000000  0.90000000  0.50257497
   0.50000000  0.80000000  0.50257497
   0.60000000  0.00000000  0.40698411
   0.70000000  0.10000000  0.40698411
   0.60000000  0.10000000  0.50257497
   0.70000000  0.00000000  0.50257497
   0.60000000  0.20000000  0.40698411
   0.70000000  0.30000000  0.40698411
   0.60000000  0.30000000  0.50257497
   0.70000000  0.20000000  0.50257497
   0.60000000  0.40000000  0.40698411
   0.70000000  0.50000000  0.40698411
   0.60000000  0.50000000  0.50257497
   0.70000000  0.40000000  0.50257497
   0.60000000  0.60000000  0.40698411
   0.70000000  0.70000000  0.40698411
   0.60000000  0.70000000  0.50257497
   0.70000000  0.60000000  0.50257497
   0.60000000  0.80000000  0.40698411
   0.70000000  0.90000000  0.40698411
   0.60000000  0.90000000  0.50257497
   0.70000000  0.80000000  0.50257497
   0.80000000  0.00000000  0.40698411
   0.90000000  0.10000000  0.40698411
   0.80000000  0.10000000  0.50257497
   0.90000000  0.00000000  0.50257497
   0.80000000  0.20000000  0.40698411
   0.90000000  0.30000000  0.40698411
   0.80000000  0.30000000  0.50257497
   0.90000000  0.20000000  0.50257497
   0.80000000  0.40000000  0.40698411
   0.90000000  0.50000000  0.40698411
   0.80000000  0.50000000  0.50257497
   0.90000000  0.40000000  0.50257497
   0.80000000  0.60000000  0.40698411
   0.90000000  0.70000000  0.40698411
   0.80000000  0.70000000  0.50257497
   0.90000000  0.60000000  0.50257497
   0.80000000  0.80000000  0.40698411
   0.90000000  0.90000000  0.40698411
   0.80000000  0.90000000  0.50257497
   0.90000000  0.80000000  0.50257497
   0.00000000  0.00000000  0.50257497
   0.10000000  0.10000000  0.50257497
   0.00000000  0.10000000  0.40698411
   0.10000000  0.00000000  0.40698411
   0.00000000  0.20000000  0.50257497
   0.10000000  0.30000000  0.50257497
   0.00000000  0.30000000  0.40698411
   0.10000000  0.20000000  0.40698411
   0.00000000  0.40000000  0.50257497
   0.10000000  0.50000000  0.50257497
   0.00000000  0.50000000  0.40698411
   0.10000000  0.40000000  0.40698411
   0.00000000  0.60000000  0.50257497
   0.10000000  0.70000000  0.50257497
   0.00000000  0.70000000  0.40698411
   0.10000000  0.60000000  0.40698411
   0.00000000  0.80000000  0.50257497
   0.10000000  0.90000000  0.50257497
   0.00000000  0.90000000  0.40698411
   0.10000000  0.80000000  0.40698411
   0.20000000  0.00000000  0.50257497
   0.30000000  0.10000000  0.50257497
   0.20000000  0.10000000  0.40698411
   0.30000000  0.00000000  0.40698411
   0.20000000  0.20000000  0.50257497
   0.30000000  0.30000000  0.50257497
   0.20000000  0.30000000  0.40698411
   0.30000000  0.20000000  0.40698411
   0.20000000  0.40000000  0.50257497
   0.30000000  0.50000000  0.50257497
   0.20000000  0.50000000  0.40698411
   0.30000000  0.40000000  0.40698411
   0.20000000  0.60000000  0.50257497
   0.30000000  0.70000000  0.50257497
   0.20000000  0.70000000  0.40698411
   0.30000000  0.60000000  0.40698411
   0.20000000  0.80000000  0.50257497
   0.30000000  0.90000000  0.50257497
   0.20000000  0.90000000  0.40698411
   0.30000000  0.80000000  0.40698411
   0.40000000  0.00000000  0.50257497
   0.50000000  0.10000000  0.50257497
   0.40000000  0.10000000  0.40698411
   0.50000000  0.00000000  0.40698411
   0.40000000  0.20000000  0.50257497
   0.50000000  0.30000000  0.50257497
   0.40000000  0.30000000  0.40698411
   0.50000000  0.20000000  0.40698411
   0.40000000  0.40000000  0.50257497
   0.50000000  0.50000000  0.50257497
   0.40000000  0.50000000  0.40698411
   0.50000000  0.40000000  0.40698411
   0.40000000  0.60000000  0.50257497
   0.50000000  0.70000000  0.50257497
   0.40000000  0.70000000  0.40698411
   0.50000000  0.60000000  0.40698411
   0.40000000  0.80000000  0.50257497
   0.50000000  0.90000000  0.50257497
   0.40000000  0.90000000  0.40698411
   0.50000000  0.80000000  0.40698411
   0.60000000  0.00000000  0.50257497
   0.70000000  0.10000000  0.50257497
   0.60000000  0.10000000  0.40698411
   0.70000000  0.00000000  0.40698411
   0.60000000  0.20000000  0.50257497
   0.70000000  0.30000000  0.50257497
   0.60000000  0.30000000  0.40698411
   0.70000000  0.20000000  0.40698411
   0.60000000  0.40000000  0.50257497
   0.70000000  0.50000000  0.50257497
   0.60000000  0.50000000  0.40698411
   0.70000000  0.40000000  0.40698411
   0.60000000  0.60000000  0.50257497
   0.70000000  0.70000000  0.50257497
   0.60000000  0.70000000  0.40698411
   0.70000000  0.60000000  0.40698411
   0.60000000  0.80000000  0.50257497
   0.70000000  0.90000000  0.50257497
   0.60000000  0.90000000  0.40698411
   0.70000000  0.80000000  0.40698411
   0.80000000  0.00000000  0.50257497
   0.90000000  0.10000000  0.50257497
   0.80000000  0.10000000  0.40698411
   0.90000000  0.00000000  0.40698411
   0.80000000  0.20000000  0.50257497
   0.90000000  0.30000000  0.50257497
   0.80000000  0.30000000  0.40698411
   0.90000000  0.20000000  0.40698411
   0.80000000  0.40000000  0.50257497
   0.90000000  0.50000000  0.50257497
   0.80000000  0.50000000  0.40698411
   0.90000000  0.40000000  0.40698411
   0.80000000  0.60000000  0.50257497
   0.90000000  0.70000000  0.50257497
   0.80000000  0.70000000  0.40698411
   0.90000000  0.60000000  0.40698411
   0.80000000  0.80000000  0.50257497
   0.90000000  0.90000000  0.50257497
   0.80000000  0.90000000  0.40698411
   0.90000000  0.80000000  0.40698411

 position of ions in cartesian coordinates  (Angst):
   8.45450932  8.98914795 13.34135064
   8.45463817 10.77394722 15.12986872
   8.45666874 13.37210335 15.77040783
   8.45495885 12.78393096 13.26751388
   0.00000000  0.00000000  9.00000000
   2.11388522  2.11388522  9.00000000
   0.00000000  2.11388522 11.11388522
   2.11388522  0.00000000 11.11388522
   0.00000000  4.22777044  9.00000000
   2.11388522  6.34165566  9.00000000
   0.00000000  6.34165566 11.11388522
   2.11388522  4.22777044 11.11388522
   0.00000000  8.45554088  9.00000000
   2.11388522 10.56942610  9.00000000
   0.00000000 10.56942610 11.11388522
   2.11388522  8.45554088 11.11388522
   0.00000000 12.68331132  9.00000000
   2.11388522 14.79719654  9.00000000
   0.00000000 14.79719654 11.11388522
   2.11388522 12.68331132 11.11388522
   0.00000000 16.91108176  9.00000000
   2.11388522 19.02496698  9.00000000
   0.00000000 19.02496698 11.11388522
   2.11388522 16.91108176 11.11388522
   4.22777044  0.00000000  9.00000000
   6.34165566  2.11388522  9.00000000
   4.22777044  2.11388522 11.11388522
   6.34165566  0.00000000 11.11388522
   4.22777044  4.22777044  9.00000000
   6.34165566  6.34165566  9.00000000
   4.22777044  6.34165566 11.11388522
   6.34165566  4.22777044 11.11388522
   4.22777044  8.45554088  9.00000000
   6.34165566 10.56942610  9.00000000
   4.22777044 10.56942610 11.11388522
   6.34165566  8.45554088 11.11388522
   4.22777044 12.68331132  9.00000000
   6.34165566 14.79719654  9.00000000
   4.22777044 14.79719654 11.11388522
   6.34165566 12.68331132 11.11388522
   4.22777044 16.91108176  9.00000000
   6.34165566 19.02496698  9.00000000
   4.22777044 19.02496698 11.11388522
   6.34165566 16.91108176 11.11388522
   8.45554088  0.00000000  9.00000000
  10.56942610  2.11388522  9.00000000
   8.45554088  2.11388522 11.11388522
  10.56942610  0.00000000 11.11388522
   8.45554088  4.22777044  9.00000000
  10.56942610  6.34165566  9.00000000
   8.45554088  6.34165566 11.11388522
  10.56942610  4.22777044 11.11388522
   8.45554088  8.45554088  9.00000000
  10.56942610 10.56942610  9.00000000
   8.45554088 10.56942610 11.11388522
  10.56942610  8.45554088 11.11388522
   8.45554088 12.68331132  9.00000000
  10.56942610 14.79719654  9.00000000
   8.45554088 14.79719654 11.11388522
  10.56942610 12.68331132 11.11388522
   8.45554088 16.91108176  9.00000000
  10.56942610 19.02496698  9.00000000
   8.45554088 19.02496698 11.11388522
  10.56942610 16.91108176 11.11388522
  12.68331132  0.00000000  9.00000000
  14.79719654  2.11388522  9.00000000
  12.68331132  2.11388522 11.11388522
  14.79719654  0.00000000 11.11388522
  12.68331132  4.22777044  9.00000000
  14.79719654  6.34165566  9.00000000
  12.68331132  6.34165566 11.11388522
  14.79719654  4.22777044 11.11388522
  12.68331132  8.45554088  9.00000000
  14.79719654 10.56942610  9.00000000
  12.68331132 10.56942610 11.11388522
  14.79719654  8.45554088 11.11388522
  12.68331132 12.68331132  9.00000000
  14.79719654 14.79719654  9.00000000
  12.68331132 14.79719654 11.11388522
  14.79719654 12.68331132 11.11388522
  12.68331132 16.91108176  9.00000000
  14.79719654 19.02496698  9.00000000
  12.68331132 19.02496698 11.11388522
  14.79719654 16.91108176 11.11388522
  16.91108176  0.00000000  9.00000000
  19.02496698  2.11388522  9.00000000
  16.91108176  2.11388522 11.11388522
  19.02496698  0.00000000 11.11388522
  16.91108176  4.22777044  9.00000000
  19.02496698  6.34165566  9.00000000
  16.91108176  6.34165566 11.11388522
  19.02496698  4.22777044 11.11388522
  16.91108176  8.45554088  9.00000000
  19.02496698 10.56942610  9.00000000
  16.91108176 10.56942610 11.11388522
  19.02496698  8.45554088 11.11388522
  16.91108176 12.68331132  9.00000000
  19.02496698 14.79719654  9.00000000
  16.91108176 14.79719654 11.11388522
  19.02496698 12.68331132 11.11388522
  16.91108176 16.91108176  9.00000000
  19.02496698 19.02496698  9.00000000
  16.91108176 19.02496698 11.11388522
  19.02496698 16.91108176 11.11388522
   0.00000000  0.00000000 11.11388522
   2.11388522  2.11388522 11.11388522
   0.00000000  2.11388522  9.00000000
   2.11388522  0.00000000  9.00000000
   0.00000000  4.22777044 11.11388522
   2.11388522  6.34165566 11.11388522
   0.00000000  6.34165566  9.00000000
   2.11388522  4.22777044  9.00000000
   0.00000000  8.45554088 11.11388522
   2.11388522 10.56942610 11.11388522
   0.00000000 10.56942610  9.00000000
   2.11388522  8.45554088  9.00000000
   0.00000000 12.68331132 11.11388522
   2.11388522 14.79719654 11.11388522
   0.00000000 14.79719654  9.00000000
   2.11388522 12.68331132  9.00000000
   0.00000000 16.91108176 11.11388522
   2.11388522 19.02496698 11.11388522
   0.00000000 19.02496698  9.00000000
   2.11388522 16.91108176  9.00000000
   4.22777044  0.00000000 11.11388522
   6.34165566  2.11388522 11.11388522
   4.22777044  2.11388522  9.00000000
   6.34165566  0.00000000  9.00000000
   4.22777044  4.22777044 11.11388522
   6.34165566  6.34165566 11.11388522
   4.22777044  6.34165566  9.00000000
   6.34165566  4.22777044  9.00000000
   4.22777044  8.45554088 11.11388522
   6.34165566 10.56942610 11.11388522
   4.22777044 10.56942610  9.00000000
   6.34165566  8.45554088  9.00000000
   4.22777044 12.68331132 11.11388522
   6.34165566 14.79719654 11.11388522
   4.22777044 14.79719654  9.00000000
   6.34165566 12.68331132  9.00000000
   4.22777044 16.91108176 11.11388522
   6.34165566 19.02496698 11.11388522
   4.22777044 19.02496698  9.00000000
   6.34165566 16.91108176  9.00000000
   8.45554088  0.00000000 11.11388522
  10.56942610  2.11388522 11.11388522
   8.45554088  2.11388522  9.00000000
  10.56942610  0.00000000  9.00000000
   8.45554088  4.22777044 11.11388522
  10.56942610  6.34165566 11.11388522
   8.45554088  6.34165566  9.00000000
  10.56942610  4.22777044  9.00000000
   8.45554088  8.45554088 11.11388522
  10.56942610 10.56942610 11.11388522
   8.45554088 10.56942610  9.00000000
  10.56942610  8.45554088  9.00000000
   8.45554088 12.68331132 11.11388522
  10.56942610 14.79719654 11.11388522
   8.45554088 14.79719654  9.00000000
  10.56942610 12.68331132  9.00000000
   8.45554088 16.91108176 11.11388522
  10.56942610 19.02496698 11.11388522
   8.45554088 19.02496698  9.00000000
  10.56942610 16.91108176  9.00000000
  12.68331132  0.00000000 11.11388522
  14.79719654  2.11388522 11.11388522
  12.68331132  2.11388522  9.00000000
  14.79719654  0.00000000  9.00000000
  12.68331132  4.22777044 11.11388522
  14.79719654  6.34165566 11.11388522
  12.68331132  6.34165566  9.00000000
  14.79719654  4.22777044  9.00000000
  12.68331132  8.45554088 11.11388522
  14.79719654 10.56942610 11.11388522
  12.68331132 10.56942610  9.00000000
  14.79719654  8.45554088  9.00000000
  12.68331132 12.68331132 11.11388522
  14.79719654 14.79719654 11.11388522
  12.68331132 14.79719654  9.00000000
  14.79719654 12.68331132  9.00000000
  12.68331132 16.91108176 11.11388522
  14.79719654 19.02496698 11.11388522
  12.68331132 19.02496698  9.00000000
  14.79719654 16.91108176  9.00000000
  16.91108176  0.00000000 11.11388522
  19.02496698  2.11388522 11.11388522
  16.91108176  2.11388522  9.00000000
  19.02496698  0.00000000  9.00000000
  16.91108176  4.22777044 11.11388522
  19.02496698  6.34165566 11.11388522
  16.91108176  6.34165566  9.00000000
  19.02496698  4.22777044  9.00000000
  16.91108176  8.45554088 11.11388522
  19.02496698 10.56942610 11.11388522
  16.91108176 10.56942610  9.00000000
  19.02496698  8.45554088  9.00000000
  16.91108176 12.68331132 11.11388522
  19.02496698 14.79719654 11.11388522
  16.91108176 14.79719654  9.00000000
  19.02496698 12.68331132  9.00000000
  16.91108176 16.91108176 11.11388522
  19.02496698 19.02496698 11.11388522
  16.91108176 19.02496698  9.00000000
  19.02496698 16.91108176  9.00000000



--------------------------------------------------------------------------------------------------------


 k-point   1 :   0.1250 0.1250 0.0000  plane waves:  265995
 k-point   2 :  -0.1250 0.1250 0.0000  plane waves:  265995
 k-point   3 :   0.3750 0.1250 0.0000  plane waves:  266023
 k-point   4 :  -0.1250 0.3750 0.0000  plane waves:  266023
 k-point   5 :  -0.3750 0.1250 0.0000  plane waves:  266023
 k-point   6 :   0.1250 0.3750 0.0000  plane waves:  266023
 k-point   7 :   0.3750 0.3750 0.0000  plane waves:  266046
 k-point   8 :  -0.3750 0.3750 0.0000  plane waves:  266046

 maximum and minimum number of plane-waves per node :     66546    66475

 maximum number of plane-waves:    266046
[...]
   -.126E+02 -.117E+02 -.687E+03   0.126E+02 0.117E+02 0.691E+03   -.282E-01 -.115E-01 -.364E+01
   0.110E-02 -.709E+01 -.690E+03   -.107E-02 0.710E+01 0.694E+03   -.325E-04 -.817E-02 -.363E+01
   -.669E+01 -.666E+01 0.705E+03   0.671E+01 0.667E+01 -.709E+03   -.257E-01 -.177E-01 0.349E+01
   0.138E-02 -.762E+01 0.706E+03   -.135E-02 0.763E+01 -.710E+03   -.385E-04 -.126E-01 0.349E+01
 -----------------------------------------------------------------------------------------------
   -.158E-04 -.373E+01 0.264E+01   0.958E-12 0.122E-11 0.209E-10   -.290E-03 0.373E+01 -.325E+01


 POSITION                                       TOTAL-FORCE (eV/Angst)
 -----------------------------------------------------------------------------------
      8.45451      8.98915     13.34135         0.000782     -0.064373     -0.002769
      8.45464     10.77395     15.12987         0.000221     -0.054572      0.066828
      8.45667     13.37210     15.77041        -0.000908      0.066894      0.091625
      8.45496     12.78393     13.26751         0.001403      0.026821     -0.085222
      0.00000      0.00000      9.00000        -0.004547      0.001837      0.345953
      2.11389      2.11389      9.00000        -0.009528     -0.003484      0.347137
      0.00000      2.11389     11.11389        -0.003772      0.000671     -0.314655
      2.11389      0.00000     11.11389        -0.005181      0.002344     -0.313032
      0.00000      4.22777      9.00000        -0.007906     -0.002507      0.347493
      2.11389      6.34166      9.00000        -0.029678     -0.008885      0.354403
      0.00000      6.34166     11.11389        -0.005191     -0.000682     -0.309348
      2.11389      4.22777     11.11389        -0.011913     -0.001146     -0.306949
      0.00000      8.45554      9.00000        -0.014977     -0.003431      0.350539
      2.11389     10.56943      9.00000        -0.050399     -0.005080      0.360986
      0.00000     10.56943     11.11389        -0.006292     -0.002110     -0.304812
      2.11389      8.45554     11.11389        -0.010626     -0.001894     -0.288595
      0.00000     12.68331      9.00000        -0.018325     -0.000065      0.350923
      2.11389     14.79720      9.00000        -0.041045      0.008641      0.355464
      0.00000     14.79720     11.11389        -0.008268      0.000010     -0.308465
      2.11389     12.68331     11.11389        -0.021310     -0.003508     -0.287109
      0.00000     16.91108      9.00000        -0.010719      0.004191      0.347801
      2.11389     19.02497      9.00000        -0.011784      0.008843      0.347399
      0.00000     19.02497     11.11389        -0.004741      0.002158     -0.314133
      2.11389     16.91108     11.11389        -0.016225      0.004241     -0.304446
      4.22777      0.00000      9.00000        -0.007823      0.004012      0.348500
      6.34166      2.11389      9.00000        -0.007492     -0.020268      0.351292
      4.22777      2.11389     11.11389        -0.006959     -0.006047     -0.307615
      6.34166      0.00000     11.11389        -0.003177      0.001473     -0.306890
      4.22777      4.22777      9.00000        -0.025168     -0.023466      0.350611
      6.34166      6.34166      9.00000        -0.080605     -0.096920      0.342723
      4.22777      6.34166     11.11389        -0.043600      0.004923     -0.266019
      6.34166      4.22777     11.11389        -0.008723     -0.040414     -0.281258
      4.22777      8.45554      9.00000        -0.103828     -0.024297      0.382827
      6.34166     10.56943      9.00000        -0.185477     -0.042164      0.349031
      4.22777     10.56943     11.11389        -0.058069     -0.012778     -0.211568
      6.34166      8.45554     11.11389        -0.531130      0.003589     -0.032599
      4.22777     12.68331      9.00000        -0.137165      0.008723      0.386173
      6.34166     14.79720      9.00000        -0.114486      0.126780      0.329469
      4.22777     14.79720     11.11389        -0.067480     -0.000037     -0.255535
      6.34166     12.68331     11.11389        -0.895186     -0.003631     -0.159375
      4.22777     16.91108      9.00000        -0.034213      0.034341      0.351693
      6.34166     19.02497      9.00000        -0.007765      0.034201      0.355344
      4.22777     19.02497     11.11389        -0.005972      0.013207     -0.304503
      6.34166     16.91108     11.11389         0.007973      0.063108     -0.252470
      8.45554      0.00000      9.00000        -0.000007      0.004699      0.350571
     10.56943      2.11389      9.00000         0.007476     -0.020280      0.351289
      8.45554      2.11389     11.11389        -0.000013     -0.013715     -0.301290
     10.56943      0.00000     11.11389         0.003163      0.001470     -0.306893
      8.45554      4.22777      9.00000        -0.000021     -0.086751      0.365421
     10.56943      6.34166      9.00000         0.080560     -0.096973      0.342685
      8.45554      6.34166     11.11389        -0.000103     -0.499348     -0.197602
     10.56943      4.22777     11.11389         0.008685     -0.040478     -0.281280
      8.45554      8.45554      9.00000        -0.000127     -0.102182     -0.062330
     10.56943     10.56943      9.00000         0.185419     -0.042163      0.348973
      8.45554     10.56943     11.11389        -0.000020     -0.169483     -0.028788
     10.56943      8.45554     11.11389         0.530596      0.003591     -0.032749
      8.45554     12.68331      9.00000        -0.000131      0.073419     -0.333453
     10.56943     14.79720      9.00000         0.114467      0.126844      0.329504
      8.45554     14.79720     11.11389         0.000033      0.918641     -0.110203
     10.56943     12.68331     11.11389         0.894664     -0.003472     -0.159034
      8.45554     16.91108      9.00000        -0.000005      0.126327      0.385797
     10.56943     19.02497      9.00000         0.007756      0.034198      0.355341
      8.45554     19.02497     11.11389        -0.000009      0.009880     -0.293140
     10.56943     16.91108     11.11389        -0.007989      0.063092     -0.252487
     12.68331      0.00000      9.00000         0.007823      0.004005      0.348496
     14.79720      2.11389      9.00000         0.009540     -0.003495      0.347134
     12.68331      2.11389     11.11389         0.006957     -0.006073     -0.307619
     14.79720      0.00000     11.11389         0.005190      0.002337     -0.313035
     12.68331      4.22777      9.00000         0.025169     -0.023497      0.350598
     14.79720      6.34166      9.00000         0.029712     -0.008908      0.354387
     12.68331      6.34166     11.11389         0.043647      0.004818     -0.266092
     14.79720      4.22777     11.11389         0.011939     -0.001175     -0.306956
     12.68331      8.45554      9.00000         0.103856     -0.024315      0.382760
     14.79720     10.56943      9.00000         0.050445     -0.005069      0.360965
     12.68331     10.56943     11.11389         0.058166     -0.012713     -0.211696
     14.79720      8.45554     11.11389         0.010733     -0.001907     -0.288625
     12.68331     12.68331      9.00000         0.137198      0.008763      0.386147
     14.79720     14.79720      9.00000         0.041063      0.008661      0.355454
     12.68331     14.79720     11.11389         0.067452      0.000027     -0.255562
     14.79720     12.68331     11.11389         0.021367     -0.003476     -0.287126
     12.68331     16.91108      9.00000         0.034206      0.034355      0.351691
     14.79720     19.02497      9.00000         0.011792      0.008847      0.347397
     12.68331     19.02497     11.11389         0.005973      0.013210     -0.304509
     14.79720     16.91108     11.11389         0.016235      0.004259     -0.304455
     16.91108      0.00000      9.00000         0.004562      0.001834      0.345951
     19.02497      2.11389      9.00000         0.000012     -0.000004      0.345980
     16.91108      2.11389     11.11389         0.003797      0.000664     -0.314655
     19.02497      0.00000     11.11389         0.000010      0.001386     -0.315949
     16.91108      4.22777      9.00000         0.007936     -0.002517      0.347489
     19.02497      6.34166      9.00000         0.000021     -0.002142      0.347705
     16.91108      6.34166     11.11389         0.005243     -0.000693     -0.309355
     19.02497      4.22777     11.11389         0.000017      0.000163     -0.314196
     16.91108      8.45554      9.00000         0.015028     -0.003435      0.350531
     19.02497     10.56943      9.00000         0.000023     -0.001736      0.349014
     16.91108     10.56943     11.11389         0.006357     -0.002106     -0.304822
     19.02497      8.45554     11.11389         0.000029     -0.001163     -0.310380
     16.91108     12.68331      9.00000         0.018367     -0.000056      0.350918
     19.02497     14.79720      9.00000         0.000015      0.001351      0.347987
     16.91108     14.79720     11.11389         0.008302      0.000020     -0.308468
     19.02497     12.68331     11.11389         0.000024     -0.001260     -0.310078
     16.91108     16.91108      9.00000         0.010740      0.004197      0.347798
     19.02497     19.02497      9.00000         0.000009      0.002561      0.346106
     16.91108     19.02497     11.11389         0.004758      0.002161     -0.314137
     19.02497     16.91108     11.11389         0.000013      0.000934     -0.313667
      0.00000      0.00000     11.11389         0.004428     -0.001858      0.500150
      2.11389      2.11389     11.11389         0.009133      0.003146      0.496664
      0.00000      2.11389      9.00000         0.005757      0.001220     -0.532039
      2.11389      0.00000      9.00000         0.009384     -0.002816     -0.532639
      0.00000      4.22777     11.11389         0.005591      0.001250      0.497110
      2.11389      6.34166     11.11389         0.017900      0.004177      0.481649
      0.00000      6.34166      9.00000         0.010405      0.004661     -0.534895
      2.11389      4.22777      9.00000         0.018079      0.010094     -0.535203
      0.00000      8.45554     11.11389         0.008480      0.002433      0.489923
      2.11389     10.56943     11.11389         0.026658      0.006618      0.466173
      0.00000     10.56943      9.00000         0.014710      0.003035     -0.537430
      2.11389      8.45554      9.00000         0.034598      0.011212     -0.545689
      0.00000     12.68331     11.11389         0.010716      0.001465      0.489140
      2.11389     14.79720     11.11389         0.026074     -0.005430      0.478614
      0.00000     14.79720      9.00000         0.013567     -0.004029     -0.535243
      2.11389     12.68331      9.00000         0.042716     -0.003019     -0.544991
      0.00000     16.91108     11.11389         0.007858     -0.003251      0.496113
      2.11389     19.02497     11.11389         0.011506     -0.008457      0.495486
      0.00000     19.02497      9.00000         0.007059     -0.004862     -0.532226
      2.11389     16.91108      9.00000         0.024159     -0.015454     -0.536082
      4.22777      0.00000     11.11389         0.007205     -0.002562      0.494111
      6.34166      2.11389     11.11389         0.007534      0.013131      0.486700
      4.22777      2.11389      9.00000         0.014069      0.010531     -0.534679
      6.34166      0.00000      9.00000         0.006727     -0.003814     -0.535846
      4.22777      4.22777     11.11389         0.028862      0.023717      0.481381
      6.34166      6.34166     11.11389         0.141980      0.117175      0.404615
      4.22777      6.34166      9.00000         0.059537      0.035716     -0.544897
      6.34166      4.22777      9.00000         0.030862      0.050566     -0.540472
      4.22777      8.45554     11.11389         0.060171      0.020346      0.405518
      6.34166     10.56943     11.11389         0.176440      0.158642      0.111974
      4.22777     10.56943      9.00000         0.100875      0.018190     -0.566096
      6.34166      8.45554      9.00000         0.230117      0.056325     -0.451544
      4.22777     12.68331     11.11389         0.086016     -0.002769      0.409326
      6.34166     14.79720     11.11389         0.154408     -0.187852      0.333908
      4.22777     14.79720      9.00000         0.080029     -0.045588     -0.545529
      6.34166     12.68331      9.00000         0.324284     -0.026661     -0.384607
      4.22777     16.91108     11.11389         0.040123     -0.038938      0.474411
      6.34166     19.02497     11.11389         0.004866     -0.019191      0.479831
      4.22777     19.02497      9.00000         0.017156     -0.019694     -0.536086
      6.34166     16.91108      9.00000         0.039031     -0.076448     -0.544234
      8.45554      0.00000     11.11389         0.000012     -0.002260      0.488659
     10.56943      2.11389     11.11389        -0.007507      0.013145      0.486706
      8.45554      2.11389      9.00000         0.000016      0.020329     -0.537548
     10.56943      0.00000      9.00000        -0.006709     -0.003807     -0.535843
      8.45554      4.22777     11.11389         0.000041      0.057710      0.456131
     10.56943      6.34166     11.11389        -0.141939      0.117374      0.404777
      8.45554      6.34166      9.00000         0.000059      0.214035     -0.436603
     10.56943      4.22777      9.00000        -0.030823      0.050598     -0.540456
      8.45554      8.45554     11.11389         0.000240     -0.450187      0.293854
     10.56943     10.56943     11.11389        -0.176662      0.158374      0.112620
      8.45554     10.56943      9.00000         0.000091      0.123420     -0.295211
     10.56943      8.45554      9.00000        -0.230116      0.056342     -0.451419
      8.45554     12.68331     11.11389        -0.000355     -0.015585      0.616376
     10.56943     14.79720     11.11389        -0.154415     -0.187990      0.333965
      8.45554     14.79720      9.00000         0.000033     -0.305889     -0.384296
     10.56943     12.68331      9.00000        -0.324327     -0.026712     -0.384487
      8.45554     16.91108     11.11389         0.000010     -0.058712      0.405265
     10.56943     19.02497     11.11389        -0.004851     -0.019189      0.479837
      8.45554     19.02497      9.00000         0.000008     -0.030023     -0.544437
     10.56943     16.91108      9.00000        -0.039009     -0.076449     -0.544243
     12.68331      0.00000     11.11389        -0.007197     -0.002557      0.494115
     14.79720      2.11389     11.11389        -0.009145      0.003161      0.496670
     12.68331      2.11389      9.00000        -0.014062      0.010545     -0.534675
     14.79720      0.00000      9.00000        -0.009387     -0.002814     -0.532637
     12.68331      4.22777     11.11389        -0.028865      0.023762      0.481401
     14.79720      6.34166     11.11389        -0.017949      0.004217      0.481673
     12.68331      6.34166      9.00000        -0.059545      0.035760     -0.544867
     14.79720      4.22777      9.00000        -0.018097      0.010117     -0.535194
     12.68331      8.45554     11.11389        -0.060317      0.020375      0.405681
     14.79720     10.56943     11.11389        -0.026722      0.006595      0.466204
     12.68331     10.56943      9.00000        -0.100907      0.018169     -0.566052
     14.79720      8.45554      9.00000        -0.034649      0.011222     -0.545657
     12.68331     12.68331     11.11389        -0.086083     -0.002837      0.409391
     14.79720     14.79720     11.11389        -0.026097     -0.005459      0.478628
     12.68331     14.79720      9.00000        -0.080021     -0.045631     -0.545531
     14.79720     12.68331      9.00000        -0.042745     -0.003043     -0.544978
     12.68331     16.91108     11.11389        -0.040110     -0.038948      0.474423
     14.79720     19.02497     11.11389        -0.011510     -0.008463      0.495491
     12.68331     19.02497      9.00000        -0.017144     -0.019693     -0.536084
     14.79720     16.91108      9.00000        -0.024166     -0.015468     -0.536077
     16.91108      0.00000     11.11389        -0.004441     -0.001855      0.500151
     19.02497      2.11389     11.11389        -0.000010     -0.000454      0.500469
     16.91108      2.11389      9.00000        -0.005771      0.001226     -0.532038
     19.02497      0.00000      9.00000        -0.000006     -0.001701     -0.531457
     16.91108      4.22777     11.11389        -0.005618      0.001261      0.497113
     19.02497      6.34166     11.11389        -0.000022      0.001206      0.496609
     16.91108      6.34166      9.00000        -0.010442      0.004670     -0.534889
     19.02497      4.22777      9.00000        -0.000013      0.002021     -0.532403
     16.91108      8.45554     11.11389        -0.008529      0.002438      0.489933
     19.02497     10.56943     11.11389        -0.000021      0.001988      0.493512
     16.91108     10.56943      9.00000        -0.014753      0.003031     -0.537421
     19.02497      8.45554      9.00000        -0.000021      0.003008     -0.534460
     16.91108     12.68331     11.11389        -0.010757      0.001450      0.489147
     19.02497     14.79720     11.11389        -0.000015     -0.000443      0.495906
     16.91108     14.79720      9.00000        -0.013586     -0.004037     -0.535239
     19.02497     12.68331      9.00000        -0.000017      0.000212     -0.534563
     16.91108     16.91108     11.11389        -0.007878     -0.003257      0.496115
     19.02497     19.02497     11.11389        -0.000009     -0.002266      0.500106
     16.91108     19.02497      9.00000        -0.007070     -0.004868     -0.532226
     19.02497     16.91108      9.00000        -0.000008     -0.003501     -0.532605
 -----------------------------------------------------------------------------------
    total drift:                               -0.000306     -0.001565     -0.605521


--------------------------------------------------------------------------------------------------------



  FREE ENERGIE OF THE ION-ELECTRON SYSTEM (eV)
  ---------------------------------------------------
  free  energy   TOTEN  =     -1156.78635548 eV

  energy  without entropy=    -1156.78635548  energy(sigma->0) =    -1156.78635548



--------------------------------------------------------------------------------------------------------


    POTLOK:  cpu time   1182.9046: real time   1183.0213


--------------------------------------------------------------------------------------------------------


     LOOP+:  cpu time  15712.0322: real time  15713.5589
    4ORBIT:  cpu time      0.0000: real time      0.0000

 total amount of memory used by VASP MPI-rank0   413203. kBytes
=======================================================================

   base      :      30000. kBytes
   nonlr-proj:      38858. kBytes
   fftplans  :      35482. kBytes
   grid      :      50022. kBytes
   one-center:        793. kBytes
   wavefun   :     258048. kBytes

  
  
 General timing and accounting informations for this job:
 ========================================================
  
                  Total CPU time used (sec):    15884.052
                            User time (sec):    15881.840
                          System time (sec):        2.212
                         Elapsed time (sec):    15887.496
  
                   Maximum memory used (kb):      942792.
                   Average memory used (kb):          N/A
  
                          Minor page faults:       111730
                          Major page faults:            0
                 Voluntary context switches:         9889
