 vasp.6.3.0 20Jan22 (build Apr  1 2022 16:44:48) complex                         
 executed on        HPECrayEX_GCC date 2022.11.18  23:27:37
 running 2048 mpi-ranks, with    1 threads/rank
 distrk:  each k-point on 1024 cores,    2 groups
 distr:  one band on NCORE=   4 cores,  256 groups


--------------------------------------------------------------------------------------------------------


 INCAR:
   SYSTEM = MgO-rocksalt
   ISMEAR = 0
   SIGMA = 0.05
   EDIFF = 1E-6
   ALGO = ALL
   ISTART = 0
   IBRION = -1
   NSW = 0
   ISYM = 2
   DIPOL = 0.5 0.5 0.5
   IDIPOL = 3
   LDIPOL = .TRUE.
   LHFCALC = .TRUE.
   GGA = PE
   IVDW = 13
   VDW_S8 = 1.2007
   VDW_A1 = 0.4009
   VDW_A2 = 5.0293
   ENCUT = 520
   PREC = Accurate
   LASPH = .TRUE.
   LREAL = Auto
   ISPIN = 1
   NELM = 200
   NELMIN = 8
   NCORE = 4
   KPAR = 2
   LWAVE = .FALSE.
   LCHARG = .FALSE.

 POTCAR:    PAW_PBE Cu 22Jun2005                  
 -----------------------------------------------------------------------------
|                                                                             |
|           W    W    AA    RRRRR   N    N  II  N    N   GGGG   !!!           |
|           W    W   A  A   R    R  NN   N  II  NN   N  G    G  !!!           |
|           W    W  A    A  R    R  N N  N  II  N N  N  G       !!!           |
|           W WW W  AAAAAA  RRRRR   N  N N  II  N  N N  G  GGG   !            |
|           WW  WW  A    A  R   R   N   NN  II  N   NN  G    G                |
|           W    W  A    A  R    R  N    N  II  N    N   GGGG   !!!           |
|                                                                             |
|     You have selected ISYM=2 for a HF type calculation. This will           |
|     symmetrize the charge density but not the exchange potential. I         |
|     suggest to use ISYM=3 instead. This uses symmetry to obtain the         |
|     orbitals at all k-points in the Brillouin zone, but does not apply      |
|     symmetry to the Hartree potential directly. The resultant charge        |
|     might have lower symmetry than the crystal but, at least, Hartree       |
|     and exchange are fully compatible.                                      |
|                                                                             |
 -----------------------------------------------------------------------------

 POTCAR:    PAW_PBE Cu 22Jun2005                  
   SHA256 =  0e71e558f37a4e8407882b4609ceaae59938afaad9ced71dfe8490308a0ab630 Cu/POTCAR             
   COPYR  = (c) Copyright 22Jun2005 Georg Kresse                                                    
   COPYR  = This file is part of the software VASP. Any use, copying, and all other rights are regul
   COPYR  = If you do not have a valid VASP license, you may not use, copy or distribute this file. 
   VRHFIN =Cu: d10 p1                                                                               
   LEXCH  = PE                                                                                      
   EATOM  =  1390.9808 eV,  102.2342 Ry                                                             
                                                                                                    
   TITEL  = PAW_PBE Cu 22Jun2005                                                                    
   LULTRA =        F    use ultrasoft PP ?                                                          
   IUNSCR =        1    unscreen: 0-lin 1-nonlin 2-no                                               
   RPACOR =    2.000    partial core radius                                                         
   POMASS =   63.546; ZVAL   =   11.000    mass and valenz                                          
   RCORE  =    2.300    outmost cutoff radius                                                       
   RWIGS  =    2.200; RWIGS  =    1.164    wigner-seitz radius (au A)                               
   ENMAX  =  295.446; ENMIN  =  221.585 eV                                                          
   ICORE  =        3    local potential                                                             
   LCOR   =        T    correct aug charges                                                         
   LPAW   =        T    paw PP                                                                      
   EAUG   =  586.980                                                                                
   DEXC   =    0.000                                                                                
   RMAX   =    2.344    core radius for proj-oper                                                   
   RAUG   =    1.300    factor for augmentation sphere                                              
   RDEP   =    2.302    radius for radial grids                                                     
   RDEPT  =    1.771    core radius for aug-charge                                                  
                                                                                                    
   Atomic configuration                                                                             
    9 entries                                                                                       
     n  l   j            E        occ.                                                              
     1  0  0.50     -8850.2468   2.0000                                                             
     2  0  0.50     -1062.3498   2.0000                                                             
     2  1  1.50      -916.8226   6.0000                                                             
     3  0  0.50      -114.6929   2.0000                                                             
     3  1  1.50       -72.1325   6.0000                                                             
     3  2  2.50        -5.0394  10.0000                                                             
     4  0  0.50        -4.6097   1.0000                                                             
     4  1  0.50        -4.0817   0.0000                                                             
     4  3  2.50        -1.3606   0.0000                                                             
   Description                                                                                      
     l       E           TYP  RCUT    TYP  RCUT                                                     
     2     -5.0393973     23  2.200                                                                 
     2     10.8846608     23  2.200                                                                 
     0     -4.6097109     23  2.200                                                                 
     0      8.2520465     23  2.200                                                                 
     1     -2.7211652     23  2.200                                                                 
     1     21.7055443     23  2.200                                                                 
     3      2.7211652     23  2.300                                                                 
  local pseudopotential read in
  partial core-charges read in
  partial kinetic energy density read in
  atomic valenz-charges read in
  non local Contribution for L=           2  read in
    real space projection operators read in
  non local Contribution for L=           2  read in
    real space projection operators read in
  non local Contribution for L=           0  read in
    real space projection operators read in
  non local Contribution for L=           0  read in
    real space projection operators read in
  non local Contribution for L=           1  read in
    real space projection operators read in
  non local Contribution for L=           1  read in
    real space projection operators read in
    PAW grid and wavefunctions read in

   number of l-projection  operators is LMAX  =           6
   number of lm-projection operators is LMMAX =          18

 -----------------------------------------------------------------------------
|                                                                             |
|               ----> ADVICE to this user running VASP <----                  |
|                                                                             |
|     You have a (more or less) 'small supercell' and for smaller cells       |
|     it is recommended to use the reciprocal-space projection scheme!        |
|     The real-space optimization is not efficient for small cells and it     |
|     is also less accurate ...                                               |
|     Therefore, set LREAL=.FALSE. in the INCAR file.                         |
|                                                                             |
 -----------------------------------------------------------------------------

 Optimization of the real space projectors (new method)

 maximal supplied QI-value         = 16.25
 optimisation between [QCUT,QGAM] = [ 11.54, 23.24] = [ 37.28,151.24] Ry 
 Optimized for a Real-space Cutoff    1.53 Angstroem

   l    n(q)    QCUT    max X(q) W(low)/X(q) W(high)/X(q)  e(spline) 
   2     10    11.539     4.610    0.96E-04    0.13E-03    0.19E-06
   2     10    11.539     8.522    0.16E-03    0.21E-03    0.28E-06
   0     11    11.539    51.609    0.45E-04    0.31E-04    0.11E-06
   0     11    11.539    27.747    0.39E-04    0.29E-04    0.10E-06
   1     10    11.539    20.408    0.70E-05    0.38E-04    0.18E-06
   1     10    11.539    13.425    0.66E-05    0.34E-04    0.17E-06
  PAW_PBE Cu 22Jun2005                  :
 energy of atom  1       EATOM=-1390.9808
 kinetic energy error for atom=    0.0037 (will be added to EATOM!!)


 POSCAR: Cu
  positions in direct lattice
  No initial velocities read in
 -----------------------------------------------------------------------------
|                                                                             |
|           W    W    AA    RRRRR   N    N  II  N    N   GGGG   !!!           |
|           W    W   A  A   R    R  NN   N  II  NN   N  G    G  !!!           |
|           W    W  A    A  R    R  N N  N  II  N N  N  G       !!!           |
|           W WW W  AAAAAA  RRRRR   N  N N  II  N  N N  G  GGG   !            |
|           WW  WW  A    A  R   R   N   NN  II  N   NN  G    G                |
|           W    W  A    A  R    R  N    N  II  N    N   GGGG   !!!           |
|                                                                             |
|     Specifying the vdW parameters                                           |
|     VDW_S8 = 1.201                                                          |
|     VDW_A1 = 0.401                                                          |
|     VDW_A2 = 5.029                                                          |
|     in the INCAR file will overwrite the defaults for pbe0. Please make     |
|     sure that is what you intended.                                         |
|                                                                             |
 -----------------------------------------------------------------------------

 exchange correlation table for  LEXCH =        8
   RHO(1)=    0.500       N(1)  =     2000
   RHO(2)=  100.500       N(2)  =     4000



--------------------------------------------------------------------------------------------------------


 ion  position               nearest neighbor table
   1  0.450  0.450  0.699-   2 2.23
   2  0.450  0.450  0.598-   1 2.23

  LATTYP: Found a simple tetragonal cell.
 ALAT       =    21.1388521970
 C/A-ratio  =     1.0461251639
  
  Lattice vectors:
  
 A1 = (  21.1388521970,   0.0000000000,   0.0000000000)
 A2 = (   0.0000000000,  21.1388521970,   0.0000000000)
 A3 = (   0.0000000000,   0.0000000000,  22.1138852197)


Analysis of symmetry for initial positions (statically):
=====================================================================
 Subroutine PRICEL returns:
 Original cell was already a primitive cell.
 

 Routine SETGRP: Setting up the symmetry group for a 
 simple tetragonal supercell.


 Subroutine GETGRP returns: Found 16 space group operations
 (whereof  2 operations were pure point group operations)
 out of a pool of 16 trial point group operations.


The static configuration has the point symmetry C_1h.
 The point group associated with its full space group is D_4h.


Analysis of symmetry for dynamics (positions and initial velocities):
=====================================================================
 Subroutine PRICEL returns:
 Original cell was already a primitive cell.
 

 Routine SETGRP: Setting up the symmetry group for a 
 simple tetragonal supercell.


 Subroutine GETGRP returns: Found 16 space group operations
 (whereof  2 operations were pure point group operations)
 out of a pool of 16 trial point group operations.


The dynamic configuration has the point symmetry C_1h.
 The point group associated with its full space group is D_4h.


 Subroutine INISYM returns: Found 16 space group operations
 (whereof  2 operations are pure point group operations),
 and found     1 'primitive' translations


----------------------------------------------------------------------------------------

                                     Primitive cell                                     

  volume of cell :    9881.6133

  direct lattice vectors                    reciprocal lattice vectors
    21.138852197  0.000000000  0.000000000     0.047306258  0.000000000  0.000000000
     0.000000000 21.138852197  0.000000000     0.000000000  0.047306258  0.000000000
     0.000000000  0.000000000 22.113885220     0.000000000  0.000000000  0.045220457

  length of vectors
    21.138852197 21.138852197 22.113885220     0.047306258  0.047306258  0.045220457

  position of ions in fractional coordinates (direct lattice)
     0.449999988  0.450000018  0.698691433
     0.449999988  0.450000018  0.597977010

  ion indices of the primitive-cell ions
   primitive index   ion index
                 1           1
                 2           2

----------------------------------------------------------------------------------------



 KPOINTS: KPOINTS created by Atomic Simulation Env

Automatic generation of k-mesh.
 Grid dimensions read from file:
 generate k-points for:    1    1    1

 Generating k-lattice:

  Cartesian coordinates                     Fractional coordinates (reciprocal lattice)
     0.047306258  0.000000000  0.000000000     1.000000000  0.000000000  0.000000000
     0.000000000  0.047306258  0.000000000     0.000000000  1.000000000  0.000000000
     0.000000000  0.000000000  0.045220457     0.000000000  0.000000000  1.000000000

  Length of vectors
     0.047306258  0.047306258  0.045220457

  Shift w.r.t. Gamma in fractional coordinates (k-lattice)
     0.000000000  0.000000000  0.000000000

 
 Subroutine IBZKPT returns following result:
 ===========================================
 
 Found      1 irreducible k-points:
 
 Following reciprocal coordinates:
            Coordinates               Weight
  0.000000  0.000000  0.000000      1.000000
 
 Following cartesian coordinates:
            Coordinates               Weight
  0.000000  0.000000  0.000000      1.000000
 
 
 Subroutine IBZKPT_HF returns following result:
 ==============================================
 
 Found      1 k-points in 1st BZ
 the following      1 k-points will be used (e.g. in the exchange kernel)
 Following reciprocal coordinates:   # in IRBZ
  0.000000  0.000000  0.000000    1.00000000   1 t-inv F


--------------------------------------------------------------------------------------------------------




 Dimension of arrays:
   k-points           NKPTS =      1   k-points in BZ     NKDIM =      1   number of bands    NBANDS=    256
   number of dos      NEDOS =    301   number of ions     NIONS =      2
   non local maximal  LDIM  =      6   non local SUM 2l+1 LMDIM =     18
   total plane-waves  NPLWV = ******
   max r-space proj   IRMAX =   6628   max aug-charges    IRDMAX=  12805
   dimension x,y,z NGX =   160 NGY =  160 NGZ =  168
   dimension x,y,z NGXF=   320 NGYF=  320 NGZF=  336
   support grid    NGXF=   320 NGYF=  320 NGZF=  336
   ions per type =               2
   NGX,Y,Z   is equivalent  to a cutoff of  12.58, 12.58, 12.63 a.u.
   NGXF,Y,Z  is equivalent  to a cutoff of  25.17, 25.17, 25.26 a.u.

 SYSTEM =  MgO-rocksalt                            
 POSCAR =  Cu                                      

 Startparameter for this run:
   NWRITE =      2    write-flag & timer
   PREC   = accura    normal or accurate (medium, high low for compatibility)
   ISTART =      0    job   : 0-new  1-cont  2-samecut
   ICHARG =      2    charge: 1-file 2-atom 10-const
   ISPIN  =      1    spin polarized calculation?
   LNONCOLLINEAR =      F non collinear calculations
   LSORBIT =      F    spin-orbit coupling
   INIWAV =      1    electr: 0-lowe 1-rand  2-diag
   LASPH  =      T    aspherical Exc in radial PAW
 Electronic Relaxation 1
   ENCUT  =  520.0 eV  38.22 Ry    6.18 a.u.  39.30 39.30 41.12*2*pi/ulx,y,z
   ENINI  =  520.0     initial cutoff
   ENAUG  =  587.0 eV  augmentation charge cutoff
   NELM   =    200;   NELMIN=  8; NELMDL= -5     # of ELM steps 
   EDIFF  = 0.1E-05   stopping-criterion for ELM
   LREAL  =      T    real-space projection
   NLSPLINE    = F    spline interpolate recip. space projectors
   LCOMPAT=      F    compatible to vasp.4.4
   GGA_COMPAT  = T    GGA compatible to vasp.4.4-vasp.4.6
   LMAXPAW     = -100 max onsite density
   LMAXMIX     =    2 max onsite mixed and CHGCAR
   VOSKOWN=      0    Vosko Wilk Nusair interpolation
   ROPT   =   -0.00025
 Ionic relaxation
   EDIFFG = 0.1E-04   stopping-criterion for IOM
   NSW    =      0    number of steps for IOM
   NBLOCK =      1;   KBLOCK =      1    inner block; outer block 
   IBRION =     -1    ionic relax: 0-MD 1-quasi-New 2-CG
   NFREE  =      0    steps in history (QN), initial steepest desc. (CG)
   ISIF   =      0    stress and relaxation
   IWAVPR =     10    prediction:  0-non 1-charg 2-wave 3-comb
   ISYM   =      2    0-nonsym 1-usesym 2-fastsym
   LCORR  =      T    Harris-Foulkes like correction to forces

   POTIM  = 0.5000    time-step for ionic-motion
   TEIN   =    0.0    initial temperature
   TEBEG  =    0.0;   TEEND  =   0.0 temperature during run
   SMASS  =  -3.00    Nose mass-parameter (am)
   estimated Nose-frequenzy (Omega)   =  0.10E-29 period in steps = 0.13E+47 mass=  -0.102E-25a.u.
   SCALEE = 1.0000    scale energy and forces
   NPACO  =    256;   APACO  = 10.0  distance and # of slots for P.C.
   PSTRESS=    0.0 pullay stress

  Mass of Ions in am
   POMASS =  63.55
  Ionic Valenz
   ZVAL   =  11.00
  Atomic Wigner-Seitz radii
   RWIGS  =  -1.00
  virtual crystal weights 
   VCA    =   1.00
   NELECT =      22.0000    total number of electrons
   NUPDOWN=      -1.0000    fix difference up-down

 DOS related values:
   EMIN   =  10.00;   EMAX   =-10.00  energy-range for DOS
   EFERMI =   0.00
   ISMEAR =     0;   SIGMA  =   0.05  broadening in eV -4-tet -1-fermi 0-gaus

 Electronic relaxation 2 (details)
   IALGO  =     58    algorithm
   LDIAG  =      T    sub-space diagonalisation (order eigenvalues)
   LSUBROT=      F    optimize rotation matrix (better conditioning)
   TURBO    =      0    0=normal 1=particle mesh
   IRESTART =      0    0=no restart 2=restart with 2 vectors
   NREBOOT  =      0    no. of reboots
   NMIN     =      0    reboot dimension
   EREF     =   0.00    reference energy to select bands
   IMIX   =      4    mixing-type and parameters
     AMIX     =   0.40;   BMIX     =  1.00
     AMIX_MAG =   1.60;   BMIX_MAG =  1.00
     AMIN     =   0.10
     WC   =   100.;   INIMIX=   1;  MIXPRE=   1;  MAXMIX= -45

 Intra band minimization:
   WEIMIN = 0.0000     energy-eigenvalue tresh-hold
   EBREAK =  0.98E-09  absolut break condition
   DEPER  =   0.30     relativ break condition  

   TIME   =   0.40     timestep for ELM

  volume/ion in A,a.u.               =    4940.81     33342.21
  Fermi-wavevector in a.u.,A,eV,Ry     =   0.213767  0.403960  0.621734  0.045696
  Thomas-Fermi vector in A             =   0.985879

 Write flags
   LWAVE        =      F    write WAVECAR
   LDOWNSAMPLE  =      F    k-point downsampling of WAVECAR
   LCHARG       =      F    write CHGCAR
   LVTOT        =      F    write LOCPOT, total local potential
   LVHAR        =      F    write LOCPOT, Hartree potential only
   LELF         =      F    write electronic localiz. function (ELF)
   LORBIT       =      0    0 simple, 1 ext, 2 COOP (PROOUT), +10 PAW based schemes


 Dipole corrections
   LMONO  =      F    monopole corrections only (constant potential shift)
   LDIPOL =      T    correct potential (dipole corrections)
   IDIPOL =      3    1-x, 2-y, 3-z, 4-all directions 
   EPSILON=  1.0000000 bulk dielectric constant

 Exchange correlation treatment:
   GGA     =    PE    GGA type
   LEXCH   =     8    internal setting for exchange type
   LIBXC   =     F    Libxc                    
   VOSKOWN =     0    Vosko Wilk Nusair interpolation
   EXXOEP  =     0    0=HF, 1=EXX-LHF (local Hartree Fock) 2=EXX OEP
   LHFCALC =     T    Hartree Fock is set to
   LSYMGRAD=     F    symmetrize gradient (conserves proper symmetry)
   PRECFOCK=normal    Normal, Fast or Accurate (Low or Medium for compatibility)
   LRHFCALC=     F    long range Hartree Fock
   LRSCOR  =     F    long range correlation only (use DFT for short range part)
   LTHOMAS =     F    Thomas Fermi screening in HF
   LMODELHF=     F    short range full HF, long range fraction AEXX
   LFOCKACE=     T    use Adeptively-Compressed-Exchange operator
   ENCUT4O =  -1.0   cutoff for four orbital integrals eV
   LMAXFOCK=     4    L truncation for augmentation on plane wave grid
   LMAXFOCKAE=  -1    L truncation for all-electron charge restoration on plane wave grid
   NMAXFOCKAE=   1    number of basis functions for all-electron charge restoration
   LFOCKAEDFT=     F  apply the AE augmentation even for DFT
   NKREDX  =     1    reduce k-point grid by
   NKREDY  =     1    reduce k-point grid by
   NKREDZ  =     1    reduce k-point grid by
   SHIFTRED=     F    shift reduced grid of Gamma
   HFKIDENT=     F    idential grid for each k-point
   ODDONLY =     F    use only odd q-grid points
   EVENONLY=     F    use only even q-grid points
   HFALPHA =   -1.0000 decay constant for conv. correction
   MCALPHA =    0.0000 extent of test-charge in conv. correction in multipole expansion
   AEXX    =    0.2500 exact exchange contribution
   HFSCREEN=    0.0000 screening length (either q_TF or 0.3 A-1)
   HFSCREENC=   0.0000 screening length for correlation (either q_TF or 0.3 A-1)
   HFRCUT  =    0.0000 spherical cutoff for potential kernel
   ALDAX   =    0.7500 LDA exchange part
   AGGAX   =    0.7500 GGA exchange part
   ALDAC   =    1.0000 LDA correlation
   AGGAC   =    1.0000 GGA correlation
   ENCUTFOCK=  -1.0 apply spherical cutoff to Coloumb kernel
   NBANDSGWLOW=     1    first orbital included in HF term
   NBLOCK_FOCK=    64    blocking factor in FOCK_ACC

 Linear response parameters
   LEPSILON=     F    determine dielectric tensor
   LRPA    =     F    only Hartree local field effects (RPA)
   LNABLA  =     F    use nabla operator in PAW spheres
   LVEL    =     F    velocity operator in full k-point grid
   CSHIFT  =0.1000    complex shift for real part using Kramers Kronig
   OMEGAMAX=  -1.0    maximum frequency
   DEG_THRESHOLD= 0.2000000E-02 threshold for treating states as degnerate
   RTIME   =   -0.100 relaxation time in fs
  (WPLASMAI=    0.000 imaginary part of plasma frequency in eV, 0.658/RTIME)
   DFIELD  = 0.0000000 0.0000000 0.0000000 field for delta impulse in time

  Optional k-point grid parameters
   LKPOINTS_OPT  =     F    use optional k-point grid
   KPOINTS_OPT_MODE=     1    mode for optional k-point grid

 Orbital magnetization related:
   ORBITALMAG=     F  switch on orbital magnetization
   LCHIMAG   =     F  perturbation theory with respect to B field
   DQ        =  0.001000  dq finite difference perturbation B field
   LLRAUG    =     F  two centre corrections for induced B field



--------------------------------------------------------------------------------------------------------


 Static calculation
 charge density and potential will be updated during run
 non-spin polarized calculation
 Conjugate gradient for all bands (Freysoldt, et al. PRB 79, 241103 (2009))
 preconditioned conjugated gradient                                        
 perform sub-space diagonalisation
    before iterative eigenvector-optimisation
 modified Broyden-mixing scheme, WC =      100.0
 initial mixing is a Kerker type mixing with AMIX =  0.4000 and BMIX =      1.0000
 Hartree-type preconditioning will be used
 using additional bands          245
 real space projection scheme for non local part
 use partial core corrections
 no Harris-corrections to forces 
 use gradient corrections 
 use of overlap-Matrix (Vanderbilt PP)
 Gauss-broadening in eV      SIGMA  =   0.05


--------------------------------------------------------------------------------------------------------


  energy-cutoff  :      520.00
  volume of cell :     9881.61
      direct lattice vectors                 reciprocal lattice vectors
    21.138852197  0.000000000  0.000000000     0.047306258  0.000000000  0.000000000
     0.000000000 21.138852197  0.000000000     0.000000000  0.047306258  0.000000000
     0.000000000  0.000000000 22.113885220     0.000000000  0.000000000  0.045220457

  length of vectors
    21.138852197 21.138852197 22.113885220     0.047306258  0.047306258  0.045220457



 k-points in units of 2pi/SCALE and weight: KPOINTS created by Atomic Simulation Env
   0.00000000  0.00000000  0.00000000       1.000

 k-points in reciprocal lattice and weights: KPOINTS created by Atomic Simulation Env
   0.00000000  0.00000000  0.00000000       1.000

 position of ions in fractional coordinates (direct lattice) 
   0.44999999  0.45000002  0.69869143
   0.44999999  0.45000002  0.59797701

 position of ions in cartesian coordinates  (Angst):
   9.51248324  9.51248387 15.45078214
   9.51248324  9.51248387 13.22359497



--------------------------------------------------------------------------------------------------------


 k-point   1 :   0.0000 0.0000 0.0000  plane waves:  265979

 maximum and minimum number of plane-waves per node :     66495    66494

 maximum number of plane-waves:    265979
 maximum index in each direction: 
   IXMAX=   39   IYMAX=   39   IZMAX=   41
   IXMIN=  -39   IYMIN=  -39   IZMIN=  -41


 real space projection operators:
  total allocation   :       1803.09 KBytes
  max/ min on nodes  :        458.44        443.81


 parallel 3D FFT for wavefunctions:
    minimum data exchange during FFTs selected (reduces bandwidth)
 parallel 3D FFT for charge:
    minimum data exchange during FFTs selected (reduces bandwidth)


 FFT grid for exact exchange (Hartree Fock) 
  NGX =120; NGY =120; NGZ =126


 Radii for the augmentation spheres in the non-local exchange
 for species   1 augmentation radius   1.179 (default was   0.943)
       energy cutoff for augmentation   2080.0

 real space projection operators:
  total allocation   :        491.21 KBytes
  max/ min on nodes  :        126.37        121.09

 Maximum index for augmentation-charges in exchange          318
  SETUP_FOCK is finished

 total amount of memory used by VASP MPI-rank0   144332. kBytes
=======================================================================

   base      :      30000. kBytes
   nonlr-proj:        964. kBytes
   fftplans  :      61791. kBytes
   grid      :      48291. kBytes
   one-center:         15. kBytes
   HF        :         64. kBytes
   wavefun   :       3207. kBytes

     INWAV:  cpu time      0.0001: real time      0.0002
 Broyden mixing: mesh for mixing (old mesh)
   NGX = 79   NGY = 79   NGZ = 83
  (NGX  =320   NGY  =320   NGZ  =336)
  gives a total of 518003 points

 initial charge density was supplied:
 charge density of overlapping atoms calculated
 number of electron      22.0000000 magnetization 
 keeping initial charge density in first step


--------------------------------------------------------------------------------------------------------


 Maximum index for non-local projection operator         1579
 Maximum index for augmentation-charges            0 (set IRDMAX)


--------------------------------------------------------------------------------------------------------


    FEWALD:  cpu time      0.0029: real time      0.0029


--------------------------------------- Iteration      1(   1)  ---------------------------------------


    POTLOK:  cpu time      0.1899: real time      0.1905
    SETDIJ:  cpu time      0.1857: real time      0.1857
    TRIAL :  cpu time      2.7673: real time      2.7677
    CORREC:  cpu time      0.0007: real time      0.0007
    --------------------------------------------
      LOOP:  cpu time      3.1453: real time      3.1466

 eigenvalue-minimisations  :   512
 total energy-change (2. order) :-0.7138219E+03  (-0.5749531E+03)
 number of electron      22.0000000 magnetization 
 augmentation part       22.0000000 magnetization 

 DIPCOR: dipole corrections for dipol
 direction  3 min pos     1,
 dipolmoment           0.000000      0.000000     -0.000054 electrons x Angstroem
 Tr[quadrupol]     -3980.840351

 energy correction for charged system         0.000000 eV
 dipol+quadrupol energy correction           -0.000000 eV
 added-field ion interaction          0.000077 eV  (added to PSCEN)


 Free energy of the ion-electron system (eV)
  ---------------------------------------------------
  alpha Z        PSCENC =         0.29611279
  Ewald energy   TEWEN  =       323.49978826
  -Hartree energ DENC   =     -2865.65476567
  -exchange      EXHF   =         0.00000000
  -V(xc)+E(xc)   XCENC  =        88.15632523
  PAW double counting   =      2456.41331976    -3410.98389036
  entropy T*S    EENTRO =        -0.00000000
  eigenvalues    EBANDS =       -81.86548752
  atomic energy  EATOM  =      2776.31665291
  ---------------------------------------------------
  free energy    TOTEN  =      -713.82194461 eV

  energy without entropy =     -713.82194461  energy(sigma->0) =     -713.82194461
  exchange ACFDT corr.  =         0.00000000  see jH, gK, PRB 81, 115126


--------------------------------------------------------------------------------------------------------




--------------------------------------- Iteration      1(   2)  ---------------------------------------


    TRIAL :  cpu time      2.9973: real time      2.9976
    CORREC:  cpu time      0.0004: real time      0.0004
    --------------------------------------------
      LOOP:  cpu time      3.0056: real time      3.0149

 eigenvalue-minimisations  :   512
 total energy-change (2. order) :-0.1138832E+03  (-0.1138832E+03)
 number of electron      22.0000000 magnetization 
 augmentation part       22.0000000 magnetization 

 DIPCOR: dipole corrections for dipol
 direction  3 min pos     1,
 dipolmoment           0.000000      0.000000     -0.000054 electrons x Angstroem
 Tr[quadrupol]     -3980.840351

 energy correction for charged system         0.000000 eV
 dipol+quadrupol energy correction           -0.000000 eV
 added-field ion interaction          0.000077 eV  (added to PSCEN)


 Free energy of the ion-electron system (eV)
  ---------------------------------------------------
  alpha Z        PSCENC =         0.29611279
  Ewald energy   TEWEN  =       323.49978826
  -Hartree energ DENC   =     -2865.65476567
  -exchange      EXHF   =         0.00000000
  -V(xc)+E(xc)   XCENC  =        88.15632523
  PAW double counting   =      2456.41331976    -3410.98389036
  entropy T*S    EENTRO =        -0.00000000
  eigenvalues    EBANDS =      -195.74867684
  atomic energy  EATOM  =      2776.31665291
  ---------------------------------------------------
  free energy    TOTEN  =      -827.70513392 eV

  energy without entropy =     -827.70513392  energy(sigma->0) =     -827.70513392
  exchange ACFDT corr.  =         0.00000000  see jH, gK, PRB 81, 115126


--------------------------------------------------------------------------------------------------------




--------------------------------------- Iteration      1(   3)  ---------------------------------------


    TRIAL :  cpu time      2.9449: real time      2.9452
    CORREC:  cpu time      0.0004: real time      0.0004
    --------------------------------------------
      LOOP:  cpu time      2.9513: real time      2.9617

 eigenvalue-minimisations  :   512
 total energy-change (2. order) :-0.1970895E+01  (-0.1970896E+01)
 number of electron      22.0000000 magnetization 
 augmentation part       22.0000000 magnetization 

 DIPCOR: dipole corrections for dipol
 direction  3 min pos     1,
 dipolmoment           0.000000      0.000000     -0.000054 electrons x Angstroem
 Tr[quadrupol]     -3980.840351

 energy correction for charged system         0.000000 eV
 dipol+quadrupol energy correction           -0.000000 eV
 added-field ion interaction          0.000077 eV  (added to PSCEN)


 Free energy of the ion-electron system (eV)
  ---------------------------------------------------
  alpha Z        PSCENC =         0.29611279
  Ewald energy   TEWEN  =       323.49978826
  -Hartree energ DENC   =     -2865.65476567
  -exchange      EXHF   =         0.00000000
  -V(xc)+E(xc)   XCENC  =        88.15632523
  PAW double counting   =      2456.41331976    -3410.98389036
  entropy T*S    EENTRO =        -0.00000000
  eigenvalues    EBANDS =      -197.71957214
  atomic energy  EATOM  =      2776.31665291
  ---------------------------------------------------
  free energy    TOTEN  =      -829.67602922 eV

  energy without entropy =     -829.67602922  energy(sigma->0) =     -829.67602922
  exchange ACFDT corr.  =         0.00000000  see jH, gK, PRB 81, 115126


--------------------------------------------------------------------------------------------------------




--------------------------------------- Iteration      1(   4)  ---------------------------------------


    TRIAL :  cpu time      2.9176: real time      2.9189
    CORREC:  cpu time      0.0004: real time      0.0004
    --------------------------------------------
      LOOP:  cpu time      2.9247: real time      2.9350

 eigenvalue-minimisations  :   512
 total energy-change (2. order) :-0.6129367E-02  (-0.6129383E-02)
 number of electron      22.0000000 magnetization 
 augmentation part       22.0000000 magnetization 

 DIPCOR: dipole corrections for dipol
 direction  3 min pos     1,
 dipolmoment           0.000000      0.000000     -0.000054 electrons x Angstroem
 Tr[quadrupol]     -3980.840351

 energy correction for charged system         0.000000 eV
 dipol+quadrupol energy correction           -0.000000 eV
 added-field ion interaction          0.000077 eV  (added to PSCEN)


 Free energy of the ion-electron system (eV)
  ---------------------------------------------------
  alpha Z        PSCENC =         0.29611279
  Ewald energy   TEWEN  =       323.49978826
  -Hartree energ DENC   =     -2865.65476567
  -exchange      EXHF   =         0.00000000
  -V(xc)+E(xc)   XCENC  =        88.15632523
  PAW double counting   =      2456.41331976    -3410.98389036
  entropy T*S    EENTRO =        -0.00000000
  eigenvalues    EBANDS =      -197.72570150
  atomic energy  EATOM  =      2776.31665291
  ---------------------------------------------------
  free energy    TOTEN  =      -829.68215859 eV

  energy without entropy =     -829.68215859  energy(sigma->0) =     -829.68215859
  exchange ACFDT corr.  =         0.00000000  see jH, gK, PRB 81, 115126


--------------------------------------------------------------------------------------------------------




--------------------------------------- Iteration      1(   5)  ---------------------------------------


    POTLOK:  cpu time      0.1526: real time      0.1528
    SETDIJ:  cpu time      0.1523: real time      0.1523
    TRIAL :  cpu time     33.9139: real time     33.9305
    CORREC:  cpu time      0.0004: real time      0.0004
    CHARGE:  cpu time      0.7703: real time      0.7712
    --------------------------------------------
      LOOP:  cpu time     34.9968: real time     35.0232

 eigenvalue-minimisations  :   512
 total energy-change (2. order) : 0.8258487E+03  (-0.1349520E+01)
 number of electron      22.0000058 magnetization 
 augmentation part       14.7068755 magnetization 

 DIPCOR: dipole corrections for dipol
 direction  3 min pos     1,
 dipolmoment           0.000000      0.000000     -0.000054 electrons x Angstroem
 Tr[quadrupol]     -3980.840351

 energy correction for charged system         0.000000 eV
 dipol+quadrupol energy correction           -0.000000 eV
 added-field ion interaction          0.000077 eV  (added to PSCEN)


 Free energy of the ion-electron system (eV)
  ---------------------------------------------------
  alpha Z        PSCENC =         0.29611279
  Ewald energy   TEWEN  =       323.49978826
  -Hartree energ DENC   =     -2865.65476567
  -exchange      EXHF   =        71.28423641
  -V(xc)+E(xc)   XCENC  =        67.19935174
  PAW double counting   =      2477.21461006    -2671.55589256
  entropy T*S    EENTRO =        -0.00000000
  eigenvalues    EBANDS =      -182.43351710
  atomic energy  EATOM  =      2776.31665291
  ---------------------------------------------------
  free energy    TOTEN  =        -3.83342316 eV

  energy without entropy =       -3.83342316  energy(sigma->0) =       -3.83342316
  exchange ACFDT corr.  =        -0.00000000  see jH, gK, PRB 81, 115126


--------------------------------------------------------------------------------------------------------




--------------------------------------- Iteration      1(   6)  ---------------------------------------


    POTLOK:  cpu time      0.1340: real time      0.1340
    SETDIJ:  cpu time      0.1880: real time      0.1880
    TRIAL :  cpu time     56.7408: real time     56.8681
    CORREC:  cpu time     31.6916: real time     31.7086
    CHARGE:  cpu time      0.7654: real time      0.7658
    --------------------------------------------
      LOOP:  cpu time     89.5413: real time     89.6862

 eigenvalue-minimisations  :     0
 total energy-change (2. order) : 0.1676659E+01  (-0.8158252E+00)
 number of electron      22.0000056 magnetization 
 augmentation part       14.3776748 magnetization 

 DIPCOR: dipole corrections for dipol
 direction  3 min pos     1,
 dipolmoment           0.000000      0.000000     -0.008291 electrons x Angstroem
 Tr[quadrupol]     -3982.819406

 energy correction for charged system         0.000000 eV
 dipol+quadrupol energy correction           -0.000001 eV
 added-field ion interaction          0.011840 eV  (added to PSCEN)


 Free energy of the ion-electron system (eV)
  ---------------------------------------------------
  alpha Z        PSCENC =         0.29603088
  Ewald energy   TEWEN  =       323.49978826
  -Hartree energ DENC   =     -2959.70231781
  -exchange      EXHF   =        68.86354422
  -V(xc)+E(xc)   XCENC  =        69.27294634
  PAW double counting   =      2693.18677502    -2903.00397602
  entropy T*S    EENTRO =        -0.00000000
  eigenvalues    EBANDS =       -70.88620774
  atomic energy  EATOM  =      2776.31665291
  ---------------------------------------------------
  free energy    TOTEN  =        -2.15676396 eV

  energy without entropy =       -2.15676396  energy(sigma->0) =       -2.15676396
  exchange ACFDT corr.  =        -0.00000000  see jH, gK, PRB 81, 115126


--------------------------------------------------------------------------------------------------------




--------------------------------------- Iteration      1(   7)  ---------------------------------------


    POTLOK:  cpu time      0.1539: real time      0.1540
    SETDIJ:  cpu time      0.1757: real time      0.1757
    TRIAL :  cpu time     30.5515: real time     30.5674
    CORREC:  cpu time     31.4345: real time     31.4519
    CHARGE:  cpu time      0.7586: real time      0.7598
    --------------------------------------------
      LOOP:  cpu time     63.0936: real time     63.1361

 eigenvalue-minimisations  :     0
 total energy-change (2. order) :-0.8499312E+00  (-0.3013850E+00)
 number of electron      22.0000056 magnetization 
 augmentation part       14.3668463 magnetization 

 DIPCOR: dipole corrections for dipol
 direction  3 min pos     1,
 dipolmoment           0.000000      0.000000     -0.002982 electrons x Angstroem
 Tr[quadrupol]     -3983.090981

 energy correction for charged system         0.000000 eV
 dipol+quadrupol energy correction           -0.000000 eV
 added-field ion interaction          0.004258 eV  (added to PSCEN)


 Free energy of the ion-electron system (eV)
  ---------------------------------------------------
  alpha Z        PSCENC =         0.29720840
  Ewald energy   TEWEN  =       323.49978826
  -Hartree energ DENC   =     -2911.80272203
  -exchange      EXHF   =        67.73779420
  -V(xc)+E(xc)   XCENC  =        67.83512345
  PAW double counting   =      2662.09986845    -2858.85301356
  entropy T*S    EENTRO =        -0.00000000
  eigenvalues    EBANDS =      -130.13739526
  atomic energy  EATOM  =      2776.31665291
  ---------------------------------------------------
  free energy    TOTEN  =        -3.00669518 eV

  energy without entropy =       -3.00669518  energy(sigma->0) =       -3.00669518
  exchange ACFDT corr.  =        -0.00000000  see jH, gK, PRB 81, 115126


--------------------------------------------------------------------------------------------------------




--------------------------------------- Iteration      1(   8)  ---------------------------------------


    POTLOK:  cpu time      0.1532: real time      0.1532
    SETDIJ:  cpu time      0.1721: real time      0.1721
    TRIAL :  cpu time     30.6540: real time     30.6710
    CORREC:  cpu time     31.1805: real time     31.1986
    CHARGE:  cpu time      0.7599: real time      0.7604
    --------------------------------------------
      LOOP:  cpu time     62.9412: real time     62.9770

 eigenvalue-minimisations  :     0
 total energy-change (2. order) :-0.3018884E+00  (-0.5497282E-01)
 number of electron      22.0000057 magnetization 
 augmentation part       14.4436513 magnetization 

 DIPCOR: dipole corrections for dipol
 direction  3 min pos     1,
 dipolmoment           0.000000      0.000000     -0.002546 electrons x Angstroem
 Tr[quadrupol]     -3982.797036

 energy correction for charged system         0.000000 eV
 dipol+quadrupol energy correction           -0.000000 eV
 added-field ion interaction          0.003636 eV  (added to PSCEN)


 Free energy of the ion-electron system (eV)
  ---------------------------------------------------
  alpha Z        PSCENC =         0.30164244
  Ewald energy   TEWEN  =       323.49978826
  -Hartree energ DENC   =     -2892.02214638
  -exchange      EXHF   =        67.38463034
  -V(xc)+E(xc)   XCENC  =        67.50149106
  PAW double counting   =      2633.14842643    -2829.34539407
  entropy T*S    EENTRO =        -0.00000000
  eigenvalues    EBANDS =      -150.09367460
  atomic energy  EATOM  =      2776.31665291
  ---------------------------------------------------
  free energy    TOTEN  =        -3.30858360 eV

  energy without entropy =       -3.30858360  energy(sigma->0) =       -3.30858360
  exchange ACFDT corr.  =        -0.00000000  see jH, gK, PRB 81, 115126


--------------------------------------------------------------------------------------------------------




--------------------------------------- Iteration      1(   9)  ---------------------------------------


    POTLOK:  cpu time      0.1574: real time      0.1575
    SETDIJ:  cpu time      0.1688: real time      0.1688
    TRIAL :  cpu time     30.9731: real time     30.9879
    CORREC:  cpu time     31.4742: real time     31.4914
    CHARGE:  cpu time      0.7582: real time      0.7588
    --------------------------------------------
      LOOP:  cpu time     63.5436: real time     63.5863

 eigenvalue-minimisations  :     0
 total energy-change (2. order) :-0.5437090E-01  (-0.5613745E-01)
 number of electron      22.0000057 magnetization 
 augmentation part       14.4039428 magnetization 

 DIPCOR: dipole corrections for dipol
 direction  3 min pos     1,
 dipolmoment           0.000000      0.000000     -0.001118 electrons x Angstroem
 Tr[quadrupol]     -3982.714679

 energy correction for charged system         0.000000 eV
 dipol+quadrupol energy correction           -0.000000 eV
 added-field ion interaction          0.001597 eV  (added to PSCEN)


 Free energy of the ion-electron system (eV)
  ---------------------------------------------------
  alpha Z        PSCENC =         0.30042186
  Ewald energy   TEWEN  =       323.49978826
  -Hartree energ DENC   =     -2899.28995654
  -exchange      EXHF   =        67.57834769
  -V(xc)+E(xc)   XCENC  =        67.77454106
  PAW double counting   =      2635.18995126    -2834.41971291
  entropy T*S    EENTRO =        -0.00000000
  eigenvalues    EBANDS =      -140.31298810
  atomic energy  EATOM  =      2776.31665291
  ---------------------------------------------------
  free energy    TOTEN  =        -3.36295450 eV

  energy without entropy =       -3.36295450  energy(sigma->0) =       -3.36295450
  exchange ACFDT corr.  =        -0.00000000  see jH, gK, PRB 81, 115126


--------------------------------------------------------------------------------------------------------




--------------------------------------- Iteration      1(  10)  ---------------------------------------


    POTLOK:  cpu time      0.1485: real time      0.1485
    SETDIJ:  cpu time      0.1754: real time      0.1754
    TRIAL :  cpu time     30.6196: real time     30.6368
    CORREC:  cpu time     31.5619: real time     31.5789
    CHARGE:  cpu time      0.7589: real time      0.7594
    --------------------------------------------
      LOOP:  cpu time     63.2854: real time     63.3204

 eigenvalue-minimisations  :     0
 total energy-change (2. order) :-0.5614799E-01  (-0.3855920E-01)
 number of electron      22.0000056 magnetization 
 augmentation part       14.3841037 magnetization 

 DIPCOR: dipole corrections for dipol
 direction  3 min pos     1,
 dipolmoment           0.000000      0.000000     -0.000225 electrons x Angstroem
 Tr[quadrupol]     -3982.641363

 energy correction for charged system         0.000000 eV
 dipol+quadrupol energy correction           -0.000000 eV
 added-field ion interaction          0.000321 eV  (added to PSCEN)


 Free energy of the ion-electron system (eV)
  ---------------------------------------------------
  alpha Z        PSCENC =         0.29760879
  Ewald energy   TEWEN  =       323.49978826
  -Hartree energ DENC   =     -2892.80372238
  -exchange      EXHF   =        67.42520428
  -V(xc)+E(xc)   XCENC  =        67.59279310
  PAW double counting   =      2631.90595918    -2829.80574314
  entropy T*S    EENTRO =        -0.00000000
  eigenvalues    EBANDS =      -147.84764349
  atomic energy  EATOM  =      2776.31665291
  ---------------------------------------------------
  free energy    TOTEN  =        -3.41910250 eV

  energy without entropy =       -3.41910250  energy(sigma->0) =       -3.41910250
  exchange ACFDT corr.  =        -0.00000000  see jH, gK, PRB 81, 115126


--------------------------------------------------------------------------------------------------------




--------------------------------------- Iteration      1(  11)  ---------------------------------------


    POTLOK:  cpu time      0.1484: real time      0.1484
    SETDIJ:  cpu time      0.1839: real time      0.1839
    TRIAL :  cpu time     30.5556: real time     30.5711
    CORREC:  cpu time     31.3023: real time     31.3190
    CHARGE:  cpu time      0.7571: real time      0.7576
    --------------------------------------------
      LOOP:  cpu time     62.9609: real time     63.0031

 eigenvalue-minimisations  :     0
 total energy-change (2. order) :-0.3834526E-01  (-0.5712128E-02)
 number of electron      22.0000057 magnetization 
 augmentation part       14.4102601 magnetization 

 DIPCOR: dipole corrections for dipol
 direction  3 min pos     1,
 dipolmoment           0.000000      0.000000     -0.000090 electrons x Angstroem
 Tr[quadrupol]     -3982.537029

 energy correction for charged system         0.000000 eV
 dipol+quadrupol energy correction           -0.000000 eV
 added-field ion interaction          0.000129 eV  (added to PSCEN)


 Free energy of the ion-electron system (eV)
  ---------------------------------------------------
  alpha Z        PSCENC =         0.29605957
  Ewald energy   TEWEN  =       323.49978826
  -Hartree energ DENC   =     -2888.93244449
  -exchange      EXHF   =        67.34576349
  -V(xc)+E(xc)   XCENC  =        67.49752884
  PAW double counting   =      2629.62260471    -2826.65094496
  entropy T*S    EENTRO =        -0.00000000
  eigenvalues    EBANDS =      -152.45245608
  atomic energy  EATOM  =      2776.31665291
  ---------------------------------------------------
  free energy    TOTEN  =        -3.45744776 eV

  energy without entropy =       -3.45744776  energy(sigma->0) =       -3.45744776
  exchange ACFDT corr.  =        -0.00000000  see jH, gK, PRB 81, 115126


--------------------------------------------------------------------------------------------------------




--------------------------------------- Iteration      1(  12)  ---------------------------------------


    POTLOK:  cpu time      0.1510: real time      0.1510
    SETDIJ:  cpu time      0.1775: real time      0.1775
    TRIAL :  cpu time     30.8246: real time     30.8408
    CORREC:  cpu time     31.4309: real time     31.4486
    CHARGE:  cpu time      0.7589: real time      0.7593
    --------------------------------------------
      LOOP:  cpu time     63.3659: real time     63.4003

 eigenvalue-minimisations  :     0
 total energy-change (2. order) :-0.5683583E-02  (-0.6469962E-02)
 number of electron      22.0000057 magnetization 
 augmentation part       14.4052610 magnetization 

 DIPCOR: dipole corrections for dipol
 direction  3 min pos     1,
 dipolmoment           0.000000      0.000000     -0.000006 electrons x Angstroem
 Tr[quadrupol]     -3982.521510

 energy correction for charged system         0.000000 eV
 dipol+quadrupol energy correction           -0.000000 eV
 added-field ion interaction          0.000009 eV  (added to PSCEN)


 Free energy of the ion-electron system (eV)
  ---------------------------------------------------
  alpha Z        PSCENC =         0.29606619
  Ewald energy   TEWEN  =       323.49978826
  -Hartree energ DENC   =     -2891.77611967
  -exchange      EXHF   =        67.41738265
  -V(xc)+E(xc)   XCENC  =        67.59475585
  PAW double counting   =      2630.93277338    -2828.94628598
  entropy T*S    EENTRO =        -0.00000000
  eigenvalues    EBANDS =      -148.79814493
  atomic energy  EATOM  =      2776.31665291
  ---------------------------------------------------
  free energy    TOTEN  =        -3.46313134 eV

  energy without entropy =       -3.46313134  energy(sigma->0) =       -3.46313134
  exchange ACFDT corr.  =        -0.00000000  see jH, gK, PRB 81, 115126


--------------------------------------------------------------------------------------------------------




--------------------------------------- Iteration      1(  13)  ---------------------------------------


    POTLOK:  cpu time      0.1494: real time      0.1494
    SETDIJ:  cpu time      0.1722: real time      0.1722
    TRIAL :  cpu time     31.0413: real time     31.0570
    CORREC:  cpu time     31.5333: real time     31.5501
    CHARGE:  cpu time      0.7564: real time      0.7568
    --------------------------------------------
      LOOP:  cpu time     63.6672: real time     63.7084

 eigenvalue-minimisations  :     0
 total energy-change (2. order) :-0.6465228E-02  (-0.8692583E-03)
 number of electron      22.0000057 magnetization 
 augmentation part       14.3978499 magnetization 

 DIPCOR: dipole corrections for dipol
 direction  3 min pos     1,
 dipolmoment           0.000000      0.000000      0.000007 electrons x Angstroem
 Tr[quadrupol]     -3982.502694

 energy correction for charged system         0.000000 eV
 dipol+quadrupol energy correction           -0.000000 eV
 added-field ion interaction         -0.000010 eV  (added to PSCEN)


 Free energy of the ion-electron system (eV)
  ---------------------------------------------------
  alpha Z        PSCENC =         0.29604255
  Ewald energy   TEWEN  =       323.49978826
  -Hartree energ DENC   =     -2889.70491289
  -exchange      EXHF   =        67.37016494
  -V(xc)+E(xc)   XCENC  =        67.54555034
  PAW double counting   =      2628.73680072    -2826.55917809
  entropy T*S    EENTRO =        -0.00000000
  eigenvalues    EBANDS =      -150.97050531
  atomic energy  EATOM  =      2776.31665291
  ---------------------------------------------------
  free energy    TOTEN  =        -3.46959657 eV

  energy without entropy =       -3.46959657  energy(sigma->0) =       -3.46959657
  exchange ACFDT corr.  =        -0.00000000  see jH, gK, PRB 81, 115126


--------------------------------------------------------------------------------------------------------




--------------------------------------- Iteration      1(  14)  ---------------------------------------


    POTLOK:  cpu time      0.1491: real time      0.1492
    SETDIJ:  cpu time      0.1731: real time      0.1731
    TRIAL :  cpu time     30.7695: real time     30.7859
    CORREC:  cpu time     31.4322: real time     31.4485
    CHARGE:  cpu time      0.7586: real time      0.7592
    --------------------------------------------
      LOOP:  cpu time     63.2961: real time     63.3382

 eigenvalue-minimisations  :     0
 total energy-change (2. order) :-0.8696854E-03  (-0.5193271E-03)
 number of electron      22.0000057 magnetization 
 augmentation part       14.4036808 magnetization 

 DIPCOR: dipole corrections for dipol
 direction  3 min pos     1,
 dipolmoment           0.000000      0.000000      0.000012 electrons x Angstroem
 Tr[quadrupol]     -3982.510254

 energy correction for charged system         0.000000 eV
 dipol+quadrupol energy correction           -0.000000 eV
 added-field ion interaction         -0.000017 eV  (added to PSCEN)


 Free energy of the ion-electron system (eV)
  ---------------------------------------------------
  alpha Z        PSCENC =         0.29602837
  Ewald energy   TEWEN  =       323.49978826
  -Hartree energ DENC   =     -2888.61729015
  -exchange      EXHF   =        67.34311280
  -V(xc)+E(xc)   XCENC  =        67.51222716
  PAW double counting   =      2628.01645347    -2825.56417853
  entropy T*S    EENTRO =        -0.00000000
  eigenvalues    EBANDS =      -152.27326053
  atomic energy  EATOM  =      2776.31665291
  ---------------------------------------------------
  free energy    TOTEN  =        -3.47046625 eV

  energy without entropy =       -3.47046625  energy(sigma->0) =       -3.47046625
  exchange ACFDT corr.  =        -0.00000000  see jH, gK, PRB 81, 115126


--------------------------------------------------------------------------------------------------------




--------------------------------------- Iteration      1(  15)  ---------------------------------------


    POTLOK:  cpu time      0.1477: real time      0.1477
    SETDIJ:  cpu time      0.1716: real time      0.1716
    TRIAL :  cpu time     30.6292: real time     30.6464
    CORREC:  cpu time     31.4526: real time     31.4689
    CHARGE:  cpu time      0.7583: real time      0.7587
    --------------------------------------------
      LOOP:  cpu time     63.1751: real time     63.2170

 eigenvalue-minimisations  :     0
 total energy-change (2. order) :-0.5186550E-03  (-0.2934757E-03)
 number of electron      22.0000057 magnetization 
 augmentation part       14.4030645 magnetization 

 DIPCOR: dipole corrections for dipol
 direction  3 min pos     1,
 dipolmoment           0.000000      0.000000      0.000012 electrons x Angstroem
 Tr[quadrupol]     -3982.511529

 energy correction for charged system         0.000000 eV
 dipol+quadrupol energy correction           -0.000000 eV
 added-field ion interaction         -0.000018 eV  (added to PSCEN)


 Free energy of the ion-electron system (eV)
  ---------------------------------------------------
  alpha Z        PSCENC =         0.29602068
  Ewald energy   TEWEN  =       323.49978826
  -Hartree energ DENC   =     -2889.37794560
  -exchange      EXHF   =        67.36067565
  -V(xc)+E(xc)   XCENC  =        67.53568553
  PAW double counting   =      2628.46200692    -2826.23994409
  entropy T*S    EENTRO =        -0.00000000
  eigenvalues    EBANDS =      -151.32392517
  atomic energy  EATOM  =      2776.31665291
  ---------------------------------------------------
  free energy    TOTEN  =        -3.47098491 eV

  energy without entropy =       -3.47098491  energy(sigma->0) =       -3.47098491
  exchange ACFDT corr.  =        -0.00000000  see jH, gK, PRB 81, 115126


--------------------------------------------------------------------------------------------------------




--------------------------------------- Iteration      1(  16)  ---------------------------------------


    POTLOK:  cpu time      0.1488: real time      0.1489
    SETDIJ:  cpu time      0.1727: real time      0.1727
    TRIAL :  cpu time     30.8074: real time     30.8250
    CORREC:  cpu time     31.4909: real time     31.5071
    CHARGE:  cpu time      0.7589: real time      0.7594
    --------------------------------------------
      LOOP:  cpu time     63.4008: real time     63.4353

 eigenvalue-minimisations  :     0
 total energy-change (2. order) :-0.2934454E-03  (-0.8653082E-04)
 number of electron      22.0000057 magnetization 
 augmentation part       14.4007541 magnetization 

 DIPCOR: dipole corrections for dipol
 direction  3 min pos     1,
 dipolmoment           0.000000      0.000000      0.000014 electrons x Angstroem
 Tr[quadrupol]     -3982.514171

 energy correction for charged system         0.000000 eV
 dipol+quadrupol energy correction           -0.000000 eV
 added-field ion interaction         -0.000019 eV  (added to PSCEN)


 Free energy of the ion-electron system (eV)
  ---------------------------------------------------
  alpha Z        PSCENC =         0.29601778
  Ewald energy   TEWEN  =       323.49978826
  -Hartree energ DENC   =     -2889.40913565
  -exchange      EXHF   =        67.36080618
  -V(xc)+E(xc)   XCENC  =        67.53547579
  PAW double counting   =      2628.47786083    -2826.23580809
  entropy T*S    EENTRO =        -0.00000000
  eigenvalues    EBANDS =      -151.31293635
  atomic energy  EATOM  =      2776.31665291
  ---------------------------------------------------
  free energy    TOTEN  =        -3.47127835 eV

  energy without entropy =       -3.47127835  energy(sigma->0) =       -3.47127835
  exchange ACFDT corr.  =        -0.00000000  see jH, gK, PRB 81, 115126


--------------------------------------------------------------------------------------------------------




--------------------------------------- Iteration      1(  17)  ---------------------------------------


    POTLOK:  cpu time      0.1490: real time      0.1490
    SETDIJ:  cpu time      0.1710: real time      0.1710
    TRIAL :  cpu time     30.6487: real time     30.6646
    CORREC:  cpu time     31.3988: real time     31.4152
    CHARGE:  cpu time      0.7570: real time      0.7575
    --------------------------------------------
      LOOP:  cpu time     63.1371: real time     63.1790

 eigenvalue-minimisations  :     0
 total energy-change (2. order) :-0.8641617E-04  (-0.5460503E-04)
 number of electron      22.0000057 magnetization 
 augmentation part       14.4026665 magnetization 

 DIPCOR: dipole corrections for dipol
 direction  3 min pos     1,
 dipolmoment           0.000000      0.000000      0.000014 electrons x Angstroem
 Tr[quadrupol]     -3982.518005

 energy correction for charged system         0.000000 eV
 dipol+quadrupol energy correction           -0.000000 eV
 added-field ion interaction         -0.000020 eV  (added to PSCEN)


 Free energy of the ion-electron system (eV)
  ---------------------------------------------------
  alpha Z        PSCENC =         0.29601611
  Ewald energy   TEWEN  =       323.49978826
  -Hartree energ DENC   =     -2889.16517704
  -exchange      EXHF   =        67.35453944
  -V(xc)+E(xc)   XCENC  =        67.52727311
  PAW double counting   =      2628.28943042    -2825.97153497
  entropy T*S    EENTRO =        -0.00000000
  eigenvalues    EBANDS =      -151.61835301
  atomic energy  EATOM  =      2776.31665291
  ---------------------------------------------------
  free energy    TOTEN  =        -3.47136477 eV

  energy without entropy =       -3.47136477  energy(sigma->0) =       -3.47136477
  exchange ACFDT corr.  =        -0.00000000  see jH, gK, PRB 81, 115126


--------------------------------------------------------------------------------------------------------




--------------------------------------- Iteration      1(  18)  ---------------------------------------


    POTLOK:  cpu time      0.1461: real time      0.1462
    SETDIJ:  cpu time      0.1743: real time      0.1743
    TRIAL :  cpu time     31.0178: real time     31.0333
    CORREC:  cpu time     31.1619: real time     31.1798
    CHARGE:  cpu time      0.7585: real time      0.7589
    --------------------------------------------
      LOOP:  cpu time     63.2714: real time     63.3151

 eigenvalue-minimisations  :     0
 total energy-change (2. order) :-0.5461665E-04  (-0.5510686E-04)
 number of electron      22.0000057 magnetization 
 augmentation part       14.4018650 magnetization 

 DIPCOR: dipole corrections for dipol
 direction  3 min pos     1,
 dipolmoment           0.000000      0.000000      0.000015 electrons x Angstroem
 Tr[quadrupol]     -3982.518072

 energy correction for charged system         0.000000 eV
 dipol+quadrupol energy correction           -0.000000 eV
 added-field ion interaction         -0.000021 eV  (added to PSCEN)


 Free energy of the ion-electron system (eV)
  ---------------------------------------------------
  alpha Z        PSCENC =         0.29601573
  Ewald energy   TEWEN  =       323.49978826
  -Hartree energ DENC   =     -2889.46208987
  -exchange      EXHF   =        67.36130104
  -V(xc)+E(xc)   XCENC  =        67.53607322
  PAW double counting   =      2628.42073405    -2826.18907025
  entropy T*S    EENTRO =        -0.00000000
  eigenvalues    EBANDS =      -151.25082447
  atomic energy  EATOM  =      2776.31665291
  ---------------------------------------------------
  free energy    TOTEN  =        -3.47141938 eV

  energy without entropy =       -3.47141938  energy(sigma->0) =       -3.47141938
  exchange ACFDT corr.  =        -0.00000000  see jH, gK, PRB 81, 115126


--------------------------------------------------------------------------------------------------------




--------------------------------------- Iteration      1(  19)  ---------------------------------------


    POTLOK:  cpu time      0.1519: real time      0.1519
    SETDIJ:  cpu time      0.1690: real time      0.1690
    TRIAL :  cpu time     30.9795: real time     30.9949
    CORREC:  cpu time     31.5269: real time     31.5458
    CHARGE:  cpu time      0.7587: real time      0.7592
    --------------------------------------------
      LOOP:  cpu time     63.5982: real time     63.6421

 eigenvalue-minimisations  :     0
 total energy-change (2. order) :-0.5466156E-04  (-0.2110226E-04)
 number of electron      22.0000057 magnetization 
 augmentation part       14.4016995 magnetization 

 DIPCOR: dipole corrections for dipol
 direction  3 min pos     1,
 dipolmoment           0.000000      0.000000      0.000015 electrons x Angstroem
 Tr[quadrupol]     -3982.520061

 energy correction for charged system         0.000000 eV
 dipol+quadrupol energy correction           -0.000000 eV
 added-field ion interaction         -0.000021 eV  (added to PSCEN)


 Free energy of the ion-electron system (eV)
  ---------------------------------------------------
  alpha Z        PSCENC =         0.29601491
  Ewald energy   TEWEN  =       323.49978826
  -Hartree energ DENC   =     -2889.42056350
  -exchange      EXHF   =        67.35958409
  -V(xc)+E(xc)   XCENC  =        67.53395482
  PAW double counting   =      2628.35946310    -2826.11697203
  entropy T*S    EENTRO =        -0.00000000
  eigenvalues    EBANDS =      -151.29939661
  atomic energy  EATOM  =      2776.31665291
  ---------------------------------------------------
  free energy    TOTEN  =        -3.47147405 eV

  energy without entropy =       -3.47147405  energy(sigma->0) =       -3.47147405
  exchange ACFDT corr.  =        -0.00000000  see jH, gK, PRB 81, 115126


--------------------------------------------------------------------------------------------------------




--------------------------------------- Iteration      1(  20)  ---------------------------------------


    POTLOK:  cpu time      0.1591: real time      0.1591
    SETDIJ:  cpu time      0.1582: real time      0.1582
    TRIAL :  cpu time     30.6767: real time     30.6929
    CORREC:  cpu time     31.3577: real time     31.3732
    CHARGE:  cpu time      0.7576: real time      0.7581
    --------------------------------------------
      LOOP:  cpu time     63.1243: real time     63.1657

 eigenvalue-minimisations  :     0
 total energy-change (2. order) :-0.2103483E-04  (-0.6985323E-05)
 number of electron      22.0000057 magnetization 
 augmentation part       14.4021393 magnetization 

 DIPCOR: dipole corrections for dipol
 direction  3 min pos     1,
 dipolmoment           0.000000      0.000000      0.000015 electrons x Angstroem
 Tr[quadrupol]     -3982.520830

 energy correction for charged system         0.000000 eV
 dipol+quadrupol energy correction           -0.000000 eV
 added-field ion interaction         -0.000021 eV  (added to PSCEN)


 Free energy of the ion-electron system (eV)
  ---------------------------------------------------
  alpha Z        PSCENC =         0.29601452
  Ewald energy   TEWEN  =       323.49978826
  -Hartree energ DENC   =     -2889.44021720
  -exchange      EXHF   =        67.36014749
  -V(xc)+E(xc)   XCENC  =        67.53420042
  PAW double counting   =      2628.43994497    -2826.19371708
  entropy T*S    EENTRO =        -0.00000000
  eigenvalues    EBANDS =      -151.28430938
  atomic energy  EATOM  =      2776.31665291
  ---------------------------------------------------
  free energy    TOTEN  =        -3.47149508 eV

  energy without entropy =       -3.47149508  energy(sigma->0) =       -3.47149508
  exchange ACFDT corr.  =        -0.00000000  see jH, gK, PRB 81, 115126


--------------------------------------------------------------------------------------------------------




--------------------------------------- Iteration      1(  21)  ---------------------------------------


    POTLOK:  cpu time      0.1471: real time      0.1472
    SETDIJ:  cpu time      0.1661: real time      0.1661
    TRIAL :  cpu time     30.8036: real time     30.8193
    CORREC:  cpu time     31.6697: real time     31.6863
    CHARGE:  cpu time      0.7591: real time      0.7595
    --------------------------------------------
      LOOP:  cpu time     63.5594: real time     63.6012

 eigenvalue-minimisations  :     0
 total energy-change (2. order) :-0.6963657E-05  (-0.2309719E-05)
 number of electron      22.0000057 magnetization 
 augmentation part       14.4016400 magnetization 

 DIPCOR: dipole corrections for dipol
 direction  3 min pos     1,
 dipolmoment           0.000000      0.000000      0.000015 electrons x Angstroem
 Tr[quadrupol]     -3982.520398

 energy correction for charged system         0.000000 eV
 dipol+quadrupol energy correction           -0.000000 eV
 added-field ion interaction         -0.000021 eV  (added to PSCEN)


 Free energy of the ion-electron system (eV)
  ---------------------------------------------------
  alpha Z        PSCENC =         0.29601444
  Ewald energy   TEWEN  =       323.49978826
  -Hartree energ DENC   =     -2889.50362926
  -exchange      EXHF   =        67.36165065
  -V(xc)+E(xc)   XCENC  =        67.53614250
  PAW double counting   =      2628.52988945    -2826.30357477
  entropy T*S    EENTRO =        -0.00000000
  eigenvalues    EBANDS =      -151.20443623
  atomic energy  EATOM  =      2776.31665291
  ---------------------------------------------------
  free energy    TOTEN  =        -3.47150204 eV

  energy without entropy =       -3.47150204  energy(sigma->0) =       -3.47150204
  exchange ACFDT corr.  =        -0.00000000  see jH, gK, PRB 81, 115126


--------------------------------------------------------------------------------------------------------




--------------------------------------- Iteration      1(  22)  ---------------------------------------


    POTLOK:  cpu time      0.1462: real time      0.1462
    SETDIJ:  cpu time      0.1688: real time      0.1688
    TRIAL :  cpu time     30.7058: real time     30.7221
    CORREC:  cpu time     31.6323: real time     31.6483
    CHARGE:  cpu time      0.7579: real time      0.7584
    --------------------------------------------
      LOOP:  cpu time     63.4252: real time     63.4659

 eigenvalue-minimisations  :     0
 total energy-change (2. order) :-0.2353323E-05  (-0.2210874E-05)
 number of electron      22.0000057 magnetization 
 augmentation part       14.4017072 magnetization 

 DIPCOR: dipole corrections for dipol
 direction  3 min pos     1,
 dipolmoment           0.000000      0.000000      0.000015 electrons x Angstroem
 Tr[quadrupol]     -3982.520480

 energy correction for charged system         0.000000 eV
 dipol+quadrupol energy correction           -0.000000 eV
 added-field ion interaction         -0.000021 eV  (added to PSCEN)


 Free energy of the ion-electron system (eV)
  ---------------------------------------------------
  alpha Z        PSCENC =         0.29601446
  Ewald energy   TEWEN  =       323.49978826
  -Hartree energ DENC   =     -2889.43692598
  -exchange      EXHF   =        67.36004225
  -V(xc)+E(xc)   XCENC  =        67.53408581
  PAW double counting   =      2628.51289748    -2826.26868819
  entropy T*S    EENTRO =        -0.00000000
  eigenvalues    EBANDS =      -151.28537140
  atomic energy  EATOM  =      2776.31665291
  ---------------------------------------------------
  free energy    TOTEN  =        -3.47150440 eV

  energy without entropy =       -3.47150440  energy(sigma->0) =       -3.47150440
  exchange ACFDT corr.  =        -0.00000000  see jH, gK, PRB 81, 115126


--------------------------------------------------------------------------------------------------------




--------------------------------------- Iteration      1(  23)  ---------------------------------------


    POTLOK:  cpu time      0.1438: real time      0.1439
    SETDIJ:  cpu time      0.1728: real time      0.1728
    TRIAL :  cpu time     30.8323: real time     30.8485
    CORREC:  cpu time     31.6586: real time     31.6744
    CHARGE:  cpu time      0.7568: real time      0.7576
    --------------------------------------------
      LOOP:  cpu time     63.5864: real time     63.6193

 eigenvalue-minimisations  :     0
 total energy-change (2. order) :-0.2189784E-05  (-0.8315380E-06)
 number of electron      22.0000057 magnetization 
 augmentation part       14.4018081 magnetization 

 DIPCOR: dipole corrections for dipol
 direction  3 min pos     1,
 dipolmoment           0.000000      0.000000      0.000015 electrons x Angstroem
 Tr[quadrupol]     -3982.520265

 energy correction for charged system         0.000000 eV
 dipol+quadrupol energy correction           -0.000000 eV
 added-field ion interaction         -0.000021 eV  (added to PSCEN)


 Free energy of the ion-electron system (eV)
  ---------------------------------------------------
  alpha Z        PSCENC =         0.29601455
  Ewald energy   TEWEN  =       323.49978826
  -Hartree energ DENC   =     -2889.43564288
  -exchange      EXHF   =        67.36004893
  -V(xc)+E(xc)   XCENC  =        67.53420084
  PAW double counting   =      2628.54241616    -2826.30219741
  entropy T*S    EENTRO =        -0.00000000
  eigenvalues    EBANDS =      -151.28278793
  atomic energy  EATOM  =      2776.31665291
  ---------------------------------------------------
  free energy    TOTEN  =        -3.47150659 eV

  energy without entropy =       -3.47150659  energy(sigma->0) =       -3.47150659
  exchange ACFDT corr.  =        -0.00000000  see jH, gK, PRB 81, 115126


--------------------------------------------------------------------------------------------------------




--------------------------------------- Iteration      1(  24)  ---------------------------------------


    POTLOK:  cpu time      0.1461: real time      0.1461
    SETDIJ:  cpu time      0.1758: real time      0.1758
    TRIAL :  cpu time     31.0209: real time     31.0374
    CORREC:  cpu time     31.7661: real time     31.7824
    EDDIAG:  cpu time     30.4236: real time     30.4385
    CHARGE:  cpu time      0.7555: real time      0.7560
    --------------------------------------------
      LOOP:  cpu time     94.3011: real time     94.3587

 eigenvalue-minimisations  :     0
 total energy-change (2. order) :-0.8283391E-06  (-0.2289289E-06)
 number of electron      22.0000057 magnetization 
 augmentation part       14.4016454 magnetization 

 DIPCOR: dipole corrections for dipol
 direction  3 min pos     1,
 dipolmoment           0.000000      0.000000      0.000015 electrons x Angstroem
 Tr[quadrupol]     -3982.520038

 energy correction for charged system         0.000000 eV
 dipol+quadrupol energy correction           -0.000000 eV
 added-field ion interaction         -0.000021 eV  (added to PSCEN)


 Free energy of the ion-electron system (eV)
  ---------------------------------------------------
  alpha Z        PSCENC =         0.29601461
  Ewald energy   TEWEN  =       323.49978826
  -Hartree energ DENC   =     -2889.44314177
  -exchange      EXHF   =        67.35972583
  -V(xc)+E(xc)   XCENC  =        67.53453629
  PAW double counting   =      2628.56360094    -2826.32771060
  entropy T*S    EENTRO =        -0.00000000
  eigenvalues    EBANDS =      -151.27151686
  atomic energy  EATOM  =      2776.31665291
  ---------------------------------------------------
  free energy    TOTEN  =        -3.47150742 eV

  energy without entropy =       -3.47150742  energy(sigma->0) =       -3.47150742
  exchange ACFDT corr.  =        -0.00000000  see jH, gK, PRB 81, 115126


--------------------------------------------------------------------------------------------------------


  average scaling for gradient   1.0660


 average (electrostatic) potential at core
  the test charge radii are     0.9430
  (the norm of the test charge is              1.0000)
       1 -65.2587       2 -65.2587



 E-fermi :  -5.6299     XC(G=0):  -0.1053     alpha+bet : -0.0321

 Fermi energy:        -5.6298605396

 k-point     1 :       0.0000    0.0000    0.0000
  band No.  band energies     occupation 
      1      -7.9059      2.00000
      2      -7.4811      2.00000
      3      -7.4811      2.00000
      4      -6.9934      2.00000
      5      -6.9933      2.00000
      6      -6.7707      2.00000
      7      -6.7707      2.00000
      8      -6.4922      2.00000
      9      -6.4922      2.00000
     10      -6.3870      2.00000
     11      -5.8929      2.00000
     12      -2.1768      0.00000
     13      -0.5058      0.00000
     14      -0.5058      0.00000
     15      -0.1105      0.00000
     16       0.1368      0.00000
     17       0.3138      0.00000
     18       0.3146      0.00000
     19       0.3481      0.00000
     20       0.3800      0.00000
     21       0.3800      0.00000
     22       0.5049      0.00000
     23       0.5814      0.00000
     24       0.5814      0.00000
     25       0.6413      0.00000
     26       0.6522      0.00000
     27       0.6535      0.00000
     28       0.6586      0.00000
     29       0.6594      0.00000
     30       0.6688      0.00000
     31       0.6688      0.00000
     32       0.7473      0.00000
     33       0.7473      0.00000
     34       0.8603      0.00000
     35       0.8984      0.00000
     36       0.8985      0.00000
     37       0.9596      0.00000
     38       0.9783      0.00000
     39       0.9860      0.00000
     40       1.0485      0.00000
     41       1.0486      0.00000
     42       1.0750      0.00000
     43       1.2487      0.00000
     44       1.2588      0.00000
     45       1.2691      0.00000
     46       1.3128      0.00000
     47       1.3128      0.00000
     48       1.3762      0.00000
     49       1.3762      0.00000
     50       1.4331      0.00000
     51       1.5490      0.00000
     52       1.5511      0.00000
     53       1.5511      0.00000
     54       1.5714      0.00000
     55       1.5718      0.00000
     56       1.5837      0.00000
     57       1.5920      0.00000
     58       1.6085      0.00000
     59       1.6098      0.00000
     60       1.6099      0.00000
     61       1.6288      0.00000
     62       1.6574      0.00000
     63       1.6574      0.00000
     64       1.6729      0.00000
     65       1.6790      0.00000
     66       1.6887      0.00000
     67       1.6906      0.00000
     68       1.6907      0.00000
     69       1.6962      0.00000
     70       1.7673      0.00000
     71       1.7673      0.00000
     72       1.7688      0.00000
     73       1.7689      0.00000
     74       1.8574      0.00000
     75       1.8668      0.00000
     76       1.8719      0.00000
     77       1.9042      0.00000
     78       1.9042      0.00000
     79       1.9279      0.00000
     80       1.9335      0.00000
     81       1.9418      0.00000
     82       1.9418      0.00000
     83       1.9419      0.00000
     84       1.9581      0.00000
     85       1.9585      0.00000
     86       1.9763      0.00000
     87       1.9882      0.00000
     88       1.9883      0.00000
     89       1.9967      0.00000
     90       1.9967      0.00000
     91       2.0027      0.00000
     92       2.0049      0.00000
     93       2.0200      0.00000
     94       2.1980      0.00000
     95       2.1980      0.00000
     96       2.2988      0.00000
     97       2.2988      0.00000
     98       2.3451      0.00000
     99       2.5206      0.00000
    100       2.5227      0.00000
    101       2.5479      0.00000
    102       2.5479      0.00000
    103       2.5902      0.00000
    104       2.5921      0.00000
    105       2.5924      0.00000
    106       2.6860      0.00000
    107       2.6861      0.00000
    108       2.7152      0.00000
    109       2.7153      0.00000
    110       2.7331      0.00000
    111       2.7421      0.00000
    112       2.8017      0.00000
    113       2.8058      0.00000
    114       2.8188      0.00000
    115       2.8350      0.00000
    116       2.8574      0.00000
    117       2.8575      0.00000
    118       2.8819      0.00000
    119       2.9119      0.00000
    120       2.9133      0.00000
    121       2.9134      0.00000
    122       2.9134      0.00000
    123       2.9134      0.00000
    124       2.9228      0.00000
    125       2.9263      0.00000
    126       2.9265      0.00000
    127       2.9268      0.00000
    128       2.9484      0.00000
    129       2.9766      0.00000
    130       2.9772      0.00000
    131       2.9773      0.00000
    132       2.9801      0.00000
    133       2.9802      0.00000
    134       2.9808      0.00000
    135       2.9992      0.00000
    136       3.0584      0.00000
    137       3.0585      0.00000
    138       3.0689      0.00000
    139       3.0690      0.00000
    140       3.1179      0.00000
    141       3.1184      0.00000
    142       3.1359      0.00000
    143       3.1360      0.00000
    144       3.1598      0.00000
    145       3.1913      0.00000
    146       3.1964      0.00000
    147       3.2041      0.00000
    148       3.2283      0.00000
    149       3.2283      0.00000
    150       3.2777      0.00000
    151       3.3121      0.00000
    152       3.3198      0.00000
    153       3.3304      0.00000
    154       3.3305      0.00000
    155       3.3511      0.00000
    156       3.3556      0.00000
    157       3.3556      0.00000
    158       3.3560      0.00000
    159       3.3580      0.00000
    160       3.3580      0.00000
    161       3.3620      0.00000
    162       3.3769      0.00000
    163       3.3770      0.00000
    164       3.4312      0.00000
    165       3.4329      0.00000
    166       3.5033      0.00000
    167       3.5033      0.00000
    168       3.5108      0.00000
    169       3.5148      0.00000
    170       3.5264      0.00000
    171       3.5264      0.00000
    172       3.5692      0.00000
    173       3.6033      0.00000
    174       3.6042      0.00000
    175       3.6162      0.00000
    176       3.6323      0.00000
    177       3.6390      0.00000
    178       3.6390      0.00000
    179       3.6547      0.00000
    180       3.6579      0.00000
    181       3.6579      0.00000
    182       3.6681      0.00000
    183       3.6941      0.00000
    184       3.7394      0.00000
    185       3.7394      0.00000
    186       3.7791      0.00000
    187       3.7792      0.00000
    188       3.8508      0.00000
    189       3.8611      0.00000
    190       3.8791      0.00000
    191       3.9278      0.00000
    192       3.9620      0.00000
    193       3.9620      0.00000
    194       3.9842      0.00000
    195       3.9842      0.00000
    196       4.0304      0.00000
    197       4.0426      0.00000
    198       4.0636      0.00000
    199       4.0637      0.00000
    200       4.0951      0.00000
    201       4.1603      0.00000
    202       4.1621      0.00000
    203       4.1622      0.00000
    204       4.1727      0.00000
    205       4.1874      0.00000
    206       4.1944      0.00000
    207       4.1998      0.00000
    208       4.2180      0.00000
    209       4.2181      0.00000
    210       4.2455      0.00000
    211       4.2685      0.00000
    212       4.3046      0.00000
    213       4.3047      0.00000
    214       4.3348      0.00000
    215       4.3349      0.00000
    216       4.3588      0.00000
    217       4.3638      0.00000
    218       4.3661      0.00000
    219       4.3661      0.00000
    220       4.3721      0.00000
    221       4.3731      0.00000
    222       4.4278      0.00000
    223       4.4300      0.00000
    224       4.4515      0.00000
    225       4.4516      0.00000
    226       4.4527      0.00000
    227       4.4527      0.00000
    228       4.4634      0.00000
    229       4.4636      0.00000
    230       4.4657      0.00000
    231       4.4672      0.00000
    232       4.4702      0.00000
    233       4.4702      0.00000
    234       4.4824      0.00000
    235       4.4824      0.00000
    236       4.5150      0.00000
    237       4.5222      0.00000
    238       4.5308      0.00000
    239       4.5329      0.00000
    240       4.5360      0.00000
    241       4.5635      0.00000
    242       4.5635      0.00000
    243       4.5646      0.00000
    244       4.5648      0.00000
    245       4.5814      0.00000
    246       4.5827      0.00000
    247       4.6059      0.00000
    248       4.6071      0.00000
    249       4.6077      0.00000
    250       4.6176      0.00000
    251       4.6224      0.00000
    252       4.6378      0.00000
    253       4.6410      0.00000
    254       4.6425      0.00000
    255       4.6455      0.00000
    256       4.6729      0.00000


--------------------------------------------------------------------------------------------------------


 soft charge-density along one line, spin component           1
         0         1         2         3         4         5         6         7         8         9
 total charge-density along one line

 pseudopotential strength for first ion, spin component:           1
 -6.363  -0.000   0.000   0.000   0.000  -2.400   0.000  -0.000
 -0.000  -6.417   0.000  -0.000  -0.000   0.000  -2.361  -0.000
  0.000   0.000  -6.444  -0.000   0.000  -0.000  -0.000  -2.344
  0.000  -0.000  -0.000  -6.417  -0.000  -0.000   0.000   0.000
  0.000  -0.000   0.000  -0.000  -6.363  -0.000   0.000  -0.000
 -2.400   0.000  -0.000  -0.000  -0.000   8.851  -0.000   0.000
  0.000  -2.361  -0.000   0.000   0.000  -0.000   8.828   0.000
 -0.000  -0.000  -2.344   0.000  -0.000   0.000   0.000   8.820
 -0.000   0.000   0.000  -2.361   0.000   0.000  -0.000  -0.000
 -0.000   0.000  -0.000   0.000  -2.400   0.000  -0.000   0.000
  0.000  -0.000   0.017   0.000   0.000   0.000  -0.000  -0.002
  0.000  -0.000   0.031   0.000   0.000   0.000  -0.000  -0.003
 -0.000   0.033  -0.000  -0.000  -0.000  -0.000  -0.012   0.000
 -0.000   0.000   0.040  -0.000  -0.000  -0.000  -0.000  -0.016
  0.000  -0.000   0.000   0.033  -0.000  -0.000  -0.000  -0.000
 -0.000   0.034  -0.000   0.000  -0.000  -0.000  -0.006  -0.000
  0.000   0.000   0.044  -0.000   0.000  -0.000   0.000  -0.012
  0.000   0.000   0.000   0.034  -0.000   0.000  -0.000   0.000
 total augmentation occupancy for first ion, spin component:           1
  2.001  -0.000   0.000  -0.000   0.000  -0.014   0.000  -0.000  -0.000   0.000   0.000   0.000   0.000   0.000  -0.000  -0.000
 -0.000   1.997   0.000   0.000  -0.000  -0.000  -0.001  -0.000  -0.000   0.000   0.000   0.000  -0.056   0.000  -0.000   0.048
  0.000  -0.000   1.995   0.000  -0.000  -0.000   0.000   0.016   0.000  -0.000  -0.077  -0.011  -0.000  -0.120   0.000  -0.000
 -0.000   0.000  -0.000   1.997  -0.000  -0.000  -0.000   0.000  -0.001   0.000   0.000   0.000  -0.000   0.000  -0.056  -0.000
  0.000  -0.000  -0.000  -0.000   2.001  -0.000   0.000  -0.000  -0.000  -0.014   0.000   0.000  -0.000   0.000   0.000  -0.000
 -0.014  -0.000  -0.000  -0.000  -0.000   0.000   0.000   0.000   0.000   0.000  -0.000   0.000  -0.000  -0.000   0.000   0.000
  0.000  -0.001   0.000  -0.000   0.000   0.000   0.003   0.000   0.000   0.000   0.000  -0.000  -0.006  -0.000  -0.000   0.001
  0.000  -0.000   0.016   0.000  -0.000   0.000   0.000   0.009   0.000  -0.000   0.097  -0.013   0.000  -0.024  -0.000   0.000
 -0.000  -0.000   0.000  -0.001  -0.000   0.000   0.000   0.000   0.003   0.000  -0.000  -0.000   0.000  -0.000  -0.006   0.000
  0.000   0.000  -0.000   0.000  -0.014   0.000   0.000  -0.000   0.000   0.000  -0.000   0.000   0.000   0.000   0.000   0.000
  0.000   0.000  -0.077   0.000   0.000   0.000   0.000   0.097  -0.000  -0.000   1.929  -0.239   0.000  -0.326   0.000   0.000
  0.000   0.000  -0.011   0.000   0.000   0.000  -0.000  -0.013   0.000   0.000  -0.239   0.030   0.000   0.043   0.000   0.000
  0.000  -0.056  -0.000  -0.000  -0.000  -0.000  -0.006  -0.000   0.000   0.000   0.000  -0.000   0.012   0.000   0.000  -0.002
 -0.000   0.000  -0.120   0.000   0.000  -0.000  -0.000  -0.024  -0.000   0.000  -0.326   0.043   0.000   0.076  -0.000   0.000
 -0.000  -0.000   0.000  -0.056   0.000   0.000  -0.000   0.000  -0.006   0.000   0.000   0.000   0.000  -0.000   0.012   0.000
 -0.000   0.048  -0.000  -0.000  -0.000   0.000   0.001   0.000   0.000   0.000   0.000   0.000  -0.002   0.000   0.000   0.001
  0.000   0.000   0.056  -0.000  -0.000   0.000   0.000   0.003   0.000  -0.000   0.036  -0.005   0.000  -0.011   0.000   0.000
 -0.000   0.000   0.000   0.048   0.000   0.000  -0.000   0.000   0.001  -0.000  -0.000   0.000  -0.000  -0.000  -0.002  -0.000


------------------------ aborting loop because EDIFF is reached ----------------------------------------


    FORLOC:  cpu time      0.0036: real time      0.0036
    FORHF :  cpu time      1.2845: real time      1.2849
    FORNL :  cpu time      0.1229: real time      0.1231
    FORCOR:  cpu time      0.1828: real time      0.1829
    OFIELD:  cpu time      0.0001: real time      0.0001
    FORVDW:  cpu time      0.0060: real time      0.2473

 VOLUME and BASIS-vectors are now :
 -----------------------------------------------------------------------------
  energy-cutoff  :      520.00
  volume of cell :     9881.61
      direct lattice vectors                 reciprocal lattice vectors
    21.138852197  0.000000000  0.000000000     0.047306258  0.000000000  0.000000000
     0.000000000 21.138852197  0.000000000     0.000000000  0.047306258  0.000000000
     0.000000000  0.000000000 22.113885220     0.000000000  0.000000000  0.045220457

  length of vectors
    21.138852197 21.138852197 22.113885220     0.047306258  0.047306258  0.045220457


 FORCES acting on ions:
    Electron-Ion                     Ewald-Force                    Non-Local-Force
 -----------------------------------------------------------------------------------------------
   0.972E-05 -.811E-04 -.364E+03   -.323E-16 -.207E-16 0.350E+03   -.159E-21 0.331E-23 0.135E+02
   0.972E-05 -.811E-04 0.364E+03   -.261E-16 0.165E-16 -.350E+03   -.212E-21 -.159E-21 -.135E+02
 -----------------------------------------------------------------------------------------------
   0.197E-04 -.164E-03 -.736E-04   -.583E-16 -.419E-17 0.000E+00   -.371E-21 -.156E-21 0.178E-14


 POSITION                                       TOTAL-FORCE (eV/Angst)
 -----------------------------------------------------------------------------------
      9.51248      9.51248     15.45078        -0.000000      0.000000      0.067331
      9.51248      9.51248     13.22359         0.000000     -0.000000     -0.067331
 -----------------------------------------------------------------------------------
    total drift:                                0.000020     -0.000164     -0.000074


--------------------------------------------------------------------------------------------------------



  FREE ENERGIE OF THE ION-ELECTRON SYSTEM (eV)
  ---------------------------------------------------
  free  energy   TOTEN  =        -3.49694637 eV

  energy  without entropy=       -3.49694637  energy(sigma->0) =       -3.49694637



--------------------------------------------------------------------------------------------------------


    POTLOK:  cpu time      0.3048: real time      0.3050


--------------------------------------------------------------------------------------------------------


     LOOP+:  cpu time   1309.2296: real time   1310.4218
    4ORBIT:  cpu time      0.0000: real time      0.0000

 total amount of memory used by VASP MPI-rank0  1210276. kBytes
=======================================================================

   base      :      30000. kBytes
   nonlr-proj:       1096. kBytes
   fftplans  :      61791. kBytes
   grid      :      48291. kBytes
   one-center:         15. kBytes
   HF        :         64. kBytes
   wavefun   :       3207. kBytes
   fock_wrk  :    1065812. kBytes

  
  
 General timing and accounting informations for this job:
 ========================================================
  
                  Total CPU time used (sec):     1405.892
                            User time (sec):     1369.996
                          System time (sec):       35.897
                         Elapsed time (sec):     1417.468
  
                   Maximum memory used (kb):     2576976.
                   Average memory used (kb):          N/A
  
                          Minor page faults:      3954062
                          Major page faults:           50
                 Voluntary context switches:        48952
