 **********************************************************************
                          MRCC program system
 **********************************************************************
 
                              Written by
     Mihaly Kallay, Peter R. Nagy, David Mester, Laszlo Gyevi-Nagy,
        Jozsef Csoka, P. Bernat Szabo, Zoltan Rolik, Gyula Samu,
     Jozsef Csontos, Bence Hegely, Adam Ganyecz, Istvan Ladjanszki,
       Lorant Szegedy, Bence Ladoczki, Klara Petrov, Mate Farkas,
                    Pal D. Mezei, and Reka A. Horvath
 
        Department of Physical Chemistry and Materials Science
            Budapest University of Technology and Economics
                  Budapest P.O.Box 91, H-1521 Hungary
 
                              www.mrcc.hu
 
                      Release date: March 18, 2022

 ************************ 2023-10-25 15:39:12 *************************
 Executing minp...

 Reading input from MINP...
 
 Input file:
 
calc=DF-CCSD(T)
verbosity=3
mem=1300GB
unit=angs
scfiguess=small
scfalg=locfit1
symm=off
ccmaxit=400
ccsdalg=dfdirect
ccsdthreads=4
ccsdmkl=thr
ptthreads=4
ECP=MCDHF-ECP-10
basis=bse_ACVQZ
basis_sm=def2-SVP
dfbasis_scf=def2-QZVPP-RI-JK
dfbasis_cor=bse_ACVQZ_mp2fit
core=0
unit=angs
geom=xyz
    4
Cu4_4
Cu     1.16717276     0.38905498     1.07801886
Cu     0.02179923    -0.12973513    -1.17783523
Cu    -0.42856473    -1.13463765     1.17783523
Cu    -1.16717276     1.13463765     0.18733212

ghost=serialno


 
 
 Checking keyword combinations...
 
 Keywords:
 
 active=none
 agrid=ld0006-ld0590
 agrid_pssp=ld0006-ld0194
 agrid_pssp_sm=ld0006-ld0074
 basis=bse_acvqz
 basis_sm=def2-svp
 basopt=off
 bfbasis=none
 bfgsmem=10
 bfgstol=1.0d-3
 bpcompo=0.985
 bpcompv=0.98
 bpdfo=0.985
 bpocc=0.985
 bppdo=0.985
 bppdv=0.98
 bpedo=0.985
 bpedv=0.98
 calc=ccsd(t)
 ccmaxit=400
 ccprog=ccsd
 ccsdalg=dfdirect
 ccsdmkl=thr
 ccsdrest=trf
 ccsdthreads=4
 cctol=6
 charge=0
 cialg=auto
 ciguess=off
 cmpgrp=auto
 comprest=off
 core=corr
 corembed=off
 csapprox=off
 cvs=off
 dboc=off
 delocsomofact=
 dendec=cholesky
 dens=0
 dfalg=lineq
 dfbasis_cab=none
 dfbasis_cor=bse_acvqz_mp2fit
 dfbasis_scf=def2-qzvpp-ri-jk
 dfbasis_scf_sm=def2-qzvpp-ri-jk
 dfintran=drpa
 dft=off
 dhexc=adc(2)
 diag=david
 docc=
 domrad=10.d0
 drpaalg=fit
 dual=off
 dual_df=off
 ecp=mcdhf-ecp-10
 edisp=off
 edisp_embed=off
 embed=off
 etemp=300
 epert=none
 eps=
 espcharge=off
 excrad=1.0
 excrad_fin=0.100000000D-02
 fitting=coulomb
 fmm=off
 fmmord=8
 freq=off
 gamma=1.d0
 gauss=spher
 geom=xyz
 gopt=off
 ghost=serialno
 gtol=7
 grdens=off
 gridbatch_cos=2000
 grtol=10
 guido_ct=off
 hamilton=dc
 iface=none
 intalg=auto
 itol=10
 laptol=1.d-2
 lccoporder=trffirst
 lcorthr=normal
 lccrest=off
 lmp2dens=on
 lnoepso=0.d0
 lnoepsv=5e-5
 boysalg=jacobi
 localcc=off
 localcorrsymm=off
 locintrf=disk
 mact=
 maxact=off
 maxdim=100
 maxex=0
 maxmicroit=100
 mcscfiguess=hf
 mem=1300gb
 mmprog=
 molden=on
 mpitasks=1
 mulmet=0
 mult=
 nacto=0
 nactv=0
 naf_amp=1.d-2
 naf_cor=off
 naf_scf=off
 nafalg=albe
 naftyp=
 nchol=auto
 ndeps=1e-3
 nstate=1
 nsing=0
 nto=off
 ntrip=0
 occ=
 occri=off
 oniom=off
 oniom_eechg=off
 oniom_pcm=off
 oniom_qcorr=off
 optalg=
 optmaxit=50
 optetol=1e-6
 optex=0
 optgtol=1e-4
 optstol=1e-3
 orblocc=off
 orbloce=off
 orbloco=off
 orblocv=off
 orblocguess=cholesky
 osveps=1e-3
 ovirt=off
 ovltol=1e-7
 ovosnorb=80.0
 pcm=off
 popul=off
 pressure=100000
 pssp=off
 ptfreq=0.0
 ptthreads=4
 qro=off
 qscf=off
 qmmm=off
 redcost_exc=off
 redcost_tddft=off
 refdet=none
 rest=0
 rgrid=log3
 rism=off
 rohfcore=semicanonical
 rohftype=semicanonical
 scfalg=locfit1
 scf_conv=difficult
 scfdamp=0.0d0
 scfdamp_mode=off
 scfdamp_end=50
 scfdamp_dampstep=0.d0
 scfdamp_dtol=0.0d0
 scfdamp_maxfact=0.0d0
 scfdamp_minfact=0.0d0
 scfdiis=on
 scfdiis_dtol=0.0d0
 scfdiis_end=50
 scfdiis_start=2
 scfdiis_step=1
 scfdiis_watch=off
 scfdiis_wrange=10
 scfdiis_wlimit=5
 scfdiis_delmax=2
 scfdtol=7
 scfext=10
 scfguessdens=
 scfiguess=small
 scfloc=pm
 scflshift=0.20
 scflshift_end=8
 scflshift_dtol=0.0
 scflshift_gaptol=0.20
 scfmaxit=50
 scftype=
 scftol=6
 scspe=1.d0
 scsph=1.d0
 scsps=1.2d0
 scsps_t=1.2d0
 scspt=0.33333333333333
 scspt_t=0.33333333333333
 scspv=1.d0
 spairtol=1e-4
 sqmprog=
 subminp=top
 symm=0
 talg=occ
 temp=298.15
 test=off
 theodore=off
 tlmo=0.999
 tpao=0.94
 tprint=off
 uncontract=off
 unit=angs
 usedisk=2
 verbosity=3
 wpairtol=0.100000000E-05
 
 Calculating integrals for small-basis SCF...

 ************************ 2023-10-25 15:39:13 *************************
 Executing integ...

 Allocation of 1300.0 Gbytes of memory...
 
 
 Number of atoms:                  4
 Charge:                           0
 Number of electrons:             76
 Number of core electrons:        32
 Spin multiplicity:                1
 
                 Cartesian coordinates [bohr]      Atomic mass [AMU]  Z
   1  Cu    2.20563686    0.73520736    2.03716040    62.929599      29
   2  Cu    0.04119457   -0.24516386   -2.22578601    62.929599      29
   3  Cu   -0.80986997   -2.14415441    2.22578601    62.929599      29
   4  Cu   -2.20563686    2.14415441    0.35400640    62.929599      29
 
 This molecule is an asymmetric top.
 
 Point group: C1  
 Computational point group: C1  
 
 Cartesian coordinates in standard orientation [bohr]
   1  Cu    1.96490604   -1.49104282   -1.45347412
   2  Cu   -1.94500212   -1.49199795    1.46735924
   3  Cu    1.94825954    1.50620393    1.45097420
   4  Cu   -1.96816346    1.47683684   -1.46485932
 
 Nuclear repulsion energy [au]:        467.639882185284
 
 
 Basis set information:
 
 Maximum angular momentum: i
 Maximum number of contracted Gaussians:   16
 Maximum number of primitive Gaussians:    19
 Spherical harmonic GTOs are used.
 
 
 Conventional basis set:
 
   1  Cu def2-svp [ 14s 9p 5d 1f | 5s 3p 2d 1f ]
   2  Cu def2-svp [ 14s 9p 5d 1f | 5s 3p 2d 1f ]
   3  Cu def2-svp [ 14s 9p 5d 1f | 5s 3p 2d 1f ]
   4  Cu def2-svp [ 14s 9p 5d 1f | 5s 3p 2d 1f ]
 
 Basis functions:
            1             2             3             4             5             6             7             8             9            10
    0    1Cu1s         1Cu2s         1Cu3s         1Cu4s         1Cu5s         1Cu1pz        1Cu1py        1Cu1px        1Cu2pz        1Cu2py    
    1    1Cu2px        1Cu3pz        1Cu3py        1Cu3px        1Cu1d-2       1Cu1d-1       1Cu1d0        1Cu1d+1       1Cu1d+2       1Cu2d-2   
    2    1Cu2d-1       1Cu2d0        1Cu2d+1       1Cu2d+2       1Cu1f-3       1Cu1f-2       1Cu1f-1       1Cu1f0        1Cu1f+1       1Cu1f+2   
    3    1Cu1f+3       2Cu1s         2Cu2s         2Cu3s         2Cu4s         2Cu5s         2Cu1pz        2Cu1py        2Cu1px        2Cu2pz    
    4    2Cu2py        2Cu2px        2Cu3pz        2Cu3py        2Cu3px        2Cu1d-2       2Cu1d-1       2Cu1d0        2Cu1d+1       2Cu1d+2   
    5    2Cu2d-2       2Cu2d-1       2Cu2d0        2Cu2d+1       2Cu2d+2       2Cu1f-3       2Cu1f-2       2Cu1f-1       2Cu1f0        2Cu1f+1   
    6    2Cu1f+2       2Cu1f+3       3Cu1s         3Cu2s         3Cu3s         3Cu4s         3Cu5s         3Cu1pz        3Cu1py        3Cu1px    
    7    3Cu2pz        3Cu2py        3Cu2px        3Cu3pz        3Cu3py        3Cu3px        3Cu1d-2       3Cu1d-1       3Cu1d0        3Cu1d+1   
    8    3Cu1d+2       3Cu2d-2       3Cu2d-1       3Cu2d0        3Cu2d+1       3Cu2d+2       3Cu1f-3       3Cu1f-2       3Cu1f-1       3Cu1f0    
    9    3Cu1f+1       3Cu1f+2       3Cu1f+3       4Cu1s         4Cu2s         4Cu3s         4Cu4s         4Cu5s         4Cu1pz        4Cu1py    
   10    4Cu1px        4Cu2pz        4Cu2py        4Cu2px        4Cu3pz        4Cu3py        4Cu3px        4Cu1d-2       4Cu1d-1       4Cu1d0    
   11    4Cu1d+1       4Cu1d+2       4Cu2d-2       4Cu2d-1       4Cu2d0        4Cu2d+1       4Cu2d+2       4Cu1f-3       4Cu1f-2       4Cu1f-1   
   12    4Cu1f0        4Cu1f+1       4Cu1f+2       4Cu1f+3   
 
 Maximum number of basis functions per shell:   10
 Total number of basis functions:    124
 
 
 Fitting basis set for the SCF calculation:
 
   1  Cu def2-qzvpp-ri-jk [ 19s 14p 12d 10f 7g 3h 1i | 16s 13p 11d 9f 5g 3h 1i ]
   2  Cu def2-qzvpp-ri-jk [ 19s 14p 12d 10f 7g 3h 1i | 16s 13p 11d 9f 5g 3h 1i ]
   3  Cu def2-qzvpp-ri-jk [ 19s 14p 12d 10f 7g 3h 1i | 16s 13p 11d 9f 5g 3h 1i ]
   4  Cu def2-qzvpp-ri-jk [ 19s 14p 12d 10f 7g 3h 1i | 16s 13p 11d 9f 5g 3h 1i ]
 
 Basis functions:
            1             2             3             4             5             6             7             8             9            10
    0    1Cu1s         1Cu2s         1Cu3s         1Cu4s         1Cu5s         1Cu6s         1Cu7s         1Cu8s         1Cu9s         1Cu10s    
    1    1Cu11s        1Cu12s        1Cu13s        1Cu14s        1Cu15s        1Cu16s        1Cu1pz        1Cu1py        1Cu1px        1Cu2pz    
    2    1Cu2py        1Cu2px        1Cu3pz        1Cu3py        1Cu3px        1Cu4pz        1Cu4py        1Cu4px        1Cu5pz        1Cu5py    
    3    1Cu5px        1Cu6pz        1Cu6py        1Cu6px        1Cu7pz        1Cu7py        1Cu7px        1Cu8pz        1Cu8py        1Cu8px    
    4    1Cu9pz        1Cu9py        1Cu9px        1Cu10pz       1Cu10py       1Cu10px       1Cu11pz       1Cu11py       1Cu11px       1Cu12pz   
    5    1Cu12py       1Cu12px       1Cu13pz       1Cu13py       1Cu13px       1Cu1d-2       1Cu1d-1       1Cu1d0        1Cu1d+1       1Cu1d+2   
    6    1Cu2d-2       1Cu2d-1       1Cu2d0        1Cu2d+1       1Cu2d+2       1Cu3d-2       1Cu3d-1       1Cu3d0        1Cu3d+1       1Cu3d+2   
    7    1Cu4d-2       1Cu4d-1       1Cu4d0        1Cu4d+1       1Cu4d+2       1Cu5d-2       1Cu5d-1       1Cu5d0        1Cu5d+1       1Cu5d+2   
    8    1Cu6d-2       1Cu6d-1       1Cu6d0        1Cu6d+1       1Cu6d+2       1Cu7d-2       1Cu7d-1       1Cu7d0        1Cu7d+1       1Cu7d+2   
    9    1Cu8d-2       1Cu8d-1       1Cu8d0        1Cu8d+1       1Cu8d+2       1Cu9d-2       1Cu9d-1       1Cu9d0        1Cu9d+1       1Cu9d+2   
   10    1Cu10d-2      1Cu10d-1      1Cu10d0       1Cu10d+1      1Cu10d+2      1Cu11d-2      1Cu11d-1      1Cu11d0       1Cu11d+1      1Cu11d+2  
   11    1Cu1f-3       1Cu1f-2       1Cu1f-1       1Cu1f0        1Cu1f+1       1Cu1f+2       1Cu1f+3       1Cu2f-3       1Cu2f-2       1Cu2f-1   
   12    1Cu2f0        1Cu2f+1       1Cu2f+2       1Cu2f+3       1Cu3f-3       1Cu3f-2       1Cu3f-1       1Cu3f0        1Cu3f+1       1Cu3f+2   
   13    1Cu3f+3       1Cu4f-3       1Cu4f-2       1Cu4f-1       1Cu4f0        1Cu4f+1       1Cu4f+2       1Cu4f+3       1Cu5f-3       1Cu5f-2   
   14    1Cu5f-1       1Cu5f0        1Cu5f+1       1Cu5f+2       1Cu5f+3       1Cu6f-3       1Cu6f-2       1Cu6f-1       1Cu6f0        1Cu6f+1   
   15    1Cu6f+2       1Cu6f+3       1Cu7f-3       1Cu7f-2       1Cu7f-1       1Cu7f0        1Cu7f+1       1Cu7f+2       1Cu7f+3       1Cu8f-3   
   16    1Cu8f-2       1Cu8f-1       1Cu8f0        1Cu8f+1       1Cu8f+2       1Cu8f+3       1Cu9f-3       1Cu9f-2       1Cu9f-1       1Cu9f0    
   17    1Cu9f+1       1Cu9f+2       1Cu9f+3       1Cu1g-4       1Cu1g-3       1Cu1g-2       1Cu1g-1       1Cu1g0        1Cu1g+1       1Cu1g+2   
   18    1Cu1g+3       1Cu1g+4       1Cu2g-4       1Cu2g-3       1Cu2g-2       1Cu2g-1       1Cu2g0        1Cu2g+1       1Cu2g+2       1Cu2g+3   
   19    1Cu2g+4       1Cu3g-4       1Cu3g-3       1Cu3g-2       1Cu3g-1       1Cu3g0        1Cu3g+1       1Cu3g+2       1Cu3g+3       1Cu3g+4   
   20    1Cu4g-4       1Cu4g-3       1Cu4g-2       1Cu4g-1       1Cu4g0        1Cu4g+1       1Cu4g+2       1Cu4g+3       1Cu4g+4       1Cu5g-4   
   21    1Cu5g-3       1Cu5g-2       1Cu5g-1       1Cu5g0        1Cu5g+1       1Cu5g+2       1Cu5g+3       1Cu5g+4       1Cu1h-5       1Cu1h-4   
   22    1Cu1h-3       1Cu1h-2       1Cu1h-1       1Cu1h0        1Cu1h+1       1Cu1h+2       1Cu1h+3       1Cu1h+4       1Cu1h+5       1Cu2h-5   
   23    1Cu2h-4       1Cu2h-3       1Cu2h-2       1Cu2h-1       1Cu2h0        1Cu2h+1       1Cu2h+2       1Cu2h+3       1Cu2h+4       1Cu2h+5   
   24    1Cu3h-5       1Cu3h-4       1Cu3h-3       1Cu3h-2       1Cu3h-1       1Cu3h0        1Cu3h+1       1Cu3h+2       1Cu3h+3       1Cu3h+4   
   25    1Cu3h+5       1Cu1i-6       1Cu1i-5       1Cu1i-4       1Cu1i-3       1Cu1i-2       1Cu1i-1       1Cu1i0        1Cu1i+1       1Cu1i+2   
   26    1Cu1i+3       1Cu1i+4       1Cu1i+5       1Cu1i+6       2Cu1s         2Cu2s         2Cu3s         2Cu4s         2Cu5s         2Cu6s     
   27    2Cu7s         2Cu8s         2Cu9s         2Cu10s        2Cu11s        2Cu12s        2Cu13s        2Cu14s        2Cu15s        2Cu16s    
   28    2Cu1pz        2Cu1py        2Cu1px        2Cu2pz        2Cu2py        2Cu2px        2Cu3pz        2Cu3py        2Cu3px        2Cu4pz    
   29    2Cu4py        2Cu4px        2Cu5pz        2Cu5py        2Cu5px        2Cu6pz        2Cu6py        2Cu6px        2Cu7pz        2Cu7py    
   30    2Cu7px        2Cu8pz        2Cu8py        2Cu8px        2Cu9pz        2Cu9py        2Cu9px        2Cu10pz       2Cu10py       2Cu10px   
   31    2Cu11pz       2Cu11py       2Cu11px       2Cu12pz       2Cu12py       2Cu12px       2Cu13pz       2Cu13py       2Cu13px       2Cu1d-2   
   32    2Cu1d-1       2Cu1d0        2Cu1d+1       2Cu1d+2       2Cu2d-2       2Cu2d-1       2Cu2d0        2Cu2d+1       2Cu2d+2       2Cu3d-2   
   33    2Cu3d-1       2Cu3d0        2Cu3d+1       2Cu3d+2       2Cu4d-2       2Cu4d-1       2Cu4d0        2Cu4d+1       2Cu4d+2       2Cu5d-2   
   34    2Cu5d-1       2Cu5d0        2Cu5d+1       2Cu5d+2       2Cu6d-2       2Cu6d-1       2Cu6d0        2Cu6d+1       2Cu6d+2       2Cu7d-2   
   35    2Cu7d-1       2Cu7d0        2Cu7d+1       2Cu7d+2       2Cu8d-2       2Cu8d-1       2Cu8d0        2Cu8d+1       2Cu8d+2       2Cu9d-2   
   36    2Cu9d-1       2Cu9d0        2Cu9d+1       2Cu9d+2       2Cu10d-2      2Cu10d-1      2Cu10d0       2Cu10d+1      2Cu10d+2      2Cu11d-2  
   37    2Cu11d-1      2Cu11d0       2Cu11d+1      2Cu11d+2      2Cu1f-3       2Cu1f-2       2Cu1f-1       2Cu1f0        2Cu1f+1       2Cu1f+2   
   38    2Cu1f+3       2Cu2f-3       2Cu2f-2       2Cu2f-1       2Cu2f0        2Cu2f+1       2Cu2f+2       2Cu2f+3       2Cu3f-3       2Cu3f-2   
   39    2Cu3f-1       2Cu3f0        2Cu3f+1       2Cu3f+2       2Cu3f+3       2Cu4f-3       2Cu4f-2       2Cu4f-1       2Cu4f0        2Cu4f+1   
   40    2Cu4f+2       2Cu4f+3       2Cu5f-3       2Cu5f-2       2Cu5f-1       2Cu5f0        2Cu5f+1       2Cu5f+2       2Cu5f+3       2Cu6f-3   
   41    2Cu6f-2       2Cu6f-1       2Cu6f0        2Cu6f+1       2Cu6f+2       2Cu6f+3       2Cu7f-3       2Cu7f-2       2Cu7f-1       2Cu7f0    
   42    2Cu7f+1       2Cu7f+2       2Cu7f+3       2Cu8f-3       2Cu8f-2       2Cu8f-1       2Cu8f0        2Cu8f+1       2Cu8f+2       2Cu8f+3   
   43    2Cu9f-3       2Cu9f-2       2Cu9f-1       2Cu9f0        2Cu9f+1       2Cu9f+2       2Cu9f+3       2Cu1g-4       2Cu1g-3       2Cu1g-2   
   44    2Cu1g-1       2Cu1g0        2Cu1g+1       2Cu1g+2       2Cu1g+3       2Cu1g+4       2Cu2g-4       2Cu2g-3       2Cu2g-2       2Cu2g-1   
   45    2Cu2g0        2Cu2g+1       2Cu2g+2       2Cu2g+3       2Cu2g+4       2Cu3g-4       2Cu3g-3       2Cu3g-2       2Cu3g-1       2Cu3g0    
   46    2Cu3g+1       2Cu3g+2       2Cu3g+3       2Cu3g+4       2Cu4g-4       2Cu4g-3       2Cu4g-2       2Cu4g-1       2Cu4g0        2Cu4g+1   
   47    2Cu4g+2       2Cu4g+3       2Cu4g+4       2Cu5g-4       2Cu5g-3       2Cu5g-2       2Cu5g-1       2Cu5g0        2Cu5g+1       2Cu5g+2   
   48    2Cu5g+3       2Cu5g+4       2Cu1h-5       2Cu1h-4       2Cu1h-3       2Cu1h-2       2Cu1h-1       2Cu1h0        2Cu1h+1       2Cu1h+2   
   49    2Cu1h+3       2Cu1h+4       2Cu1h+5       2Cu2h-5       2Cu2h-4       2Cu2h-3       2Cu2h-2       2Cu2h-1       2Cu2h0        2Cu2h+1   
   50    2Cu2h+2       2Cu2h+3       2Cu2h+4       2Cu2h+5       2Cu3h-5       2Cu3h-4       2Cu3h-3       2Cu3h-2       2Cu3h-1       2Cu3h0    
   51    2Cu3h+1       2Cu3h+2       2Cu3h+3       2Cu3h+4       2Cu3h+5       2Cu1i-6       2Cu1i-5       2Cu1i-4       2Cu1i-3       2Cu1i-2   
   52    2Cu1i-1       2Cu1i0        2Cu1i+1       2Cu1i+2       2Cu1i+3       2Cu1i+4       2Cu1i+5       2Cu1i+6       3Cu1s         3Cu2s     
   53    3Cu3s         3Cu4s         3Cu5s         3Cu6s         3Cu7s         3Cu8s         3Cu9s         3Cu10s        3Cu11s        3Cu12s    
   54    3Cu13s        3Cu14s        3Cu15s        3Cu16s        3Cu1pz        3Cu1py        3Cu1px        3Cu2pz        3Cu2py        3Cu2px    
   55    3Cu3pz        3Cu3py        3Cu3px        3Cu4pz        3Cu4py        3Cu4px        3Cu5pz        3Cu5py        3Cu5px        3Cu6pz    
   56    3Cu6py        3Cu6px        3Cu7pz        3Cu7py        3Cu7px        3Cu8pz        3Cu8py        3Cu8px        3Cu9pz        3Cu9py    
   57    3Cu9px        3Cu10pz       3Cu10py       3Cu10px       3Cu11pz       3Cu11py       3Cu11px       3Cu12pz       3Cu12py       3Cu12px   
   58    3Cu13pz       3Cu13py       3Cu13px       3Cu1d-2       3Cu1d-1       3Cu1d0        3Cu1d+1       3Cu1d+2       3Cu2d-2       3Cu2d-1   
   59    3Cu2d0        3Cu2d+1       3Cu2d+2       3Cu3d-2       3Cu3d-1       3Cu3d0        3Cu3d+1       3Cu3d+2       3Cu4d-2       3Cu4d-1   
   60    3Cu4d0        3Cu4d+1       3Cu4d+2       3Cu5d-2       3Cu5d-1       3Cu5d0        3Cu5d+1       3Cu5d+2       3Cu6d-2       3Cu6d-1   
   61    3Cu6d0        3Cu6d+1       3Cu6d+2       3Cu7d-2       3Cu7d-1       3Cu7d0        3Cu7d+1       3Cu7d+2       3Cu8d-2       3Cu8d-1   
   62    3Cu8d0        3Cu8d+1       3Cu8d+2       3Cu9d-2       3Cu9d-1       3Cu9d0        3Cu9d+1       3Cu9d+2       3Cu10d-2      3Cu10d-1  
   63    3Cu10d0       3Cu10d+1      3Cu10d+2      3Cu11d-2      3Cu11d-1      3Cu11d0       3Cu11d+1      3Cu11d+2      3Cu1f-3       3Cu1f-2   
   64    3Cu1f-1       3Cu1f0        3Cu1f+1       3Cu1f+2       3Cu1f+3       3Cu2f-3       3Cu2f-2       3Cu2f-1       3Cu2f0        3Cu2f+1   
   65    3Cu2f+2       3Cu2f+3       3Cu3f-3       3Cu3f-2       3Cu3f-1       3Cu3f0        3Cu3f+1       3Cu3f+2       3Cu3f+3       3Cu4f-3   
   66    3Cu4f-2       3Cu4f-1       3Cu4f0        3Cu4f+1       3Cu4f+2       3Cu4f+3       3Cu5f-3       3Cu5f-2       3Cu5f-1       3Cu5f0    
   67    3Cu5f+1       3Cu5f+2       3Cu5f+3       3Cu6f-3       3Cu6f-2       3Cu6f-1       3Cu6f0        3Cu6f+1       3Cu6f+2       3Cu6f+3   
   68    3Cu7f-3       3Cu7f-2       3Cu7f-1       3Cu7f0        3Cu7f+1       3Cu7f+2       3Cu7f+3       3Cu8f-3       3Cu8f-2       3Cu8f-1   
   69    3Cu8f0        3Cu8f+1       3Cu8f+2       3Cu8f+3       3Cu9f-3       3Cu9f-2       3Cu9f-1       3Cu9f0        3Cu9f+1       3Cu9f+2   
   70    3Cu9f+3       3Cu1g-4       3Cu1g-3       3Cu1g-2       3Cu1g-1       3Cu1g0        3Cu1g+1       3Cu1g+2       3Cu1g+3       3Cu1g+4   
   71    3Cu2g-4       3Cu2g-3       3Cu2g-2       3Cu2g-1       3Cu2g0        3Cu2g+1       3Cu2g+2       3Cu2g+3       3Cu2g+4       3Cu3g-4   
   72    3Cu3g-3       3Cu3g-2       3Cu3g-1       3Cu3g0        3Cu3g+1       3Cu3g+2       3Cu3g+3       3Cu3g+4       3Cu4g-4       3Cu4g-3   
   73    3Cu4g-2       3Cu4g-1       3Cu4g0        3Cu4g+1       3Cu4g+2       3Cu4g+3       3Cu4g+4       3Cu5g-4       3Cu5g-3       3Cu5g-2   
   74    3Cu5g-1       3Cu5g0        3Cu5g+1       3Cu5g+2       3Cu5g+3       3Cu5g+4       3Cu1h-5       3Cu1h-4       3Cu1h-3       3Cu1h-2   
   75    3Cu1h-1       3Cu1h0        3Cu1h+1       3Cu1h+2       3Cu1h+3       3Cu1h+4       3Cu1h+5       3Cu2h-5       3Cu2h-4       3Cu2h-3   
   76    3Cu2h-2       3Cu2h-1       3Cu2h0        3Cu2h+1       3Cu2h+2       3Cu2h+3       3Cu2h+4       3Cu2h+5       3Cu3h-5       3Cu3h-4   
   77    3Cu3h-3       3Cu3h-2       3Cu3h-1       3Cu3h0        3Cu3h+1       3Cu3h+2       3Cu3h+3       3Cu3h+4       3Cu3h+5       3Cu1i-6   
   78    3Cu1i-5       3Cu1i-4       3Cu1i-3       3Cu1i-2       3Cu1i-1       3Cu1i0        3Cu1i+1       3Cu1i+2       3Cu1i+3       3Cu1i+4   
   79    3Cu1i+5       3Cu1i+6       4Cu1s         4Cu2s         4Cu3s         4Cu4s         4Cu5s         4Cu6s         4Cu7s         4Cu8s     
   80    4Cu9s         4Cu10s        4Cu11s        4Cu12s        4Cu13s        4Cu14s        4Cu15s        4Cu16s        4Cu1pz        4Cu1py    
   81    4Cu1px        4Cu2pz        4Cu2py        4Cu2px        4Cu3pz        4Cu3py        4Cu3px        4Cu4pz        4Cu4py        4Cu4px    
   82    4Cu5pz        4Cu5py        4Cu5px        4Cu6pz        4Cu6py        4Cu6px        4Cu7pz        4Cu7py        4Cu7px        4Cu8pz    
   83    4Cu8py        4Cu8px        4Cu9pz        4Cu9py        4Cu9px        4Cu10pz       4Cu10py       4Cu10px       4Cu11pz       4Cu11py   
   84    4Cu11px       4Cu12pz       4Cu12py       4Cu12px       4Cu13pz       4Cu13py       4Cu13px       4Cu1d-2       4Cu1d-1       4Cu1d0    
   85    4Cu1d+1       4Cu1d+2       4Cu2d-2       4Cu2d-1       4Cu2d0        4Cu2d+1       4Cu2d+2       4Cu3d-2       4Cu3d-1       4Cu3d0    
   86    4Cu3d+1       4Cu3d+2       4Cu4d-2       4Cu4d-1       4Cu4d0        4Cu4d+1       4Cu4d+2       4Cu5d-2       4Cu5d-1       4Cu5d0    
   87    4Cu5d+1       4Cu5d+2       4Cu6d-2       4Cu6d-1       4Cu6d0        4Cu6d+1       4Cu6d+2       4Cu7d-2       4Cu7d-1       4Cu7d0    
   88    4Cu7d+1       4Cu7d+2       4Cu8d-2       4Cu8d-1       4Cu8d0        4Cu8d+1       4Cu8d+2       4Cu9d-2       4Cu9d-1       4Cu9d0    
   89    4Cu9d+1       4Cu9d+2       4Cu10d-2      4Cu10d-1      4Cu10d0       4Cu10d+1      4Cu10d+2      4Cu11d-2      4Cu11d-1      4Cu11d0   
   90    4Cu11d+1      4Cu11d+2      4Cu1f-3       4Cu1f-2       4Cu1f-1       4Cu1f0        4Cu1f+1       4Cu1f+2       4Cu1f+3       4Cu2f-3   
   91    4Cu2f-2       4Cu2f-1       4Cu2f0        4Cu2f+1       4Cu2f+2       4Cu2f+3       4Cu3f-3       4Cu3f-2       4Cu3f-1       4Cu3f0    
   92    4Cu3f+1       4Cu3f+2       4Cu3f+3       4Cu4f-3       4Cu4f-2       4Cu4f-1       4Cu4f0        4Cu4f+1       4Cu4f+2       4Cu4f+3   
   93    4Cu5f-3       4Cu5f-2       4Cu5f-1       4Cu5f0        4Cu5f+1       4Cu5f+2       4Cu5f+3       4Cu6f-3       4Cu6f-2       4Cu6f-1   
   94    4Cu6f0        4Cu6f+1       4Cu6f+2       4Cu6f+3       4Cu7f-3       4Cu7f-2       4Cu7f-1       4Cu7f0        4Cu7f+1       4Cu7f+2   
   95    4Cu7f+3       4Cu8f-3       4Cu8f-2       4Cu8f-1       4Cu8f0        4Cu8f+1       4Cu8f+2       4Cu8f+3       4Cu9f-3       4Cu9f-2   
   96    4Cu9f-1       4Cu9f0        4Cu9f+1       4Cu9f+2       4Cu9f+3       4Cu1g-4       4Cu1g-3       4Cu1g-2       4Cu1g-1       4Cu1g0    
   97    4Cu1g+1       4Cu1g+2       4Cu1g+3       4Cu1g+4       4Cu2g-4       4Cu2g-3       4Cu2g-2       4Cu2g-1       4Cu2g0        4Cu2g+1   
   98    4Cu2g+2       4Cu2g+3       4Cu2g+4       4Cu3g-4       4Cu3g-3       4Cu3g-2       4Cu3g-1       4Cu3g0        4Cu3g+1       4Cu3g+2   
   99    4Cu3g+3       4Cu3g+4       4Cu4g-4       4Cu4g-3       4Cu4g-2       4Cu4g-1       4Cu4g0        4Cu4g+1       4Cu4g+2       4Cu4g+3   
  100    4Cu4g+4       4Cu5g-4       4Cu5g-3       4Cu5g-2       4Cu5g-1       4Cu5g0        4Cu5g+1       4Cu5g+2       4Cu5g+3       4Cu5g+4   
  101    4Cu1h-5       4Cu1h-4       4Cu1h-3       4Cu1h-2       4Cu1h-1       4Cu1h0        4Cu1h+1       4Cu1h+2       4Cu1h+3       4Cu1h+4   
  102    4Cu1h+5       4Cu2h-5       4Cu2h-4       4Cu2h-3       4Cu2h-2       4Cu2h-1       4Cu2h0        4Cu2h+1       4Cu2h+2       4Cu2h+3   
  103    4Cu2h+4       4Cu2h+5       4Cu3h-5       4Cu3h-4       4Cu3h-3       4Cu3h-2       4Cu3h-1       4Cu3h0        4Cu3h+1       4Cu3h+2   
  104    4Cu3h+3       4Cu3h+4       4Cu3h+5       4Cu1i-6       4Cu1i-5       4Cu1i-4       4Cu1i-3       4Cu1i-2       4Cu1i-1       4Cu1i0    
  105    4Cu1i+1       4Cu1i+2       4Cu1i+3       4Cu1i+4       4Cu1i+5       4Cu1i+6   
 
 Maximum number of basis functions per shell:   63
 Total number of basis functions:   1056
 
 
 Effective core potentials:
 
   1  Cu mcdhf-ecp-10        
   2  Cu mcdhf-ecp-10        
   3  Cu mcdhf-ecp-10        
   4  Cu mcdhf-ecp-10        
 
 Initializing the SAD routines for the initial guess...
 Checking the files required for the initial guess...
 Density files have not been found for the initial guess.
 Generating SCFDENSITIES.Cu.def2-svp.0
 CPU time [min]:     0.120                   Wall time [min]:     0.226
 
 Character table for point group C1:
 
          E  
    A     1
 
 Number of basis functions per irrep:
    A     124
 
 
 Calculation of overlap integrals...
 CPU time [min]:     0.121                   Wall time [min]:     0.226
 
 Calculation of the square root of the overlap matrix...
 Minimum eigenvalue of the overlap matrix: 0.319798E-01
 CPU time [min]:     0.134                   Wall time [min]:     0.227
 
 Calculation of kinetic energy integrals...
 CPU time [min]:     0.135                   Wall time [min]:     0.227
 Calculation of dipole moment integrals...
 CPU time [min]:     0.136                   Wall time [min]:     0.227
 Calculation of nuclear attraction integrals...
 CPU time [min]:     0.139                   Wall time [min]:     0.227
 Calculation of core potential integrals...
 CPU time [min]:     0.254                   Wall time [min]:     0.249
 
 Calculation of prescreening integrals...
 CPU time [min]:     0.532                   Wall time [min]:     0.258
 
 Calculation of two-center Coulomb integrals...
   1% done.
  13% done.
  24% done.
  37% done.
  50% done.
  64% done.
  84% done.
  98% done.
 100% done.
 CPU time [min]:     0.566                   Wall time [min]:     0.259
 
 Cholesky decomposition of the two-center matrix...
 Reciprocal of the condition number:  0.454363E-05
 CPU time [min]:     0.596                   Wall time [min]:     0.259
 
 
 Running small-basis SCF...

 ************************ 2023-10-25 15:39:29 *************************
 Executing scf...

 @scfsetup: integrals calculated directly
            mrcc/integ direct run
 @scfsetup: calculating on full matrices
            not using symmetry adapted basis
 @scfsetup: diis switched on
 @scfsetup: number of steps to extrapolate from  10
 @scfsetup: tolerance in energy deviation    0.100000E-05
            tolerance in density deviation    0.100000E-06
 @scfsetup: maximum number of iterations:  50
 @scfsetup: restricted closed shell hf calc
 @scfsetup: starting scf from superposition of atomic densities
 @scfsetup: occupation set:
            from initial orbitals
 @scfsetup: Parameter-set for SCF acceleration: difficult
 @scfsetup: diis runs from iteration:   2
 @scfsetup: diis runs to iteration:  50
 @scfsetup: diis runs in every iteration
 @scfsetup: diiswatch is disabled                   
 @scfsetup: diis dtol criteria to switch on:      0.0000E+00
           (or the iteration number below is reached)
 @scfsetup: damping is turned off.
 @scfsetup: dynamic level shifting
            tolarance in HOMO-LUMO gap:  0.200
            tolarance in density deviation:     0.0000E+00
            iteration step criteria to turn level shifting off: 8
 Allocation of 1300.0 Gbytes of memory...
 ======================================================================
 ITERATION STEP   1
 CPU time [min]:     0.017                   Wall time [min]:     0.004
 

 SCF control                  : initial
 Damping factor/level shift   : 0.000/0.200
 DIIS [start/end/frequency]   :   2 / 50 /  1

 Constructing Fock-matrix...
 
 Pipek-Mezey localization...
 Step  Convergence
   1  53.486214539410
   2  26.716333339650
   3  13.717349442146
   4   5.284988538502
   5   1.700475353326
   6   0.095657843013
   7   0.000370860202
   8   0.000000004197
 CPU time [min]:     0.043                   Wall time [min]:     0.005
 
 Constructing local fitting domains...
 Maximum number of atoms in fitting domains:    4
 Average number of atoms in fitting domains:    4.0
 
 First step of Coulomb + first step of exchange...
 Exchange contribution is evaluated for MOs 1 to 38.
   1% done.
  13% done.
  25% done.
  38% done.
  56% done.
  75% done.
  89% done.
 100% done.
 CPU time [min]:     0.411                   Wall time [min]:     0.015
 
 Fitting and assembly step of exchange...
 CPU time [min]:     0.419                   Wall time [min]:     0.016
 
 Second step of Coulomb...
   1% done.
  13% done.
  25% done.
  38% done.
  56% done.
  75% done.
  89% done.
 100% done.
 CPU time [min]:     0.467                   Wall time [min]:     0.017
 
 Gradient norm:      4.0815E+00
 RMS of [F,P]:                                         0.07466011527503
 RMS of difference density:                            0.25489566120428
 Gap [au]:  0.00397224
 ALPHA OCC:  38
 BETA  OCC:  38
 
 ***HARTREE-FOCK ENERGY IN STEP   1 IS       -768.6396426508745208 [AU]
 ======================================================================
 ITERATION STEP   2
 CPU time [min]:     0.476                   Wall time [min]:     0.017
 

 SCF control                  : diis
 Damping factor/level shift   : 0.000/0.200
 DIIS [start/end/frequency]   :   2 / 50 /  1

 Constructing Fock-matrix...
 Inverse square root: The matrix is not positive definite!
 
 Pipek-Mezey localization...
 Step  Convergence
   1  41.334536926611
   2  17.267155510341
   3   5.928325800361
   4   2.972803832454
   5   1.147714395660
   6   0.237832232950
   7   0.047781234280
   8   0.043715783072
   9   0.003752519664
  10   0.000910812095
  11   0.000214197582
  12   0.000061095711
  13   0.000016671268
  14   0.000005198281
  15   0.000001623991
  16   0.000000520887
 CPU time [min]:     0.502                   Wall time [min]:     0.018
 
 Constructing local fitting domains...
 Maximum number of atoms in fitting domains:    4
 Average number of atoms in fitting domains:    4.0
 
 First step of Coulomb + first step of exchange...
 Exchange contribution is evaluated for MOs 1 to 38.
   1% done.
  13% done.
  25% done.
  38% done.
  56% done.
  75% done.
  89% done.
 100% done.
 CPU time [min]:     0.655                   Wall time [min]:     0.022
 
 Fitting and assembly step of exchange...
 CPU time [min]:     0.661                   Wall time [min]:     0.022
 
 Second step of Coulomb...
   1% done.
  13% done.
  25% done.
  38% done.
  56% done.
  75% done.
  89% done.
 100% done.
 CPU time [min]:     0.705                   Wall time [min]:     0.024
 
 Gradient norm:      6.0657E+00
 DIIS is running in this iteration step.
 RMS of [F,P]:                                         0.17604334078508
 RMS of difference density:                            0.25307467341662
 Gap [au]:  0.03251003
 ALPHA OCC:  38
 BETA  OCC:  38
 
 ***HARTREE-FOCK ENERGY IN STEP   2 IS       -739.5985399665360092 [AU]
 
 Step comparison  Energy Drift [au]  DIIS error drift  Gradient drift
        1           -2.9041E+01        -1.0138E-01      -1.9843E+00
        2            7.3960E+02         1.0000E-07      -1.9843E+00
 Warning! The energy goes uphill (with respect to previous step).
 Warning! The gradient goes uphill (with respect to previous step).
 Warning! The gradient goes uphill (with respect to step   1 ).
 ======================================================================
 ITERATION STEP   3
 CPU time [min]:     0.714                   Wall time [min]:     0.024
 

 SCF control                  : diis
 Damping factor/level shift   : 0.000/0.200
 DIIS [start/end/frequency]   :   2 / 50 /  1

 Constructing Fock-matrix...
 Inverse square root: The matrix is not positive definite!
 
 Pipek-Mezey localization...
 Step  Convergence
   1  23.257793537085
   2  10.657018557183
   3   4.561974991600
   4   1.648162464048
   5   0.156819028272
   6   0.000704004884
   7   0.000000070627
 CPU time [min]:     0.737                   Wall time [min]:     0.025
 
 Constructing local fitting domains...
 Local fitting domains are unchanged.
 
 First step of Coulomb + first step of exchange...
 Exchange contribution is evaluated for MOs 1 to 38.
   1% done.
  13% done.
  25% done.
  38% done.
  56% done.
  75% done.
  89% done.
 100% done.
 CPU time [min]:     0.883                   Wall time [min]:     0.029
 
 Fitting and assembly step of exchange...
 CPU time [min]:     0.888                   Wall time [min]:     0.029
 
 Second step of Coulomb...
   1% done.
  13% done.
  25% done.
  38% done.
  56% done.
  75% done.
  89% done.
 100% done.
 CPU time [min]:     0.932                   Wall time [min]:     0.030
 
 Gradient norm:      2.4342E+00
 DIIS is running in this iteration step.
 RMS of [F,P]:                                         0.10255414954494
 RMS of difference density:                            0.03748370634493
 Gap [au]:  0.10408224
 ALPHA OCC:  38
 BETA  OCC:  38
 
 ***HARTREE-FOCK ENERGY IN STEP   3 IS       -764.5976195975131304 [AU]
 
 Step comparison  Energy Drift [au]  DIIS error drift  Gradient drift
        2            2.4999E+01         7.3489E-02       3.6316E+00
 ======================================================================
 ITERATION STEP   4
 CPU time [min]:     0.940                   Wall time [min]:     0.030
 

 SCF control                  : diis
 Damping factor/level shift   : 0.000/0.200
 DIIS [start/end/frequency]   :   2 / 50 /  1

 Constructing Fock-matrix...
 
 Pipek-Mezey localization...
 Step  Convergence
   1   4.189531672829
   2   4.988707644230
   3   0.526337012672
   4   0.005275267067
   5   0.000000572488
 CPU time [min]:     0.961                   Wall time [min]:     0.031
 
 Constructing local fitting domains...
 Local fitting domains are unchanged.
 
 First step of Coulomb + first step of exchange...
 Exchange contribution is evaluated for MOs 1 to 38.
   1% done.
  13% done.
  25% done.
  38% done.
  56% done.
  75% done.
  89% done.
 100% done.
 CPU time [min]:     1.108                   Wall time [min]:     0.035
 
 Fitting and assembly step of exchange...
 CPU time [min]:     1.113                   Wall time [min]:     0.035
 
 Second step of Coulomb...
   1% done.
  13% done.
  25% done.
  38% done.
  56% done.
  75% done.
  89% done.
 100% done.
 CPU time [min]:     1.157                   Wall time [min]:     0.037
 
 Gradient norm:      1.1241E+00
 DIIS is running in this iteration step.
 RMS of [F,P]:                                         0.03143903506090
 RMS of difference density:                            0.01900357370406
 Gap [au]:  0.12197440
 ALPHA OCC:  38
 BETA  OCC:  38
 
 ***HARTREE-FOCK ENERGY IN STEP   4 IS       -775.7336556078523699 [AU]
 
 Step comparison  Energy Drift [au]  DIIS error drift  Gradient drift
        3            1.1136E+01         7.1115E-02       1.3100E+00
 ======================================================================
 ITERATION STEP   5
 CPU time [min]:     1.165                   Wall time [min]:     0.037
 

 SCF control                  : diis
 Damping factor/level shift   : 0.000/0.200
 DIIS [start/end/frequency]   :   2 / 50 /  1

 Constructing Fock-matrix...
 
 Pipek-Mezey localization...
 Step  Convergence
   1   9.487678373394
   2   5.206836572475
   3   0.452924725221
   4   0.001973503876
   5   0.000005070908
   6   0.000000000473
 CPU time [min]:     1.187                   Wall time [min]:     0.037
 
 Constructing local fitting domains...
 Local fitting domains are unchanged.
 
 First step of Coulomb + first step of exchange...
 Exchange contribution is evaluated for MOs 1 to 38.
   1% done.
  13% done.
  25% done.
  38% done.
  56% done.
  75% done.
  89% done.
 100% done.
 CPU time [min]:     1.334                   Wall time [min]:     0.042
 
 Fitting and assembly step of exchange...
 CPU time [min]:     1.339                   Wall time [min]:     0.042
 
 Second step of Coulomb...
   1% done.
  13% done.
  25% done.
  38% done.
  56% done.
  75% done.
  89% done.
 100% done.
 CPU time [min]:     1.384                   Wall time [min]:     0.043
 
 Gradient norm:      2.8616E-01
 DIIS is running in this iteration step.
 RMS of [F,P]:                                         0.00483837859672
 RMS of difference density:                            0.01053550889492
 Gap [au]:  0.13916983
 ALPHA OCC:  38
 BETA  OCC:  38
 
 ***HARTREE-FOCK ENERGY IN STEP   5 IS       -776.9259426311432435 [AU]
 
 Step comparison  Energy Drift [au]  DIIS error drift  Gradient drift
        4            1.1923E+00         2.6601E-02       8.3796E-01
 ======================================================================
 ITERATION STEP   6
 CPU time [min]:     1.392                   Wall time [min]:     0.043
 

 SCF control                  : diis
 Damping factor/level shift   : 0.000/0.200
 DIIS [start/end/frequency]   :   2 / 50 /  1

 Constructing Fock-matrix...
 
 Pipek-Mezey localization...
 Step  Convergence
   1  13.371928796129
   2   1.943024658428
   3   0.027487318805
   4   0.000005650783
   5   0.000000009751
 CPU time [min]:     1.413                   Wall time [min]:     0.044
 
 Constructing local fitting domains...
 Local fitting domains are unchanged.
 
 First step of Coulomb + first step of exchange...
 Exchange contribution is evaluated for MOs 1 to 38.
   1% done.
  13% done.
  25% done.
  38% done.
  56% done.
  75% done.
  89% done.
 100% done.
 CPU time [min]:     1.559                   Wall time [min]:     0.048
 
 Fitting and assembly step of exchange...
 CPU time [min]:     1.565                   Wall time [min]:     0.048
 
 Second step of Coulomb...
   1% done.
  13% done.
  25% done.
  38% done.
  56% done.
  75% done.
  89% done.
 100% done.
 CPU time [min]:     1.609                   Wall time [min]:     0.049
 
 Gradient norm:      1.4284E-01
 DIIS is running in this iteration step.
 RMS of [F,P]:                                         0.00152010463244
 RMS of difference density:                            0.00492033125260
 Gap [au]:  0.15303288
 ALPHA OCC:  38
 BETA  OCC:  38
 
 ***HARTREE-FOCK ENERGY IN STEP   6 IS       -777.0016348697536159 [AU]
 
 Step comparison  Energy Drift [au]  DIIS error drift  Gradient drift
        5            7.5692E-02         3.3183E-03       1.4332E-01
 ======================================================================
 ITERATION STEP   7
 CPU time [min]:     1.617                   Wall time [min]:     0.050
 

 SCF control                  : diis
 Damping factor/level shift   : 0.000/0.200
 DIIS [start/end/frequency]   :   2 / 50 /  1

 Constructing Fock-matrix...
 
 Pipek-Mezey localization...
 Step  Convergence
   1  20.635803158484
   2   3.262840746990
   3   0.253905024876
   4   0.209373623538
   5   0.044818194455
   6   0.000022401542
   7   0.000000031452
 CPU time [min]:     1.639                   Wall time [min]:     0.050
 
 Constructing local fitting domains...
 Local fitting domains are unchanged.
 
 First step of Coulomb + first step of exchange...
 Exchange contribution is evaluated for MOs 1 to 38.
   1% done.
  13% done.
  25% done.
  38% done.
  56% done.
  75% done.
  89% done.
 100% done.
 CPU time [min]:     1.787                   Wall time [min]:     0.054
 
 Fitting and assembly step of exchange...
 CPU time [min]:     1.792                   Wall time [min]:     0.055
 
 Second step of Coulomb...
   1% done.
  13% done.
  25% done.
  38% done.
  56% done.
  75% done.
  89% done.
 100% done.
 CPU time [min]:     1.836                   Wall time [min]:     0.056
 
 Gradient norm:      8.2537E-02
 DIIS is running in this iteration step.
 RMS of [F,P]:                                         0.00097288700453
 RMS of difference density:                            0.00315506534080
 Gap [au]:  0.15792591
 ALPHA OCC:  38
 BETA  OCC:  38
 
 ***HARTREE-FOCK ENERGY IN STEP   7 IS       -777.0156771877909705 [AU]
 
 Step comparison  Energy Drift [au]  DIIS error drift  Gradient drift
        6            1.4042E-02         5.4722E-04       6.0306E-02
 ======================================================================
 ITERATION STEP   8
 CPU time [min]:     1.844                   Wall time [min]:     0.056
 

 SCF control                  : diis
 Damping factor/level shift   : 0.000/0.200
 DIIS [start/end/frequency]   :   2 / 50 /  1

 Constructing Fock-matrix...
 
 Pipek-Mezey localization...
 Step  Convergence
   1  16.377031122710
   2   4.382251157979
   3   4.561826637266
   4   3.049627992365
   5   0.367827896297
   6   0.030638156278
   7   0.018195696260
   8   0.002239140989
   9   0.000500051932
  10   0.000116831477
  11   0.000028894556
  12   0.000007241703
  13   0.000001846723
  14   0.000000480940
  15   0.000000126250
  16   0.000000033569
  17   0.000000009078
 CPU time [min]:     1.870                   Wall time [min]:     0.057
 
 Constructing local fitting domains...
 Local fitting domains are unchanged.
 
 First step of Coulomb + first step of exchange...
 Exchange contribution is evaluated for MOs 1 to 38.
   1% done.
  13% done.
  25% done.
  38% done.
  56% done.
  75% done.
  89% done.
 100% done.
 CPU time [min]:     2.018                   Wall time [min]:     0.061
 
 Fitting and assembly step of exchange...
 CPU time [min]:     2.023                   Wall time [min]:     0.061
 
 Second step of Coulomb...
   1% done.
  13% done.
  25% done.
  38% done.
  56% done.
  75% done.
  89% done.
 100% done.
 CPU time [min]:     2.067                   Wall time [min]:     0.062
 
 Gradient norm:      4.7330E-02
 DIIS is running in this iteration step.
 RMS of [F,P]:                                         0.00045227393362
 RMS of difference density:                            0.00181635947206
 Gap [au]:  0.15734269
 ALPHA OCC:  38
 BETA  OCC:  38
 
 ***HARTREE-FOCK ENERGY IN STEP   8 IS       -777.0211853518183034 [AU]
 
 Step comparison  Energy Drift [au]  DIIS error drift  Gradient drift
        7            5.5082E-03         5.2061E-04       3.5207E-02
 ======================================================================
 ITERATION STEP   9
 CPU time [min]:     2.146                   Wall time [min]:     0.065
 

 SCF control                  : diis
 Damping factor/level shift   : 0.000/0.000
 DIIS [start/end/frequency]   :   2 / 50 /  1

 Constructing Fock-matrix...
 
 Pipek-Mezey localization...
 Step  Convergence
   1  22.069738116665
   2   6.480046336999
   3   7.819891161237
   4   3.484581573115
   5   1.107993417156
   6   0.040964061532
   7   0.001507097503
   8   0.000190392402
   9   0.000022127503
  10   0.000001675021
  11   0.000000132845
  12   0.000000010322
  13   0.000000000849
 CPU time [min]:     2.172                   Wall time [min]:     0.066
 
 Constructing local fitting domains...
 Local fitting domains are unchanged.
 
 First step of Coulomb + first step of exchange...
 Exchange contribution is evaluated for MOs 1 to 38.
   1% done.
  13% done.
  25% done.
  38% done.
  56% done.
  75% done.
  89% done.
 100% done.
 CPU time [min]:     2.319                   Wall time [min]:     0.070
 
 Fitting and assembly step of exchange...
 CPU time [min]:     2.324                   Wall time [min]:     0.070
 
 Second step of Coulomb...
   1% done.
  13% done.
  25% done.
  38% done.
  56% done.
  75% done.
  89% done.
 100% done.
 CPU time [min]:     2.368                   Wall time [min]:     0.071
 
 Gradient norm:      2.5173E-02
 DIIS is running in this iteration step.
 RMS of [F,P]:                                         0.00021384146171
 RMS of difference density:                            0.00207495353966
 Gap [au]:  0.15596112
 ALPHA OCC:  38
 BETA  OCC:  38
 
 ***HARTREE-FOCK ENERGY IN STEP   9 IS       -777.0228287799827740 [AU]
 
 Step comparison  Energy Drift [au]  DIIS error drift  Gradient drift
        8            1.6434E-03         2.3843E-04       2.2157E-02
 ======================================================================
 ITERATION STEP  10
 CPU time [min]:     2.377                   Wall time [min]:     0.071
 

 SCF control                  : diis
 Damping factor/level shift   : 0.000/0.000
 DIIS [start/end/frequency]   :   2 / 50 /  1

 Constructing Fock-matrix...
 
 Pipek-Mezey localization...
 Step  Convergence
   1  20.417561225423
   2  10.983226861274
   3   9.374404139288
   4   5.829013969644
   5   3.157505162526
   6   1.043955091335
   7   0.073668782437
   8   0.014898259676
   9   0.000614922457
  10   0.000160526148
  11   0.000013336393
  12   0.000002967632
  13   0.000000393781
  14   0.000000080378
  15   0.000000013765
  16   0.000000002738
  17   0.000000000526
  18   0.000000000117
  19   0.000000000019
 CPU time [min]:     2.404                   Wall time [min]:     0.072
 
 Constructing local fitting domains...
 Local fitting domains are unchanged.
 
 First step of Coulomb + first step of exchange...
 Exchange contribution is evaluated for MOs 1 to 38.
   1% done.
  13% done.
  25% done.
  38% done.
  56% done.
  75% done.
  89% done.
 100% done.
 CPU time [min]:     2.551                   Wall time [min]:     0.076
 
 Fitting and assembly step of exchange...
 CPU time [min]:     2.557                   Wall time [min]:     0.077
 
 Second step of Coulomb...
   1% done.
  13% done.
  25% done.
  38% done.
  56% done.
  75% done.
  89% done.
 100% done.
 CPU time [min]:     2.601                   Wall time [min]:     0.078
 
 Gradient norm:      1.7813E-03
 DIIS is running in this iteration step.
 RMS of [F,P]:                                         0.00004039684691
 RMS of difference density:                            0.00018702707489
 Gap [au]:  0.15546716
 ALPHA OCC:  38
 BETA  OCC:  38
 
 ***HARTREE-FOCK ENERGY IN STEP  10 IS       -777.0235305412716116 [AU]
 
 Step comparison  Energy Drift [au]  DIIS error drift  Gradient drift
        9            7.0176E-04         1.7344E-04       2.3392E-02
 ======================================================================
 ITERATION STEP  11
 CPU time [min]:     2.609                   Wall time [min]:     0.078
 

 SCF control                  : diis
 Damping factor/level shift   : 0.000/0.000
 DIIS [start/end/frequency]   :   2 / 50 /  1

 Constructing Fock-matrix...
 
 Pipek-Mezey localization...
 Step  Convergence
   1  27.719628377784
   2  14.399456333202
   3  10.709299365439
   4   7.891574115945
   5   3.028935558804
   6   0.215129203664
   7   0.020041268054
   8   0.000371217658
   9   0.000102703674
  10   0.000002611777
  11   0.000001134736
  12   0.000000024854
  13   0.000000012780
  14   0.000000000279
  15   0.000000000144
  16   0.000000000003
  17   0.000000000002
  18   0.000000000000
 CPU time [min]:     2.636                   Wall time [min]:     0.079
 
 Constructing local fitting domains...
 Local fitting domains are unchanged.
 
 First step of Coulomb + first step of exchange...
 Exchange contribution is evaluated for MOs 1 to 38.
   1% done.
  13% done.
  25% done.
  38% done.
  56% done.
  75% done.
  89% done.
 100% done.
 CPU time [min]:     2.782                   Wall time [min]:     0.083
 
 Fitting and assembly step of exchange...
 CPU time [min]:     2.787                   Wall time [min]:     0.083
 
 Second step of Coulomb...
   1% done.
  13% done.
  25% done.
  38% done.
  56% done.
  75% done.
  89% done.
 100% done.
 CPU time [min]:     2.831                   Wall time [min]:     0.084
 
 Gradient norm:      8.4477E-04
 DIIS is running in this iteration step.
 RMS of [F,P]:                                         0.00001391701370
 RMS of difference density:                            0.00007880307829
 Gap [au]:  0.15546368
 ALPHA OCC:  38
 BETA  OCC:  38
 
 ***HARTREE-FOCK ENERGY IN STEP  11 IS       -777.0235465517864668 [AU]
 
 Step comparison  Energy Drift [au]  DIIS error drift  Gradient drift
       10            1.6011E-05         2.6480E-05       9.3652E-04
 ======================================================================
 ITERATION STEP  12
 CPU time [min]:     2.839                   Wall time [min]:     0.085
 

 SCF control                  : diis
 Damping factor/level shift   : 0.000/0.000
 DIIS [start/end/frequency]   :   2 / 50 /  1

 Constructing Fock-matrix...
 
 Pipek-Mezey localization...
 Step  Convergence
   1  24.022136301852
   2   7.098134882580
   3  12.286487555219
   4   7.014263434371
   5   3.542877166348
   6   0.442306891426
   7   0.045526138192
   8   0.002015150998
   9   0.000316956504
  10   0.000030067520
  11   0.000004374993
  12   0.000000418900
  13   0.000000058737
  14   0.000000005641
  15   0.000000000792
  16   0.000000000075
  17   0.000000000010
  18   0.000000000001
 CPU time [min]:     2.866                   Wall time [min]:     0.085
 
 Constructing local fitting domains...
 Local fitting domains are unchanged.
 
 First step of Coulomb + first step of exchange...
 Exchange contribution is evaluated for MOs 1 to 38.
   1% done.
  13% done.
  25% done.
  38% done.
  56% done.
  75% done.
  89% done.
 100% done.
 CPU time [min]:     3.012                   Wall time [min]:     0.089
 
 Fitting and assembly step of exchange...
 CPU time [min]:     3.017                   Wall time [min]:     0.090
 
 Second step of Coulomb...
   1% done.
  13% done.
  25% done.
  38% done.
  56% done.
  75% done.
  89% done.
 100% done.
 CPU time [min]:     3.061                   Wall time [min]:     0.091
 
 Gradient norm:      6.8558E-04
 DIIS is running in this iteration step.
 RMS of [F,P]:                                         0.00000747886752
 RMS of difference density:                            0.00005336719454
 Gap [au]:  0.15543640
 ALPHA OCC:  38
 BETA  OCC:  38
 
 ***HARTREE-FOCK ENERGY IN STEP  12 IS       -777.0235499931691265 [AU]
 
 Step comparison  Energy Drift [au]  DIIS error drift  Gradient drift
       11            3.4414E-06         6.4381E-06       1.5919E-04
 ======================================================================
 ITERATION STEP  13
 CPU time [min]:     3.070                   Wall time [min]:     0.091
 

 SCF control                  : diis
 Damping factor/level shift   : 0.000/0.000
 DIIS [start/end/frequency]   :   2 / 50 /  1

 Constructing Fock-matrix...
 
 Pipek-Mezey localization...
 Step  Convergence
   1  19.641472184928
   2   8.875710190542
   3  11.060341708796
   4   9.350447874814
   5   5.140584780562
   6   0.977463576103
   7   0.023854761309
   8   0.001848279531
   9   0.000138714184
  10   0.000016923209
  11   0.000001620055
  12   0.000000219437
  13   0.000000022212
  14   0.000000002714
  15   0.000000000302
  16   0.000000000036
  17   0.000000000004
  18   0.000000000000
 CPU time [min]:     3.096                   Wall time [min]:     0.092
 
 Constructing local fitting domains...
 Local fitting domains are unchanged.
 
 First step of Coulomb + first step of exchange...
 Exchange contribution is evaluated for MOs 1 to 38.
   1% done.
  13% done.
  25% done.
  38% done.
  56% done.
  75% done.
  89% done.
 100% done.
 CPU time [min]:     3.244                   Wall time [min]:     0.096
 
 Fitting and assembly step of exchange...
 CPU time [min]:     3.249                   Wall time [min]:     0.096
 
 Second step of Coulomb...
   1% done.
  13% done.
  25% done.
  38% done.
  56% done.
  75% done.
  89% done.
 100% done.
 CPU time [min]:     3.294                   Wall time [min]:     0.097
 
 Gradient norm:      5.6953E-04
 DIIS is running in this iteration step.
 RMS of [F,P]:                                         0.00000564407463
 RMS of difference density:                            0.00003342147387
 Gap [au]:  0.15542300
 ALPHA OCC:  38
 BETA  OCC:  38
 
 ***HARTREE-FOCK ENERGY IN STEP  13 IS       -777.0235514101821082 [AU]
 
 Step comparison  Energy Drift [au]  DIIS error drift  Gradient drift
       12            1.4170E-06         1.8348E-06       1.1605E-04
 ======================================================================
 ITERATION STEP  14
 CPU time [min]:     3.387                   Wall time [min]:     0.101
 

 SCF control                  : diis
 Damping factor/level shift   : 0.000/0.000
 DIIS [start/end/frequency]   :   2 / 50 /  1

 Constructing Fock-matrix...
 
 Pipek-Mezey localization...
 Step  Convergence
   1  20.943827375957
   2   4.940298676722
   3   8.498830532868
   4   3.490637521292
   5   0.883602470207
   6   0.033537016278
   7   0.000494363160
   8   0.000041159704
   9   0.000004285078
  10   0.000000440991
  11   0.000000049612
  12   0.000000005917
  13   0.000000000619
  14   0.000000000082
  15   0.000000000008
  16   0.000000000001
 CPU time [min]:     3.413                   Wall time [min]:     0.102
 
 Constructing local fitting domains...
 Local fitting domains are unchanged.
 
 First step of Coulomb + first step of exchange...
 Exchange contribution is evaluated for MOs 1 to 38.
   1% done.
  13% done.
  25% done.
  38% done.
  56% done.
  75% done.
  89% done.
 100% done.
 CPU time [min]:     3.559                   Wall time [min]:     0.106
 
 Fitting and assembly step of exchange...
 CPU time [min]:     3.565                   Wall time [min]:     0.106
 
 Second step of Coulomb...
   1% done.
  13% done.
  25% done.
  38% done.
  56% done.
  75% done.
  89% done.
 100% done.
 CPU time [min]:     3.609                   Wall time [min]:     0.107
 
 Gradient norm:      4.9482E-04
 DIIS is running in this iteration step.
 RMS of [F,P]:                                         0.00000427294255
 RMS of difference density:                            0.00006001145970
 Gap [au]:  0.15541703
 ALPHA OCC:  38
 BETA  OCC:  38
 
 ***HARTREE-FOCK ENERGY IN STEP  14 IS       -777.0235521137228716 [AU]
 
 Step comparison  Energy Drift [au]  DIIS error drift  Gradient drift
       13            7.0354E-07         1.3711E-06       7.4715E-05
 ======================================================================
 ITERATION STEP  15
 CPU time [min]:     3.617                   Wall time [min]:     0.107
 

 SCF control                  : diis
 Damping factor/level shift   : 0.000/0.000
 DIIS [start/end/frequency]   :   2 / 50 /  1

 Constructing Fock-matrix...
 
 Pipek-Mezey localization...
 Step  Convergence
   1  22.943917334672
   2   7.164933604217
   3   9.204115577755
   4   6.062738857352
   5   2.677518788960
   6   0.275232740703
   7   0.017268180331
   8   0.002363155465
   9   0.000122633867
  10   0.000021054623
  11   0.000001541467
  12   0.000000227100
  13   0.000000020460
  14   0.000000002832
  15   0.000000000276
  16   0.000000000035
  17   0.000000000004
  18   0.000000000000
 CPU time [min]:     3.643                   Wall time [min]:     0.108
 
 Constructing local fitting domains...
 Local fitting domains are unchanged.
 
 First step of Coulomb + first step of exchange...
 Exchange contribution is evaluated for MOs 1 to 38.
   1% done.
  13% done.
  25% done.
  38% done.
  56% done.
  75% done.
  89% done.
 100% done.
 CPU time [min]:     3.799                   Wall time [min]:     0.112
 
 Fitting and assembly step of exchange...
 CPU time [min]:     3.805                   Wall time [min]:     0.113
 
 Second step of Coulomb...
   1% done.
  13% done.
  25% done.
  38% done.
  56% done.
  75% done.
  89% done.
 100% done.
 CPU time [min]:     3.850                   Wall time [min]:     0.114
 
 Gradient norm:      3.5715E-04
 DIIS is running in this iteration step.
 RMS of [F,P]:                                         0.00000297562184
 RMS of difference density:                            0.00009923143632
 Gap [au]:  0.15543666
 ALPHA OCC:  38
 BETA  OCC:  38
 
 ***HARTREE-FOCK ENERGY IN STEP  15 IS       -777.0235531010951036 [AU]
 
 Step comparison  Energy Drift [au]  DIIS error drift  Gradient drift
       14            9.8737E-07         1.2973E-06       1.3766E-04
 ======================================================================
 ITERATION STEP  16
 CPU time [min]:     3.859                   Wall time [min]:     0.114
 

 SCF control                  : diis
 Damping factor/level shift   : 0.000/0.000
 DIIS [start/end/frequency]   :   2 / 50 /  1

 Constructing Fock-matrix...
 
 Pipek-Mezey localization...
 Step  Convergence
   1  20.656090832404
   2   8.417157650998
   3   8.040097343321
   4   6.834107438626
   5   3.338208469008
   6   0.870366766351
   7   0.128555814308
   8   0.006232321747
   9   0.001163565291
  10   0.000107835390
  11   0.000169234242
  12   0.000080512645
  13   0.000002343106
  14   0.000000916153
  15   0.000000153208
  16   0.000000564312
  17   0.000000223000
  18   0.000000005862
  19   0.000000002524
  20   0.000000000083
  21   0.000000000029
  22   0.000000000001
  23   0.000000000000
 CPU time [min]:     3.889                   Wall time [min]:     0.115
 
 Constructing local fitting domains...
 Local fitting domains are unchanged.
 
 First step of Coulomb + first step of exchange...
 Exchange contribution is evaluated for MOs 1 to 38.
   1% done.
  13% done.
  25% done.
  38% done.
  56% done.
  75% done.
  89% done.
 100% done.
 CPU time [min]:     4.042                   Wall time [min]:     0.119
 
 Fitting and assembly step of exchange...
 CPU time [min]:     4.048                   Wall time [min]:     0.120
 
 Second step of Coulomb...
   1% done.
  13% done.
  25% done.
  38% done.
  56% done.
  75% done.
  89% done.
 100% done.
 CPU time [min]:     4.093                   Wall time [min]:     0.121
 
 Gradient norm:      1.2969E-04
 DIIS is running in this iteration step.
 RMS of [F,P]:                                         0.00000134339389
 RMS of difference density:                            0.00004594873113
 Gap [au]:  0.15543050
 ALPHA OCC:  38
 BETA  OCC:  38
 
 ***HARTREE-FOCK ENERGY IN STEP  16 IS       -777.0235540262096947 [AU]
 
 Step comparison  Energy Drift [au]  DIIS error drift  Gradient drift
       15            9.2511E-07         1.6322E-06       2.2746E-04
 ======================================================================
 ITERATION STEP  17
 CPU time [min]:     4.102                   Wall time [min]:     0.121
 

 SCF control                  : diis
 Damping factor/level shift   : 0.000/0.000
 DIIS [start/end/frequency]   :   2 / 50 /  1

 Constructing Fock-matrix...
 
 Pipek-Mezey localization...
 Step  Convergence
   1  22.936806357616
   2   9.622106857335
   3   7.431406240137
   4   3.779442964518
   5   0.610135716227
   6   0.012927961955
   7   0.000829016812
   8   0.000077352888
   9   0.000006664370
  10   0.000000701742
  11   0.000000073754
  12   0.000000007879
  13   0.000000000867
  14   0.000000000097
  15   0.000000000011
  16   0.000000000001
  17   0.000000000000
 CPU time [min]:     4.129                   Wall time [min]:     0.122
 
 Constructing local fitting domains...
 Local fitting domains are unchanged.
 
 First step of Coulomb + first step of exchange...
 Exchange contribution is evaluated for MOs 1 to 38.
   1% done.
  13% done.
  25% done.
  38% done.
  56% done.
  75% done.
  89% done.
 100% done.
 CPU time [min]:     4.282                   Wall time [min]:     0.126
 
 Fitting and assembly step of exchange...
 CPU time [min]:     4.288                   Wall time [min]:     0.126
 
 Second step of Coulomb...
   1% done.
  13% done.
  25% done.
  38% done.
  56% done.
  75% done.
  89% done.
 100% done.
 CPU time [min]:     4.337                   Wall time [min]:     0.128
 
 Gradient norm:      2.5217E-05
 DIIS is running in this iteration step.
 RMS of [F,P]:                                         0.00000052062389
 RMS of difference density:                            0.00000635818338
 Gap [au]:  0.15542824
 ALPHA OCC:  38
 BETA  OCC:  38
 
 ***HARTREE-FOCK ENERGY IN STEP  17 IS       -777.0235541656502392 [AU]
 
 Step comparison  Energy Drift [au]  DIIS error drift  Gradient drift
       16            1.3944E-07         8.2277E-07       1.0448E-04
 ======================================================================
 ITERATION STEP  18
 CPU time [min]:     4.346                   Wall time [min]:     0.128
 

 SCF control                  : diis
 Damping factor/level shift   : 0.000/0.000
 DIIS [start/end/frequency]   :   2 / 50 /  1

 Constructing Fock-matrix...
 
 Pipek-Mezey localization...
 Step  Convergence
   1  18.187239962519
   2   5.975996927102
   3   9.936383264540
   4   4.573254579859
   5   1.067985761244
   6   0.120744079849
   7   0.001450848044
   8   0.000178332646
   9   0.000003548840
  10   0.000001416222
  11   0.000000031743
  12   0.000000012638
  13   0.000000000382
  14   0.000000000111
  15   0.000000000005
  16   0.000000000001
 CPU time [min]:     4.372                   Wall time [min]:     0.129
 
 Constructing local fitting domains...
 Local fitting domains are unchanged.
 
 First step of Coulomb + first step of exchange...
 Exchange contribution is evaluated for MOs 1 to 38.
   1% done.
  13% done.
  25% done.
  38% done.
  56% done.
  75% done.
  89% done.
 100% done.
 CPU time [min]:     4.525                   Wall time [min]:     0.133
 
 Fitting and assembly step of exchange...
 CPU time [min]:     4.531                   Wall time [min]:     0.133
 
 Second step of Coulomb...
   1% done.
  13% done.
  25% done.
  38% done.
  56% done.
  75% done.
  89% done.
 100% done.
 CPU time [min]:     4.576                   Wall time [min]:     0.134
 
 Gradient norm:      1.1712E-05
 DIIS is running in this iteration step.
 RMS of [F,P]:                                         0.00000038729396
 RMS of difference density:                            0.00000279385966
 Gap [au]:  0.15542802
 ALPHA OCC:  38
 BETA  OCC:  38
 
 ***HARTREE-FOCK ENERGY IN STEP  18 IS       -777.0235541711556380 [AU]
 
 Step comparison  Energy Drift [au]  DIIS error drift  Gradient drift
       17            5.5054E-09         1.3333E-07       1.3505E-05
 ======================================================================
 ITERATION STEP  19
 CPU time [min]:     4.627                   Wall time [min]:     0.136
 

 SCF control                  : diis
 Damping factor/level shift   : 0.000/0.000
 DIIS [start/end/frequency]   :   2 / 50 /  1

 Constructing Fock-matrix...
 
 Pipek-Mezey localization...
 Step  Convergence
   1  22.576047031289
   2   9.109495912017
   3   9.003336985400
   4   4.309344206779
   5   1.053075161025
   6   0.182450965509
   7   0.015833014280
   8   0.001054931726
   9   0.000048795808
  10   0.000007069825
  11   0.000000654165
  12   0.000000067111
  13   0.000000008789
  14   0.000000000893
  15   0.000000000122
  16   0.000000000012
  17   0.000000000002
  18   0.000000000000
 CPU time [min]:     4.654                   Wall time [min]:     0.137
 
 Constructing local fitting domains...
 Local fitting domains are unchanged.
 
 First step of Coulomb + first step of exchange...
 Exchange contribution is evaluated for MOs 1 to 38.
   1% done.
  13% done.
  25% done.
  38% done.
  56% done.
  75% done.
  89% done.
 100% done.
 CPU time [min]:     4.814                   Wall time [min]:     0.141
 
 Fitting and assembly step of exchange...
 CPU time [min]:     4.820                   Wall time [min]:     0.142
 
 Second step of Coulomb...
   1% done.
  13% done.
  25% done.
  38% done.
  56% done.
  75% done.
  89% done.
 100% done.
 CPU time [min]:     4.866                   Wall time [min]:     0.143
 
 Gradient norm:      4.4412E-06
 DIIS is running in this iteration step.
 RMS of [F,P]:                                         0.00000010855055
 RMS of difference density:                            0.00000135754242
 Gap [au]:  0.15542785
 ALPHA OCC:  38
 BETA  OCC:  38
 
 ***HARTREE-FOCK ENERGY IN STEP  19 IS       -777.0235541722888684 [AU]
 
 Step comparison  Energy Drift [au]  DIIS error drift  Gradient drift
       18            1.1332E-09         2.7874E-07       7.2707E-06
 ======================================================================
 ITERATION STEP  20
 CPU time [min]:     4.874                   Wall time [min]:     0.143
 

 SCF control                  : diis
 Damping factor/level shift   : 0.000/0.000
 DIIS [start/end/frequency]   :   2 / 50 /  1

 Constructing Fock-matrix...
 
 Pipek-Mezey localization...
 Step  Convergence
   1  20.990435915717
   2   7.131245270026
   3   8.876959878462
   4   5.209175584385
   5   3.803810905343
   6   0.594644134099
   7   0.023756701476
   8   0.002046140149
   9   0.000081120978
  10   0.000022671062
  11   0.000001095345
  12   0.000000269439
  13   0.000000016460
  14   0.000000003348
  15   0.000000000239
  16   0.000000000042
  17   0.000000000003
  18   0.000000000000
 CPU time [min]:     4.902                   Wall time [min]:     0.144
 
 Constructing local fitting domains...
 Local fitting domains are unchanged.
 
 First step of Coulomb + first step of exchange...
 Exchange contribution is evaluated for MOs 1 to 38.
   1% done.
  13% done.
  25% done.
  38% done.
  56% done.
  75% done.
  89% done.
 100% done.
 CPU time [min]:     5.060                   Wall time [min]:     0.148
 
 Fitting and assembly step of exchange...
 CPU time [min]:     5.065                   Wall time [min]:     0.149
 
 Second step of Coulomb...
   1% done.
  13% done.
  25% done.
  38% done.
  56% done.
  75% done.
  89% done.
 100% done.
 CPU time [min]:     5.111                   Wall time [min]:     0.150
 
 Gradient norm:      2.1155E-06
 DIIS is running in this iteration step.
 RMS of [F,P]:                                         0.00000003538936
 RMS of difference density:                            0.00000013794406
 Gap [au]:  0.15542776
 ALPHA OCC:  38
 BETA  OCC:  38
 
 ***HARTREE-FOCK ENERGY IN STEP  20 IS       -777.0235541724614450 [AU]
 
 Step comparison  Energy Drift [au]  DIIS error drift  Gradient drift
       19            1.7258E-10         7.3161E-08       2.3257E-06
 ======================================================================
 ITERATION STEP  21
 CPU time [min]:     5.120                   Wall time [min]:     0.150
 

 SCF control                  : diis
 Damping factor/level shift   : 0.000/0.000
 DIIS [start/end/frequency]   :   2 / 50 /  1

 Constructing Fock-matrix...
 
 Pipek-Mezey localization...
 Step  Convergence
   1  17.884698191472
   2   7.321931400074
   3   7.899550110362
   4   5.089188547088
   5   1.472106180696
   6   0.262895108217
   7   0.005973469632
   8   0.000622428133
   9   0.000044311174
  10   0.000003455811
  11   0.000000380170
  12   0.000000035010
  13   0.000000004371
  14   0.000000000469
  15   0.000000000056
  16   0.000000000006
  17   0.000000000001
 CPU time [min]:     5.147                   Wall time [min]:     0.151
 
 Constructing local fitting domains...
 Local fitting domains are unchanged.
 
 First step of Coulomb + first step of exchange...
 Exchange contribution is evaluated for MOs 1 to 38.
   1% done.
  13% done.
  25% done.
  38% done.
  56% done.
  75% done.
  89% done.
 100% done.
 CPU time [min]:     5.306                   Wall time [min]:     0.155
 
 Fitting and assembly step of exchange...
 CPU time [min]:     5.312                   Wall time [min]:     0.155
 
 Second step of Coulomb...
   1% done.
  13% done.
  25% done.
  38% done.
  56% done.
  75% done.
  89% done.
 100% done.
 CPU time [min]:     5.356                   Wall time [min]:     0.157
 
 Gradient norm:      1.7934E-06
 DIIS is running in this iteration step.
 RMS of [F,P]:                                         0.00000002763946
 RMS of difference density:                            0.00000011336705
 Gap [au]:  0.15542769
 ALPHA OCC:  38
 BETA  OCC:  38
 
 ***HARTREE-FOCK ENERGY IN STEP  21 IS       -777.0235541724746327 [AU]
 
 Step comparison  Energy Drift [au]  DIIS error drift  Gradient drift
       20            1.3188E-11         7.7499E-09       3.2213E-07
 ======================================================================
 ITERATION STEP  22
 CPU time [min]:     5.365                   Wall time [min]:     0.157
 

 SCF control                  : diis
 Damping factor/level shift   : 0.000/0.000
 DIIS [start/end/frequency]   :   2 / 50 /  1

 Constructing Fock-matrix...
 
 Pipek-Mezey localization...
 Step  Convergence
   1  21.013869110419
   2  10.787968037598
   3   9.966191586672
   4   5.515615179900
   5   1.322788177297
   6   0.152114575245
   7   0.008569568443
   8   0.000640946201
   9   0.000046151859
  10   0.000007180792
  11   0.000000508842
  12   0.000000086481
  13   0.000000006422
  14   0.000000001070
  15   0.000000000084
  16   0.000000000013
  17   0.000000000001
  18   0.000000000000
 CPU time [min]:     5.392                   Wall time [min]:     0.158
 
 Constructing local fitting domains...
 Local fitting domains are unchanged.
 
 First step of Coulomb + first step of exchange...
 Exchange contribution is evaluated for MOs 1 to 38.
   1% done.
  13% done.
  25% done.
  38% done.
  56% done.
  75% done.
  89% done.
 100% done.
 CPU time [min]:     5.550                   Wall time [min]:     0.162
 
 Fitting and assembly step of exchange...
 CPU time [min]:     5.556                   Wall time [min]:     0.162
 
 Second step of Coulomb...
   1% done.
  13% done.
  25% done.
  38% done.
  56% done.
  75% done.
  89% done.
 100% done.
 CPU time [min]:     5.602                   Wall time [min]:     0.164
 
 Gradient norm:      1.5856E-06
 DIIS is running in this iteration step.
 RMS of [F,P]:                                         0.00000001436430
 RMS of difference density:                            0.00000017680283
 Gap [au]:  0.15542767
 ALPHA OCC:  38
 BETA  OCC:  38
 
 ***HARTREE-FOCK ENERGY IN STEP  22 IS       -777.0235541724819086 [AU]
 
 Step comparison  Energy Drift [au]  DIIS error drift  Gradient drift
       21            7.2760E-12         1.3275E-08       2.0779E-07
 ======================================================================
 ITERATION STEP  23
 CPU time [min]:     5.611                   Wall time [min]:     0.164
 

 SCF control                  : diis
 Damping factor/level shift   : 0.000/0.000
 DIIS [start/end/frequency]   :   2 / 50 /  1

 Constructing Fock-matrix...
 
 Pipek-Mezey localization...
 Step  Convergence
   1  24.385837802973
   2   9.634084399829
   3   9.297441016557
   4   4.878890140613
   5   1.871659689461
   6   0.087301534278
   7   0.006339738381
   8   0.000576208019
   9   0.000061811545
  10   0.000007154909
  11   0.000000716843
  12   0.000000060298
  13   0.000000009947
  14   0.000000000870
  15   0.000000000134
  16   0.000000000013
  17   0.000000000002
  18   0.000000000000
 CPU time [min]:     5.639                   Wall time [min]:     0.165
 
 Constructing local fitting domains...
 Local fitting domains are unchanged.
 
 First step of Coulomb + first step of exchange...
 Exchange contribution is evaluated for MOs 1 to 38.
   1% done.
  13% done.
  25% done.
  38% done.
  56% done.
  75% done.
  89% done.
 100% done.
 CPU time [min]:     5.796                   Wall time [min]:     0.169
 
 Fitting and assembly step of exchange...
 CPU time [min]:     5.802                   Wall time [min]:     0.169
 
 Second step of Coulomb...
   1% done.
  13% done.
  25% done.
  38% done.
  56% done.
  75% done.
  89% done.
 100% done.
 CPU time [min]:     5.847                   Wall time [min]:     0.171
 
 Gradient norm:      1.1636E-06
 DIIS is running in this iteration step.
 RMS of [F,P]:                                         0.00000000978421
 RMS of difference density:                            0.00000020086642
 Gap [au]:  0.15542767
 ALPHA OCC:  38
 BETA  OCC:  38
 
 ***HARTREE-FOCK ENERGY IN STEP  23 IS       -777.0235541724919131 [AU]
 
 Step comparison  Energy Drift [au]  DIIS error drift  Gradient drift
       22            1.0004E-11         4.5801E-09       4.2202E-07
 ======================================================================
 ITERATION STEP  24
 CPU time [min]:     5.877                   Wall time [min]:     0.172
 

 SCF control                  : diis
 Damping factor/level shift   : 0.000/0.000
 DIIS [start/end/frequency]   :   2 / 50 /  1

 Constructing Fock-matrix...
 
 Pipek-Mezey localization...
 Step  Convergence
   1  19.655025963919
   2   7.007318666382
   3   9.281647045640
   4   7.260656083276
   5   2.115189138048
   6   0.089792605533
   7   0.006591721157
   8   0.000178495000
   9   0.000019821940
  10   0.000001125014
  11   0.000000081730
  12   0.000000006033
  13   0.000000000460
  14   0.000000000039
  15   0.000000000003
  16   0.000000000000
 CPU time [min]:     5.905                   Wall time [min]:     0.172
 
 Constructing local fitting domains...
 Local fitting domains are unchanged.
 
 First step of Coulomb + first step of exchange...
 Exchange contribution is evaluated for MOs 1 to 38.
   1% done.
  13% done.
  25% done.
  38% done.
  56% done.
  75% done.
  89% done.
 100% done.
 CPU time [min]:     6.066                   Wall time [min]:     0.177
 
 Fitting and assembly step of exchange...
 CPU time [min]:     6.072                   Wall time [min]:     0.177
 
 Second step of Coulomb...
   1% done.
  13% done.
  25% done.
  38% done.
  56% done.
  75% done.
  89% done.
 100% done.
 CPU time [min]:     6.118                   Wall time [min]:     0.178
 
 Gradient norm:      6.7584E-07
 DIIS is running in this iteration step.
 RMS of [F,P]:                                         0.00000000606098
 RMS of difference density:                            0.00000016865514
 Gap [au]:  0.15542768
 ALPHA OCC:  38
 BETA  OCC:  38
 
 ***HARTREE-FOCK ENERGY IN STEP  24 IS       -777.0235541724991890 [AU]
 
 Step comparison  Energy Drift [au]  DIIS error drift  Gradient drift
       23            7.2760E-12         3.7232E-09       4.8771E-07
 ======================================================================
 ITERATION STEP  25
 CPU time [min]:     6.127                   Wall time [min]:     0.179
 

 SCF control                  : diis
 Damping factor/level shift   : 0.000/0.000
 DIIS [start/end/frequency]   :   2 / 50 /  1

 Constructing Fock-matrix...
 
 Pipek-Mezey localization...
 Step  Convergence
   1  24.196970578801
   2   9.087772676039
   3   8.775114924399
   4   5.891588283336
   5   3.161897078137
   6   1.211085719763
   7   0.076336235885
   8   0.001497164282
   9   0.000132027647
  10   0.000003719768
  11   0.000000477117
  12   0.000000030000
  13   0.000000003220
  14   0.000000000298
  15   0.000000000032
  16   0.000000000004
  17   0.000000000000
 CPU time [min]:     6.154                   Wall time [min]:     0.180
 
 Constructing local fitting domains...
 Local fitting domains are unchanged.
 
 First step of Coulomb + first step of exchange...
 Exchange contribution is evaluated for MOs 1 to 38.
   1% done.
  13% done.
  25% done.
  38% done.
  56% done.
  75% done.
  89% done.
 100% done.
 CPU time [min]:     6.300                   Wall time [min]:     0.184
 
 Fitting and assembly step of exchange...
 CPU time [min]:     6.306                   Wall time [min]:     0.184
 
 Second step of Coulomb...
   1% done.
  13% done.
  25% done.
  38% done.
  56% done.
  75% done.
  89% done.
 100% done.
 CPU time [min]:     6.350                   Wall time [min]:     0.185
 
 Gradient norm:      2.7333E-07
 DIIS is running in this iteration step.
 RMS of [F,P]:                                         0.00000000358047
 RMS of difference density:                            0.00000007492202
 Gap [au]:  0.15542768
 ALPHA OCC:  38
 BETA  OCC:  38
 
 ***HARTREE-FOCK ENERGY IN STEP  25 IS       -777.0235541725021449 [AU]
 
 Step comparison  Energy Drift [au]  DIIS error drift  Gradient drift
       24            2.9559E-12         2.4805E-09       4.0251E-07
 ======================================================================
 
 SUCCESS...
 THE SCF ITERATION HAS CONVERGED!
 
                   A   
 FINAL ALPHA OCC:  38
 FINAL BETA  OCC:  38
 
 ***FINAL HARTREE-FOCK ENERGY:       -777.0235541725021449 [AU]
 
 Orbital energies [au]:
      Irrep         Alpha          Beta
    1   A         -4.995105      -4.995105
    2   A         -4.994347      -4.994347
    3   A         -4.994056      -4.994056
    4   A         -4.993926      -4.993926
    5   A         -3.217512      -3.217512
    6   A         -3.216765      -3.216765
    7   A         -3.210817      -3.210817
    8   A         -3.210799      -3.210799
    9   A         -3.210683      -3.210683
   10   A         -3.209995      -3.209995
   11   A         -3.209814      -3.209814
   12   A         -3.209633      -3.209633
   13   A         -3.209596      -3.209596
   14   A         -3.209353      -3.209353
   15   A         -3.208448      -3.208448
   16   A         -3.208441      -3.208441
   17   A         -0.530336      -0.530336
   18   A         -0.512089      -0.512089
   19   A         -0.511836      -0.511836
   20   A         -0.508939      -0.508939
   21   A         -0.508760      -0.508760
   22   A         -0.496895      -0.496895
   23   A         -0.488393      -0.488393
   24   A         -0.487589      -0.487589
   25   A         -0.486566      -0.486566
   26   A         -0.474564      -0.474564
   27   A         -0.473624      -0.473624
   28   A         -0.470939      -0.470939
   29   A         -0.470391      -0.470391
   30   A         -0.460917      -0.460917
   31   A         -0.458449      -0.458449
   32   A         -0.457231      -0.457231
   33   A         -0.456918      -0.456918
   34   A         -0.448109      -0.448109
   35   A         -0.438454      -0.438454
   36   A         -0.437553      -0.437553
   37   A         -0.335463      -0.335463
   38   A         -0.158353      -0.158353
 
   39   A         -0.002926      -0.002926
   40   A         -0.001735      -0.001735
   41   A          0.057998       0.057998
   42   A          0.160594       0.160594
   43   A          0.173326       0.173326
   44   A          0.174288       0.174288
   45   A          0.209794       0.209794
   46   A          0.216211       0.216211
   47   A          0.217484       0.217484
   48   A          0.240671       0.240671
   49   A          0.271022       0.271022
   50   A          0.286869       0.286869
   51   A          0.424167       0.424167
   52   A          0.437627       0.437627
   53   A          0.441143       0.441143
   54   A          0.601142       0.601142
   55   A          0.648663       0.648663
   56   A          0.651284       0.651284
   57   A          1.104692       1.104692
   58   A          1.170141       1.170141
   59   A          1.182048       1.182048
   60   A          1.182247       1.182247
   61   A          1.256167       1.256167
   62   A          1.306044       1.306044
   63   A          1.352182       1.352182
   64   A          1.355494       1.355494
   65   A          1.408159       1.408159
   66   A          1.439467       1.439467
   67   A          1.490117       1.490117
   68   A          1.495130       1.495130
   69   A          1.528611       1.528611
   70   A          1.613655       1.613655
   71   A          1.736888       1.736888
   72   A          1.786429       1.786429
   73   A          1.824925       1.824925
   74   A          1.841667       1.841667
   75   A          2.048005       2.048005
   76   A          2.050229       2.050229
   77   A          6.304013       6.304013
   78   A          6.304214       6.304214
   79   A          6.304238       6.304238
   80   A          6.304807       6.304807
   81   A          6.304866       6.304866
   82   A          6.304965       6.304965
   83   A          6.305078       6.305078
   84   A          6.305756       6.305756
   85   A          6.305807       6.305807
   86   A          6.306432       6.306432
   87   A          6.306557       6.306557
   88   A          6.306742       6.306742
   89   A          6.307147       6.307147
   90   A          6.307284       6.307284
   91   A          6.307443       6.307443
[...]
  104    3Cu9d-2       3Cu9d-1       3Cu9d0        3Cu9d+1       3Cu9d+2       3Cu10d-2      3Cu10d-1      3Cu10d0       3Cu10d+1      3Cu10d+2  
  105    3Cu11d-2      3Cu11d-1      3Cu11d0       3Cu11d+1      3Cu11d+2      3Cu12d-2      3Cu12d-1      3Cu12d0       3Cu12d+1      3Cu12d+2  
  106    3Cu1f-3       3Cu1f-2       3Cu1f-1       3Cu1f0        3Cu1f+1       3Cu1f+2       3Cu1f+3       3Cu2f-3       3Cu2f-2       3Cu2f-1   
  107    3Cu2f0        3Cu2f+1       3Cu2f+2       3Cu2f+3       3Cu3f-3       3Cu3f-2       3Cu3f-1       3Cu3f0        3Cu3f+1       3Cu3f+2   
  108    3Cu3f+3       3Cu4f-3       3Cu4f-2       3Cu4f-1       3Cu4f0        3Cu4f+1       3Cu4f+2       3Cu4f+3       3Cu5f-3       3Cu5f-2   
  109    3Cu5f-1       3Cu5f0        3Cu5f+1       3Cu5f+2       3Cu5f+3       3Cu6f-3       3Cu6f-2       3Cu6f-1       3Cu6f0        3Cu6f+1   
  110    3Cu6f+2       3Cu6f+3       3Cu7f-3       3Cu7f-2       3Cu7f-1       3Cu7f0        3Cu7f+1       3Cu7f+2       3Cu7f+3       3Cu8f-3   
  111    3Cu8f-2       3Cu8f-1       3Cu8f0        3Cu8f+1       3Cu8f+2       3Cu8f+3       3Cu9f-3       3Cu9f-2       3Cu9f-1       3Cu9f0    
  112    3Cu9f+1       3Cu9f+2       3Cu9f+3       3Cu10f-3      3Cu10f-2      3Cu10f-1      3Cu10f0       3Cu10f+1      3Cu10f+2      3Cu10f+3  
  113    3Cu1g-4       3Cu1g-3       3Cu1g-2       3Cu1g-1       3Cu1g0        3Cu1g+1       3Cu1g+2       3Cu1g+3       3Cu1g+4       3Cu2g-4   
  114    3Cu2g-3       3Cu2g-2       3Cu2g-1       3Cu2g0        3Cu2g+1       3Cu2g+2       3Cu2g+3       3Cu2g+4       3Cu3g-4       3Cu3g-3   
  115    3Cu3g-2       3Cu3g-1       3Cu3g0        3Cu3g+1       3Cu3g+2       3Cu3g+3       3Cu3g+4       3Cu4g-4       3Cu4g-3       3Cu4g-2   
  116    3Cu4g-1       3Cu4g0        3Cu4g+1       3Cu4g+2       3Cu4g+3       3Cu4g+4       3Cu5g-4       3Cu5g-3       3Cu5g-2       3Cu5g-1   
  117    3Cu5g0        3Cu5g+1       3Cu5g+2       3Cu5g+3       3Cu5g+4       3Cu6g-4       3Cu6g-3       3Cu6g-2       3Cu6g-1       3Cu6g0    
  118    3Cu6g+1       3Cu6g+2       3Cu6g+3       3Cu6g+4       3Cu7g-4       3Cu7g-3       3Cu7g-2       3Cu7g-1       3Cu7g0        3Cu7g+1   
  119    3Cu7g+2       3Cu7g+3       3Cu7g+4       3Cu8g-4       3Cu8g-3       3Cu8g-2       3Cu8g-1       3Cu8g0        3Cu8g+1       3Cu8g+2   
  120    3Cu8g+3       3Cu8g+4       3Cu9g-4       3Cu9g-3       3Cu9g-2       3Cu9g-1       3Cu9g0        3Cu9g+1       3Cu9g+2       3Cu9g+3   
  121    3Cu9g+4       3Cu10g-4      3Cu10g-3      3Cu10g-2      3Cu10g-1      3Cu10g0       3Cu10g+1      3Cu10g+2      3Cu10g+3      3Cu10g+4  
  122    3Cu1h-5       3Cu1h-4       3Cu1h-3       3Cu1h-2       3Cu1h-1       3Cu1h0        3Cu1h+1       3Cu1h+2       3Cu1h+3       3Cu1h+4   
  123    3Cu1h+5       3Cu2h-5       3Cu2h-4       3Cu2h-3       3Cu2h-2       3Cu2h-1       3Cu2h0        3Cu2h+1       3Cu2h+2       3Cu2h+3   
  124    3Cu2h+4       3Cu2h+5       3Cu3h-5       3Cu3h-4       3Cu3h-3       3Cu3h-2       3Cu3h-1       3Cu3h0        3Cu3h+1       3Cu3h+2   
  125    3Cu3h+3       3Cu3h+4       3Cu3h+5       3Cu4h-5       3Cu4h-4       3Cu4h-3       3Cu4h-2       3Cu4h-1       3Cu4h0        3Cu4h+1   
  126    3Cu4h+2       3Cu4h+3       3Cu4h+4       3Cu4h+5       3Cu5h-5       3Cu5h-4       3Cu5h-3       3Cu5h-2       3Cu5h-1       3Cu5h0    
  127    3Cu5h+1       3Cu5h+2       3Cu5h+3       3Cu5h+4       3Cu5h+5       3Cu6h-5       3Cu6h-4       3Cu6h-3       3Cu6h-2       3Cu6h-1   
  128    3Cu6h0        3Cu6h+1       3Cu6h+2       3Cu6h+3       3Cu6h+4       3Cu6h+5       3Cu7h-5       3Cu7h-4       3Cu7h-3       3Cu7h-2   
  129    3Cu7h-1       3Cu7h0        3Cu7h+1       3Cu7h+2       3Cu7h+3       3Cu7h+4       3Cu7h+5       3Cu1i-6       3Cu1i-5       3Cu1i-4   
  130    3Cu1i-3       3Cu1i-2       3Cu1i-1       3Cu1i0        3Cu1i+1       3Cu1i+2       3Cu1i+3       3Cu1i+4       3Cu1i+5       3Cu1i+6   
  131    3Cu2i-6       3Cu2i-5       3Cu2i-4       3Cu2i-3       3Cu2i-2       3Cu2i-1       3Cu2i0        3Cu2i+1       3Cu2i+2       3Cu2i+3   
  132    3Cu2i+4       3Cu2i+5       3Cu2i+6       3Cu3i-6       3Cu3i-5       3Cu3i-4       3Cu3i-3       3Cu3i-2       3Cu3i-1       3Cu3i0    
  133    3Cu3i+1       3Cu3i+2       3Cu3i+3       3Cu3i+4       3Cu3i+5       3Cu3i+6       3Cu4i-6       3Cu4i-5       3Cu4i-4       3Cu4i-3   
  134    3Cu4i-2       3Cu4i-1       3Cu4i0        3Cu4i+1       3Cu4i+2       3Cu4i+3       3Cu4i+4       3Cu4i+5       3Cu4i+6       3Cu5i-6   
  135    3Cu5i-5       3Cu5i-4       3Cu5i-3       3Cu5i-2       3Cu5i-1       3Cu5i0        3Cu5i+1       3Cu5i+2       3Cu5i+3       3Cu5i+4   
  136    3Cu5i+5       3Cu5i+6       3Cu1k-7       3Cu1k-6       3Cu1k-5       3Cu1k-4       3Cu1k-3       3Cu1k-2       3Cu1k-1       3Cu1k0    
  137    3Cu1k+1       3Cu1k+2       3Cu1k+3       3Cu1k+4       3Cu1k+5       3Cu1k+6       3Cu1k+7       3Cu2k-7       3Cu2k-6       3Cu2k-5   
  138    3Cu2k-4       3Cu2k-3       3Cu2k-2       3Cu2k-1       3Cu2k0        3Cu2k+1       3Cu2k+2       3Cu2k+3       3Cu2k+4       3Cu2k+5   
  139    3Cu2k+6       3Cu2k+7       3Cu3k-7       3Cu3k-6       3Cu3k-5       3Cu3k-4       3Cu3k-3       3Cu3k-2       3Cu3k-1       3Cu3k0    
  140    3Cu3k+1       3Cu3k+2       3Cu3k+3       3Cu3k+4       3Cu3k+5       3Cu3k+6       3Cu3k+7       3Cu4k-7       3Cu4k-6       3Cu4k-5   
  141    3Cu4k-4       3Cu4k-3       3Cu4k-2       3Cu4k-1       3Cu4k0        3Cu4k+1       3Cu4k+2       3Cu4k+3       3Cu4k+4       3Cu4k+5   
  142    3Cu4k+6       3Cu4k+7       4Cu1s         4Cu2s         4Cu3s         4Cu4s         4Cu5s         4Cu6s         4Cu7s         4Cu8s     
  143    4Cu9s         4Cu10s        4Cu11s        4Cu12s        4Cu13s        4Cu1pz        4Cu1py        4Cu1px        4Cu2pz        4Cu2py    
  144    4Cu2px        4Cu3pz        4Cu3py        4Cu3px        4Cu4pz        4Cu4py        4Cu4px        4Cu5pz        4Cu5py        4Cu5px    
  145    4Cu6pz        4Cu6py        4Cu6px        4Cu7pz        4Cu7py        4Cu7px        4Cu8pz        4Cu8py        4Cu8px        4Cu9pz    
  146    4Cu9py        4Cu9px        4Cu10pz       4Cu10py       4Cu10px       4Cu11pz       4Cu11py       4Cu11px       4Cu12pz       4Cu12py   
  147    4Cu12px       4Cu13pz       4Cu13py       4Cu13px       4Cu1d-2       4Cu1d-1       4Cu1d0        4Cu1d+1       4Cu1d+2       4Cu2d-2   
  148    4Cu2d-1       4Cu2d0        4Cu2d+1       4Cu2d+2       4Cu3d-2       4Cu3d-1       4Cu3d0        4Cu3d+1       4Cu3d+2       4Cu4d-2   
  149    4Cu4d-1       4Cu4d0        4Cu4d+1       4Cu4d+2       4Cu5d-2       4Cu5d-1       4Cu5d0        4Cu5d+1       4Cu5d+2       4Cu6d-2   
  150    4Cu6d-1       4Cu6d0        4Cu6d+1       4Cu6d+2       4Cu7d-2       4Cu7d-1       4Cu7d0        4Cu7d+1       4Cu7d+2       4Cu8d-2   
  151    4Cu8d-1       4Cu8d0        4Cu8d+1       4Cu8d+2       4Cu9d-2       4Cu9d-1       4Cu9d0        4Cu9d+1       4Cu9d+2       4Cu10d-2  
  152    4Cu10d-1      4Cu10d0       4Cu10d+1      4Cu10d+2      4Cu11d-2      4Cu11d-1      4Cu11d0       4Cu11d+1      4Cu11d+2      4Cu12d-2  
  153    4Cu12d-1      4Cu12d0       4Cu12d+1      4Cu12d+2      4Cu1f-3       4Cu1f-2       4Cu1f-1       4Cu1f0        4Cu1f+1       4Cu1f+2   
  154    4Cu1f+3       4Cu2f-3       4Cu2f-2       4Cu2f-1       4Cu2f0        4Cu2f+1       4Cu2f+2       4Cu2f+3       4Cu3f-3       4Cu3f-2   
  155    4Cu3f-1       4Cu3f0        4Cu3f+1       4Cu3f+2       4Cu3f+3       4Cu4f-3       4Cu4f-2       4Cu4f-1       4Cu4f0        4Cu4f+1   
  156    4Cu4f+2       4Cu4f+3       4Cu5f-3       4Cu5f-2       4Cu5f-1       4Cu5f0        4Cu5f+1       4Cu5f+2       4Cu5f+3       4Cu6f-3   
  157    4Cu6f-2       4Cu6f-1       4Cu6f0        4Cu6f+1       4Cu6f+2       4Cu6f+3       4Cu7f-3       4Cu7f-2       4Cu7f-1       4Cu7f0    
  158    4Cu7f+1       4Cu7f+2       4Cu7f+3       4Cu8f-3       4Cu8f-2       4Cu8f-1       4Cu8f0        4Cu8f+1       4Cu8f+2       4Cu8f+3   
  159    4Cu9f-3       4Cu9f-2       4Cu9f-1       4Cu9f0        4Cu9f+1       4Cu9f+2       4Cu9f+3       4Cu10f-3      4Cu10f-2      4Cu10f-1  
  160    4Cu10f0       4Cu10f+1      4Cu10f+2      4Cu10f+3      4Cu1g-4       4Cu1g-3       4Cu1g-2       4Cu1g-1       4Cu1g0        4Cu1g+1   
  161    4Cu1g+2       4Cu1g+3       4Cu1g+4       4Cu2g-4       4Cu2g-3       4Cu2g-2       4Cu2g-1       4Cu2g0        4Cu2g+1       4Cu2g+2   
  162    4Cu2g+3       4Cu2g+4       4Cu3g-4       4Cu3g-3       4Cu3g-2       4Cu3g-1       4Cu3g0        4Cu3g+1       4Cu3g+2       4Cu3g+3   
  163    4Cu3g+4       4Cu4g-4       4Cu4g-3       4Cu4g-2       4Cu4g-1       4Cu4g0        4Cu4g+1       4Cu4g+2       4Cu4g+3       4Cu4g+4   
  164    4Cu5g-4       4Cu5g-3       4Cu5g-2       4Cu5g-1       4Cu5g0        4Cu5g+1       4Cu5g+2       4Cu5g+3       4Cu5g+4       4Cu6g-4   
  165    4Cu6g-3       4Cu6g-2       4Cu6g-1       4Cu6g0        4Cu6g+1       4Cu6g+2       4Cu6g+3       4Cu6g+4       4Cu7g-4       4Cu7g-3   
  166    4Cu7g-2       4Cu7g-1       4Cu7g0        4Cu7g+1       4Cu7g+2       4Cu7g+3       4Cu7g+4       4Cu8g-4       4Cu8g-3       4Cu8g-2   
  167    4Cu8g-1       4Cu8g0        4Cu8g+1       4Cu8g+2       4Cu8g+3       4Cu8g+4       4Cu9g-4       4Cu9g-3       4Cu9g-2       4Cu9g-1   
  168    4Cu9g0        4Cu9g+1       4Cu9g+2       4Cu9g+3       4Cu9g+4       4Cu10g-4      4Cu10g-3      4Cu10g-2      4Cu10g-1      4Cu10g0   
  169    4Cu10g+1      4Cu10g+2      4Cu10g+3      4Cu10g+4      4Cu1h-5       4Cu1h-4       4Cu1h-3       4Cu1h-2       4Cu1h-1       4Cu1h0    
  170    4Cu1h+1       4Cu1h+2       4Cu1h+3       4Cu1h+4       4Cu1h+5       4Cu2h-5       4Cu2h-4       4Cu2h-3       4Cu2h-2       4Cu2h-1   
  171    4Cu2h0        4Cu2h+1       4Cu2h+2       4Cu2h+3       4Cu2h+4       4Cu2h+5       4Cu3h-5       4Cu3h-4       4Cu3h-3       4Cu3h-2   
  172    4Cu3h-1       4Cu3h0        4Cu3h+1       4Cu3h+2       4Cu3h+3       4Cu3h+4       4Cu3h+5       4Cu4h-5       4Cu4h-4       4Cu4h-3   
  173    4Cu4h-2       4Cu4h-1       4Cu4h0        4Cu4h+1       4Cu4h+2       4Cu4h+3       4Cu4h+4       4Cu4h+5       4Cu5h-5       4Cu5h-4   
  174    4Cu5h-3       4Cu5h-2       4Cu5h-1       4Cu5h0        4Cu5h+1       4Cu5h+2       4Cu5h+3       4Cu5h+4       4Cu5h+5       4Cu6h-5   
  175    4Cu6h-4       4Cu6h-3       4Cu6h-2       4Cu6h-1       4Cu6h0        4Cu6h+1       4Cu6h+2       4Cu6h+3       4Cu6h+4       4Cu6h+5   
  176    4Cu7h-5       4Cu7h-4       4Cu7h-3       4Cu7h-2       4Cu7h-1       4Cu7h0        4Cu7h+1       4Cu7h+2       4Cu7h+3       4Cu7h+4   
  177    4Cu7h+5       4Cu1i-6       4Cu1i-5       4Cu1i-4       4Cu1i-3       4Cu1i-2       4Cu1i-1       4Cu1i0        4Cu1i+1       4Cu1i+2   
  178    4Cu1i+3       4Cu1i+4       4Cu1i+5       4Cu1i+6       4Cu2i-6       4Cu2i-5       4Cu2i-4       4Cu2i-3       4Cu2i-2       4Cu2i-1   
  179    4Cu2i0        4Cu2i+1       4Cu2i+2       4Cu2i+3       4Cu2i+4       4Cu2i+5       4Cu2i+6       4Cu3i-6       4Cu3i-5       4Cu3i-4   
  180    4Cu3i-3       4Cu3i-2       4Cu3i-1       4Cu3i0        4Cu3i+1       4Cu3i+2       4Cu3i+3       4Cu3i+4       4Cu3i+5       4Cu3i+6   
  181    4Cu4i-6       4Cu4i-5       4Cu4i-4       4Cu4i-3       4Cu4i-2       4Cu4i-1       4Cu4i0        4Cu4i+1       4Cu4i+2       4Cu4i+3   
  182    4Cu4i+4       4Cu4i+5       4Cu4i+6       4Cu5i-6       4Cu5i-5       4Cu5i-4       4Cu5i-3       4Cu5i-2       4Cu5i-1       4Cu5i0    
  183    4Cu5i+1       4Cu5i+2       4Cu5i+3       4Cu5i+4       4Cu5i+5       4Cu5i+6       4Cu1k-7       4Cu1k-6       4Cu1k-5       4Cu1k-4   
  184    4Cu1k-3       4Cu1k-2       4Cu1k-1       4Cu1k0        4Cu1k+1       4Cu1k+2       4Cu1k+3       4Cu1k+4       4Cu1k+5       4Cu1k+6   
  185    4Cu1k+7       4Cu2k-7       4Cu2k-6       4Cu2k-5       4Cu2k-4       4Cu2k-3       4Cu2k-2       4Cu2k-1       4Cu2k0        4Cu2k+1   
  186    4Cu2k+2       4Cu2k+3       4Cu2k+4       4Cu2k+5       4Cu2k+6       4Cu2k+7       4Cu3k-7       4Cu3k-6       4Cu3k-5       4Cu3k-4   
  187    4Cu3k-3       4Cu3k-2       4Cu3k-1       4Cu3k0        4Cu3k+1       4Cu3k+2       4Cu3k+3       4Cu3k+4       4Cu3k+5       4Cu3k+6   
  188    4Cu3k+7       4Cu4k-7       4Cu4k-6       4Cu4k-5       4Cu4k-4       4Cu4k-3       4Cu4k-2       4Cu4k-1       4Cu4k0        4Cu4k+1   
  189    4Cu4k+2       4Cu4k+3       4Cu4k+4       4Cu4k+5       4Cu4k+6       4Cu4k+7   
 
 Maximum number of basis functions per shell:   90
 Total number of basis functions:   1896
 
 
 Old basis set for SCF restart
 
   1  Cu def2-svp [ 14s 9p 5d 1f | 5s 3p 2d 1f ]
   2  Cu def2-svp [ 14s 9p 5d 1f | 5s 3p 2d 1f ]
   3  Cu def2-svp [ 14s 9p 5d 1f | 5s 3p 2d 1f ]
   4  Cu def2-svp [ 14s 9p 5d 1f | 5s 3p 2d 1f ]
 
 Basis functions:
            1             2             3             4             5             6             7             8             9            10
    0    1Cu1s         1Cu2s         1Cu3s         1Cu4s         1Cu5s         1Cu1pz        1Cu1py        1Cu1px        1Cu2pz        1Cu2py    
    1    1Cu2px        1Cu3pz        1Cu3py        1Cu3px        1Cu1d-2       1Cu1d-1       1Cu1d0        1Cu1d+1       1Cu1d+2       1Cu2d-2   
    2    1Cu2d-1       1Cu2d0        1Cu2d+1       1Cu2d+2       1Cu1f-3       1Cu1f-2       1Cu1f-1       1Cu1f0        1Cu1f+1       1Cu1f+2   
    3    1Cu1f+3       2Cu1s         2Cu2s         2Cu3s         2Cu4s         2Cu5s         2Cu1pz        2Cu1py        2Cu1px        2Cu2pz    
    4    2Cu2py        2Cu2px        2Cu3pz        2Cu3py        2Cu3px        2Cu1d-2       2Cu1d-1       2Cu1d0        2Cu1d+1       2Cu1d+2   
    5    2Cu2d-2       2Cu2d-1       2Cu2d0        2Cu2d+1       2Cu2d+2       2Cu1f-3       2Cu1f-2       2Cu1f-1       2Cu1f0        2Cu1f+1   
    6    2Cu1f+2       2Cu1f+3       3Cu1s         3Cu2s         3Cu3s         3Cu4s         3Cu5s         3Cu1pz        3Cu1py        3Cu1px    
    7    3Cu2pz        3Cu2py        3Cu2px        3Cu3pz        3Cu3py        3Cu3px        3Cu1d-2       3Cu1d-1       3Cu1d0        3Cu1d+1   
    8    3Cu1d+2       3Cu2d-2       3Cu2d-1       3Cu2d0        3Cu2d+1       3Cu2d+2       3Cu1f-3       3Cu1f-2       3Cu1f-1       3Cu1f0    
    9    3Cu1f+1       3Cu1f+2       3Cu1f+3       4Cu1s         4Cu2s         4Cu3s         4Cu4s         4Cu5s         4Cu1pz        4Cu1py    
   10    4Cu1px        4Cu2pz        4Cu2py        4Cu2px        4Cu3pz        4Cu3py        4Cu3px        4Cu1d-2       4Cu1d-1       4Cu1d0    
   11    4Cu1d+1       4Cu1d+2       4Cu2d-2       4Cu2d-1       4Cu2d0        4Cu2d+1       4Cu2d+2       4Cu1f-3       4Cu1f-2       4Cu1f-1   
   12    4Cu1f0        4Cu1f+1       4Cu1f+2       4Cu1f+3   
 
 Maximum number of basis functions per shell:   90
 Total number of basis functions:    124
 
 
 Effective core potentials:
 
   1  Cu mcdhf-ecp-10        
   2  Cu mcdhf-ecp-10        
   3  Cu mcdhf-ecp-10        
   4  Cu mcdhf-ecp-10        
 
 Calculation of prescreening integrals...
 CPU time [min]:    20.517                   Wall time [min]:     0.770
 
 Calculation of two-center Coulomb integrals...
   1% done.
  12% done.
  25% done.
  36% done.
  47% done.
  60% done.
  72% done.
  87% done.
 100% done.
 CPU time [min]:    20.618                   Wall time [min]:     0.773
 
 Calculation of inverse square root of the two-center integral matrix...
 CPU time [min]:    20.862                   Wall time [min]:     0.780
 
 Calculation of three-center Coulomb integrals...
   1% done.
  13% done.
  25% done.
  37% done.
  50% done.
  64% done.
  82% done.
 100% done.
 CPU time [min]:    27.751                   Wall time [min]:     0.971

 ************************ 2023-10-25 15:43:50 *************************
 Executing drpa...

 Three-index integral transformation
 
 Allocation of 1300.0 Gbytes of memory...
 Minimal memory requirement for (ai|P) and (ij|P) integrals:       44.6 MB

 Calculating (ai|P) and (ij|P) integrals...
 Number of integral batches:    1
 Occupied indices per batch:   38
 
 Transforming integrals of batch 1...
 CPU time [min]:     5.766                   Wall time [min]:     0.218

 Calculating (ab|P) integrals...
 Minimal memory requirement for (ab|P) integrals:       34.2 MB
 Number of integral batches:    1
 Virtual indices per batch:   682

 Transforming integrals of batch 1...
 CPU time [min]:    36.238                   Wall time [min]:     1.720

 ************************ 2023-10-25 15:45:34 *************************
 Executing ccsd...

 Allocation of 1300.0 Gbytes of memory...

 Direct DF-CCSD(T) calculation
 
 Convergence criterion:  1.0E-06
 
 Number of occupied/virtual/auxiliary orbitals:    38   682  1896
  54369.17 MB is the minimal memory requirement for (T)
  15341.07 MB is the minimal memory requirement for CCSD
 
 Reference energy [au]:            -784.708381477372
 T1 contribution [au]:                0.000000000000
 Same spin MP2 energy [au]:          -1.416351809399
 Opposite spin MP2 energy [au]:      -3.101628647474
 MP2 correlation energy [au]:        -4.517980456873
 Total MP2 energy [au]:            -789.226361934245
 
 
 CPU time [min]:     7.532                   Wall time [min]:     2.769
 
 Starting CCSD iterations...
 
                     Residual norm          Energy
 Iteration  1        1.218012837709     -788.404811963845
 Iteration  2        0.703755884031     -788.660914861420
 Iteration  3        0.120475181886     -788.717539742684
 Iteration  4        0.054584922213     -788.719747442590
 Iteration  5        0.033251278666     -788.711184867948
 Iteration  6        0.014135823872     -788.708656342602
 Iteration  7        0.010300996185     -788.709700634440
 Iteration  8        0.006026471685     -788.710554153064
 Iteration  9        0.003991920893     -788.710420304140
 Iteration 10        0.002446716111     -788.710471077023
 Iteration 11        0.001646781909     -788.710602793599
 Iteration 12        0.001088451049     -788.710480266924
 Iteration 13        0.000645436904     -788.710375695296
 Iteration 14        0.000428264915     -788.710424539086
 Iteration 15        0.000248074657     -788.710476163565
 Iteration 16        0.000132733505     -788.710464405856
 Iteration 17        0.000078575642     -788.710453920429
 Iteration 18        0.000043145642     -788.710455732146
 Iteration 19        0.000027274781     -788.710456696682
 Iteration 20        0.000017990120     -788.710456161948
 Iteration 21        0.000011871124     -788.710456155426
 Iteration 22        0.000007634157     -788.710456223067
 
 CCSD iteration has converged in 22 steps.
   841929.25 MB memory was utilized by CCSD
 
 T1 diagnostic:      2.941E-02            D1 diagnostic:      1.139E-01
 
 T1 contribution [au]:                                  0.000000000000
 Opposite spin CCSD energy [au]:                       -2.866297838496
 Same spin CCSD energy [au]:                           -1.135776907199
 CCSD correlation energy [au]:                         -4.002074745695
 Total CCSD energy [au]:                             -788.710456223067
 
 CPU time [min]:  7780.509                   Wall time [min]:   272.272
 
 Calculation of (T) correction...
 
 
   134113.84 MB memory is utilized for (T)

 0%       25%       50%       75%       100%
 |---------|---------|---------|---------| 
 
 (T) correction [au]:                                    -0.172990262292
 CCSD(T) correlation energy [au]:                        -4.175065007986
 Total CCSD(T) energy [au]:                            -788.883446485359
 
 CPU time [min]: 21078.517                   Wall time [min]:   658.654
 
 ************************ 2023-10-26 02:44:28 *************************
                      Normal termination of mrcc.
 **********************************************************************
