 vasp.6.3.0 20Jan22 (build Apr  1 2022 16:44:48) complex                         
 executed on        HPECrayEX_GCC date 2023.01.06  21:05:18
 running  384 mpi-ranks, with    1 threads/rank
 distrk:  each k-point on  192 cores,    2 groups
 distr:  one band on NCORE=   4 cores,   48 groups


--------------------------------------------------------------------------------------------------------


 INCAR:
   SYSTEM = MgO-rocksalt
   ISMEAR = 0
   SIGMA = 0.05
   EDIFF = 1E-6
   ALGO = ALL
   ISTART = 0
   IBRION = -1
   NSW = 0
   ISYM = 2
   GGA = PE
   IVDW = 263
   ENCUT = 520
   PREC = Accurate
   LASPH = .TRUE.
   LREAL = Auto
   ISPIN = 1
   NELM = 200
   NELMIN = 8
   NCORE = 4
   KPAR = 2
   LWAVE = .FALSE.
   LCHARG = .FALSE.

 POTCAR:    PAW_PBE Ag 02Apr2005                  
 POTCAR:    PAW_PBE Ag 02Apr2005                  
   SHA256 =  6550cfa3543261e132c169e1b98a529204624d72be14e2da2e0242bcb74a174d Ag/POTCAR             
   COPYR  = (c) Copyright 02Apr2005 Georg Kresse                                                    
   COPYR  = This file is part of the software VASP. Any use, copying, and all other rights are regul
   COPYR  = If you do not have a valid VASP license, you may not use, copy or distribute this file. 
   VRHFIN =Ag : s1 d10                                                                              
   LEXCH  = PE                                                                                      
   EATOM  =  1037.2675 eV,   76.2370 Ry                                                             
                                                                                                    
   TITEL  = PAW_PBE Ag 02Apr2005                                                                    
   LULTRA =        F    use ultrasoft PP ?                                                          
   IUNSCR =        1    unscreen: 0-lin 1-nonlin 2-no                                               
   RPACOR =    2.000    partial core radius                                                         
   POMASS =  107.868; ZVAL   =   11.000    mass and valenz                                          
   RCORE  =    2.500    outmost cutoff radius                                                       
   RWIGS  =    2.840; RWIGS  =    1.503    wigner-seitz radius (au A)                               
   ENMAX  =  249.844; ENMIN  =  187.383 eV                                                          
   ICORE  =        3    local potential                                                             
   LCOR   =        T    correct aug charges                                                         
   LPAW   =        T    paw PP                                                                      
   EAUG   =  412.496                                                                                
   DEXC   =    0.000                                                                                
   RMAX   =    2.560    core radius for proj-oper                                                   
   RAUG   =    1.300    factor for augmentation sphere                                              
   RDEP   =    2.576    radius for radial grids                                                     
   RDEPT  =    2.072    core radius for aug-charge                                                  
                                                                                                    
   Atomic configuration                                                                             
   12 entries                                                                                       
     n  l   j            E        occ.                                                              
     1  0  0.50    -25324.9161   2.0000                                                             
     2  0  0.50     -3728.5341   2.0000                                                             
     2  1  1.50     -3344.0404   6.0000                                                             
     3  0  0.50      -683.5581   2.0000                                                             
     3  1  1.50      -557.3225   6.0000                                                             
     3  2  2.50      -358.3853  10.0000                                                             
     4  0  0.50       -95.0341   2.0000                                                             
     4  1  1.50       -58.5511   6.0000                                                             
     4  2  2.50        -7.4440  10.0000                                                             
     5  0  0.50        -4.4045   1.0000                                                             
     5  1  0.50        -1.3606   0.0000                                                             
     4  3  2.50        -1.3606   0.0000                                                             
   Description                                                                                      
     l       E           TYP  RCUT    TYP  RCUT                                                     
     2     -7.4439781     23  2.400                                                                 
     2     -8.8045607     23  2.400                                                                 
     0     -4.4044681     23  2.400                                                                 
     0      1.9520038     23  2.400                                                                 
     1     -1.3605826     23  2.500                                                                 
     1     27.2116520     23  2.500                                                                 
     3     -4.0817478     23  2.400                                                                 
  local pseudopotential read in
  partial core-charges read in
  partial kinetic energy density read in
  atomic valenz-charges read in
  non local Contribution for L=           2  read in
    real space projection operators read in
  non local Contribution for L=           2  read in
    real space projection operators read in
  non local Contribution for L=           0  read in
    real space projection operators read in
  non local Contribution for L=           0  read in
    real space projection operators read in
  non local Contribution for L=           1  read in
    real space projection operators read in
  non local Contribution for L=           1  read in
    real space projection operators read in
    PAW grid and wavefunctions read in

   number of l-projection  operators is LMAX  =           6
   number of lm-projection operators is LMMAX =          18

 -----------------------------------------------------------------------------
|                                                                             |
|               ----> ADVICE to this user running VASP <----                  |
|                                                                             |
|     You have a (more or less) 'small supercell' and for smaller cells       |
|     it is recommended to use the reciprocal-space projection scheme!        |
|     The real-space optimization is not efficient for small cells and it     |
|     is also less accurate ...                                               |
|     Therefore, set LREAL=.FALSE. in the INCAR file.                         |
|                                                                             |
 -----------------------------------------------------------------------------

 Optimization of the real space projectors (new method)

 maximal supplied QI-value         = 15.12
 optimisation between [QCUT,QGAM] = [ 11.64, 23.28] = [ 37.95,151.78] Ry 
 Optimized for a Real-space Cutoff    1.45 Angstroem

   l    n(q)    QCUT    max X(q) W(low)/X(q) W(high)/X(q)  e(spline) 
   2      9    11.641    53.897    0.22E-03    0.42E-04    0.28E-06
   2      9    11.641    52.416    0.23E-03    0.44E-04    0.29E-06
   0     10    11.641   122.045    0.51E-04    0.25E-04    0.16E-06
   0     10    11.641    73.629    0.49E-04    0.24E-04    0.16E-06
   1     10    11.641    15.255    0.99E-04    0.55E-04    0.11E-06
   1     10    11.641     9.562    0.81E-04    0.47E-04    0.95E-07
  PAW_PBE Ag 02Apr2005                  :
 energy of atom  1       EATOM=-1037.2675
 kinetic energy error for atom=    0.0047 (will be added to EATOM!!)


 POSCAR: Ag
  positions in direct lattice
  velocities in cartesian coordinates
 exchange correlation table for  LEXCH =        8
   RHO(1)=    0.500       N(1)  =     2000
   RHO(2)=  100.500       N(2)  =     4000



--------------------------------------------------------------------------------------------------------


 ion  position               nearest neighbor table
   1  0.496  0.476  0.525-   5 2.67   3 2.67   2 2.67   4 2.67   6 2.67
   2  0.425  0.486  0.412-   1 2.67   6 2.79   3 2.79
   3  0.407  0.576  0.517-   1 2.67   4 2.79   2 2.79
   4  0.530  0.592  0.581-   1 2.67   3 2.79   5 2.79
   5  0.624  0.513  0.514-   1 2.67   6 2.79   4 2.79
   6  0.558  0.446  0.411-   1 2.67   2 2.79   5 2.79

  LATTYP: Found a simple cubic cell.
 ALAT       =    20.0000000000
  
  Lattice vectors:
  
 A1 = (  20.0000000000,   0.0000000000,   0.0000000000)
 A2 = (   0.0000000000,  20.0000000000,   0.0000000000)
 A3 = (   0.0000000000,   0.0000000000,  20.0000000000)


Analysis of symmetry for initial positions (statically):
=====================================================================
 Subroutine PRICEL returns:
 Original cell was already a primitive cell.
 

 Routine SETGRP: Setting up the symmetry group for a 
 simple cubic supercell.


 Subroutine GETGRP returns: Found  1 space group operations
 (whereof  1 operations were pure point group operations)
 out of a pool of 48 trial point group operations.


The static configuration has the point symmetry C_1 .


Analysis of symmetry for dynamics (positions and initial velocities):
=====================================================================
 Subroutine PRICEL returns:
 Original cell was already a primitive cell.
 

 Routine SETGRP: Setting up the symmetry group for a 
 simple cubic supercell.


 Subroutine GETGRP returns: Found  1 space group operations
 (whereof  1 operations were pure point group operations)
 out of a pool of 48 trial point group operations.


The dynamic configuration has the point symmetry C_1 .


 Subroutine INISYM returns: Found  1 space group operations
 (whereof  1 operations are pure point group operations),
 and found     1 'primitive' translations


----------------------------------------------------------------------------------------

                                     Primitive cell                                     

  volume of cell :    8000.0000

  direct lattice vectors                    reciprocal lattice vectors
    20.000000000  0.000000000  0.000000000     0.050000000  0.000000000  0.000000000
     0.000000000 20.000000000  0.000000000     0.000000000  0.050000000  0.000000000
     0.000000000  0.000000000 20.000000000     0.000000000  0.000000000  0.050000000

  length of vectors
    20.000000000 20.000000000 20.000000000     0.050000000  0.050000000  0.050000000

  position of ions in fractional coordinates (direct lattice)
     0.495572249  0.476231947  0.524886264
     0.424807662  0.485889513  0.412113389
     0.407470872  0.576199573  0.516938698
     0.530352702  0.592451293  0.580655328
     0.623502187  0.512664826  0.514210695
     0.558194702  0.445631609  0.410951430

  ion indices of the primitive-cell ions
   primitive index   ion index
                 1           1
                 2           2
                 3           3
                 4           4
                 5           5
                 6           6

----------------------------------------------------------------------------------------



 KPOINTS: KPOINTS created by Atomic Simulation Env

Automatic generation of k-mesh.
 Grid dimensions read from file:
 generate k-points for:    1    1    1

 Generating k-lattice:

  Cartesian coordinates                     Fractional coordinates (reciprocal lattice)
     0.050000000  0.000000000  0.000000000     1.000000000  0.000000000  0.000000000
     0.000000000  0.050000000  0.000000000     0.000000000  1.000000000  0.000000000
     0.000000000  0.000000000  0.050000000     0.000000000  0.000000000  1.000000000

  Length of vectors
     0.050000000  0.050000000  0.050000000

  Shift w.r.t. Gamma in fractional coordinates (k-lattice)
     0.000000000  0.000000000  0.000000000

 
 Subroutine IBZKPT returns following result:
 ===========================================
 
 Found      1 irreducible k-points:
 
 Following reciprocal coordinates:
            Coordinates               Weight
  0.000000  0.000000  0.000000      1.000000
 
 Following cartesian coordinates:
            Coordinates               Weight
  0.000000  0.000000  0.000000      1.000000
 


--------------------------------------------------------------------------------------------------------




 Dimension of arrays:
   k-points           NKPTS =      1   k-points in BZ     NKDIM =      1   number of bands    NBANDS=     48
   number of dos      NEDOS =    301   number of ions     NIONS =      6
   non local maximal  LDIM  =      6   non local SUM 2l+1 LMDIM =     18
   total plane-waves  NPLWV = ******
   max r-space proj   IRMAX =   5390   max aug-charges    IRDMAX=  20940
   dimension x,y,z NGX =   150 NGY =  150 NGZ =  150
   dimension x,y,z NGXF=   300 NGYF=  300 NGZF=  300
   support grid    NGXF=   300 NGYF=  300 NGZF=  300
   ions per type =               6
   NGX,Y,Z   is equivalent  to a cutoff of  12.47, 12.47, 12.47 a.u.
   NGXF,Y,Z  is equivalent  to a cutoff of  24.94, 24.94, 24.94 a.u.

 SYSTEM =  MgO-rocksalt                            
 POSCAR =  Ag                                      

 Startparameter for this run:
   NWRITE =      2    write-flag & timer
   PREC   = accura    normal or accurate (medium, high low for compatibility)
   ISTART =      0    job   : 0-new  1-cont  2-samecut
   ICHARG =      2    charge: 1-file 2-atom 10-const
   ISPIN  =      1    spin polarized calculation?
   LNONCOLLINEAR =      F non collinear calculations
   LSORBIT =      F    spin-orbit coupling
   INIWAV =      1    electr: 0-lowe 1-rand  2-diag
   LASPH  =      T    aspherical Exc in radial PAW
 Electronic Relaxation 1
   ENCUT  =  520.0 eV  38.22 Ry    6.18 a.u.  37.19 37.19 37.19*2*pi/ulx,y,z
   ENINI  =  520.0     initial cutoff
   ENAUG  =  412.5 eV  augmentation charge cutoff
   NELM   =    200;   NELMIN=  8; NELMDL= -5     # of ELM steps 
   EDIFF  = 0.1E-05   stopping-criterion for ELM
   LREAL  =      T    real-space projection
   NLSPLINE    = F    spline interpolate recip. space projectors
   LCOMPAT=      F    compatible to vasp.4.4
   GGA_COMPAT  = T    GGA compatible to vasp.4.4-vasp.4.6
   LMAXPAW     = -100 max onsite density
   LMAXMIX     =    2 max onsite mixed and CHGCAR
   VOSKOWN=      0    Vosko Wilk Nusair interpolation
   ROPT   =   -0.00025
 Ionic relaxation
   EDIFFG = 0.1E-04   stopping-criterion for IOM
   NSW    =      0    number of steps for IOM
   NBLOCK =      1;   KBLOCK =      1    inner block; outer block 
   IBRION =     -1    ionic relax: 0-MD 1-quasi-New 2-CG
   NFREE  =      0    steps in history (QN), initial steepest desc. (CG)
   ISIF   =      2    stress and relaxation
   IWAVPR =     10    prediction:  0-non 1-charg 2-wave 3-comb
   ISYM   =      2    0-nonsym 1-usesym 2-fastsym
   LCORR  =      T    Harris-Foulkes like correction to forces

   POTIM  = 0.5000    time-step for ionic-motion
   TEIN   =    0.0    initial temperature
   TEBEG  =    0.0;   TEEND  =   0.0 temperature during run
   SMASS  =  -3.00    Nose mass-parameter (am)
   estimated Nose-frequenzy (Omega)   =  0.10E-29 period in steps = 0.13E+47 mass=  -0.914E-26a.u.
   SCALEE = 1.0000    scale energy and forces
   NPACO  =    256;   APACO  = 10.0  distance and # of slots for P.C.
   PSTRESS=    0.0 pullay stress

  Mass of Ions in am
   POMASS = 107.87
  Ionic Valenz
   ZVAL   =  11.00
  Atomic Wigner-Seitz radii
   RWIGS  =  -1.00
  virtual crystal weights 
   VCA    =   1.00
   NELECT =      66.0000    total number of electrons
   NUPDOWN=      -1.0000    fix difference up-down

 DOS related values:
   EMIN   =  10.00;   EMAX   =-10.00  energy-range for DOS
   EFERMI =   0.00
   ISMEAR =     0;   SIGMA  =   0.05  broadening in eV -4-tet -1-fermi 0-gaus

 Electronic relaxation 2 (details)
   IALGO  =     58    algorithm
   LDIAG  =      T    sub-space diagonalisation (order eigenvalues)
   LSUBROT=      F    optimize rotation matrix (better conditioning)
   TURBO    =      0    0=normal 1=particle mesh
   IRESTART =      0    0=no restart 2=restart with 2 vectors
   NREBOOT  =      0    no. of reboots
   NMIN     =      0    reboot dimension
   EREF     =   0.00    reference energy to select bands
   IMIX   =      4    mixing-type and parameters
     AMIX     =   0.40;   BMIX     =  1.00
     AMIX_MAG =   1.60;   BMIX_MAG =  1.00
     AMIN     =   0.10
     WC   =   100.;   INIMIX=   1;  MIXPRE=   1;  MAXMIX= -45

 Intra band minimization:
   WEIMIN = 0.0000     energy-eigenvalue tresh-hold
   EBREAK =  0.52E-08  absolut break condition
   DEPER  =   0.30     relativ break condition  

   TIME   =   0.40     timestep for ELM

  volume/ion in A,a.u.               =    1333.33      8997.78
  Fermi-wavevector in a.u.,A,eV,Ry     =   0.330795  0.625113  1.488826  0.109426
  Thomas-Fermi vector in A             =   1.226404

 Write flags
   LWAVE        =      F    write WAVECAR
   LDOWNSAMPLE  =      F    k-point downsampling of WAVECAR
   LCHARG       =      F    write CHGCAR
   LVTOT        =      F    write LOCPOT, total local potential
   LVHAR        =      F    write LOCPOT, Hartree potential only
   LELF         =      F    write electronic localiz. function (ELF)
   LORBIT       =      0    0 simple, 1 ext, 2 COOP (PROOUT), +10 PAW based schemes


 Dipole corrections
   LMONO  =      F    monopole corrections only (constant potential shift)
   LDIPOL =      F    correct potential (dipole corrections)
   IDIPOL =      0    1-x, 2-y, 3-z, 4-all directions 
   EPSILON=  1.0000000 bulk dielectric constant

 Exchange correlation treatment:
   GGA     =    PE    GGA type
   LEXCH   =     8    internal setting for exchange type
   LIBXC   =     F    Libxc                    
   VOSKOWN =     0    Vosko Wilk Nusair interpolation
   LHFCALC =     F    Hartree Fock is set to
   LHFONE  =     F    Hartree Fock one center treatment
   AEXX    =    0.0000 exact exchange contribution

 Linear response parameters
   LEPSILON=     F    determine dielectric tensor
   LRPA    =     F    only Hartree local field effects (RPA)
   LNABLA  =     F    use nabla operator in PAW spheres
   LVEL    =     F    velocity operator in full k-point grid
   CSHIFT  =0.1000    complex shift for real part using Kramers Kronig
   OMEGAMAX=  -1.0    maximum frequency
   DEG_THRESHOLD= 0.2000000E-02 threshold for treating states as degnerate
   RTIME   =   -0.100 relaxation time in fs
  (WPLASMAI=    0.000 imaginary part of plasma frequency in eV, 0.658/RTIME)
   DFIELD  = 0.0000000 0.0000000 0.0000000 field for delta impulse in time

  Optional k-point grid parameters
   LKPOINTS_OPT  =     F    use optional k-point grid
   KPOINTS_OPT_MODE=     1    mode for optional k-point grid

 Orbital magnetization related:
   ORBITALMAG=     F  switch on orbital magnetization
   LCHIMAG   =     F  perturbation theory with respect to B field
   DQ        =  0.001000  dq finite difference perturbation B field
   LLRAUG    =     F  two centre corrections for induced B field



--------------------------------------------------------------------------------------------------------


 Static calculation
 charge density and potential will be updated during run
 non-spin polarized calculation
 Conjugate gradient for all bands (Freysoldt, et al. PRB 79, 241103 (2009))
 preconditioned conjugated gradient                                        
 perform sub-space diagonalisation
    before iterative eigenvector-optimisation
 modified Broyden-mixing scheme, WC =      100.0
 initial mixing is a Kerker type mixing with AMIX =  0.4000 and BMIX =      1.0000
 Hartree-type preconditioning will be used
 using additional bands           15
 real space projection scheme for non local part
 use partial core corrections
 no Harris-corrections to forces 
 use gradient corrections 
 use of overlap-Matrix (Vanderbilt PP)
 Gauss-broadening in eV      SIGMA  =   0.05


--------------------------------------------------------------------------------------------------------


  energy-cutoff  :      520.00
  volume of cell :     8000.00
      direct lattice vectors                 reciprocal lattice vectors
    20.000000000  0.000000000  0.000000000     0.050000000  0.000000000  0.000000000
     0.000000000 20.000000000  0.000000000     0.000000000  0.050000000  0.000000000
     0.000000000  0.000000000 20.000000000     0.000000000  0.000000000  0.050000000

  length of vectors
    20.000000000 20.000000000 20.000000000     0.050000000  0.050000000  0.050000000



 k-points in units of 2pi/SCALE and weight: KPOINTS created by Atomic Simulation Env
   0.00000000  0.00000000  0.00000000       1.000

 k-points in reciprocal lattice and weights: KPOINTS created by Atomic Simulation Env
   0.00000000  0.00000000  0.00000000       1.000

 position of ions in fractional coordinates (direct lattice) 
   0.49557225  0.47623195  0.52488626
   0.42480766  0.48588951  0.41211339
   0.40747087  0.57619957  0.51693870
   0.53035270  0.59245129  0.58065533
   0.62350219  0.51266483  0.51421069
   0.55819470  0.44563161  0.41095143

 position of ions in cartesian coordinates  (Angst):
   9.91144497  9.52463895 10.49772527
   8.49615324  9.71779026  8.24226778
   8.14941744 11.52399145 10.33877395
  10.60705404 11.84902586 11.61310655
  12.47004374 10.25329652 10.28421389
  11.16389403  8.91263219  8.21902860



--------------------------------------------------------------------------------------------------------


 k-point   1 :   0.0000 0.0000 0.0000  plane waves:  215503

 maximum and minimum number of plane-waves per node :     53900    53857

 maximum number of plane-waves:    215503
 maximum index in each direction: 
   IXMAX=   37   IYMAX=   37   IZMAX=   37
   IXMIN=  -37   IYMIN=  -37   IZMIN=  -37


 real space projection operators:
  total allocation   :       4372.03 KBytes
  max/ min on nodes  :       1094.48       1090.27


 parallel 3D FFT for wavefunctions:
    minimum data exchange during FFTs selected (reduces bandwidth)
 parallel 3D FFT for charge:
    minimum data exchange during FFTs selected (reduces bandwidth)


 total amount of memory used by VASP MPI-rank0   108557. kBytes
=======================================================================

   base      :      30000. kBytes
   nonlr-proj:       1889. kBytes
   fftplans  :      31079. kBytes
   grid      :      42969. kBytes
   one-center:         31. kBytes
   wavefun   :       2589. kBytes

     INWAV:  cpu time      0.0001: real time      0.0001
 Broyden mixing: mesh for mixing (old mesh)
   NGX = 75   NGY = 75   NGZ = 75
  (NGX  =300   NGY  =300   NGZ  =300)
  gives a total of 421875 points

 initial charge density was supplied:
 charge density of overlapping atoms calculated
 number of electron      66.0000000 magnetization 
 keeping initial charge density in first step


--------------------------------------------------------------------------------------------------------


 Maximum index for non-local projection operator         1305
 Maximum index for augmentation-charges          817 (set IRDMAX)


--------------------------------------------------------------------------------------------------------


 First call to EWALD:  gamma=   0.089
 Maximum number of real-space cells 3x 3x 3
 Maximum number of reciprocal cells 3x 3x 3

    FEWALD:  cpu time      0.0012: real time      0.0012


--------------------------------------- Iteration      1(   1)  ---------------------------------------


    POTLOK:  cpu time      0.1518: real time      0.1520
    SETDIJ:  cpu time      0.1899: real time      0.1899
    TRIAL :  cpu time      0.3319: real time      0.3320
    CORREC:  cpu time      0.0010: real time      0.0010
    --------------------------------------------
      LOOP:  cpu time      0.6764: real time      0.6768

 eigenvalue-minimisations  :    96
 total energy-change (2. order) : 0.5333443E+03  (-0.1132418E+04)
 number of electron      66.0000000 magnetization 
 augmentation part       66.0000000 magnetization 

 Free energy of the ion-electron system (eV)
  ---------------------------------------------------
  alpha Z        PSCENC =         3.82760131
  Ewald energy   TEWEN  =      3949.60846310
  -Hartree energ DENC   =     -9891.37809378
  -exchange      EXHF   =         0.00000000
  -V(xc)+E(xc)   XCENC  =       -68.89654986
  PAW double counting   =      6020.77289596    -5744.09564538
  entropy T*S    EENTRO =        -0.02511755
  eigenvalues    EBANDS =        39.95409911
  atomic energy  EATOM  =      6223.57668875
  ---------------------------------------------------
  free energy    TOTEN  =       533.34434166 eV

  energy without entropy =      533.36945921  energy(sigma->0) =      533.35690044


--------------------------------------------------------------------------------------------------------




--------------------------------------- Iteration      1(   2)  ---------------------------------------


    TRIAL :  cpu time      0.7112: real time      0.7113
    CORREC:  cpu time      0.0009: real time      0.0009
    --------------------------------------------
      LOOP:  cpu time      0.7161: real time      0.7169

 eigenvalue-minimisations  :   192
 total energy-change (2. order) :-0.3984233E+03  (-0.3983972E+03)
 number of electron      66.0000000 magnetization 
 augmentation part       66.0000000 magnetization 

 Free energy of the ion-electron system (eV)
  ---------------------------------------------------
  alpha Z        PSCENC =         3.82760131
  Ewald energy   TEWEN  =      3949.60846310
  -Hartree energ DENC   =     -9891.37809378
  -exchange      EXHF   =         0.00000000
  -V(xc)+E(xc)   XCENC  =       -68.89654986
  PAW double counting   =      6020.77289596    -5744.09564538
  entropy T*S    EENTRO =        -0.00010192
  eigenvalues    EBANDS =      -358.49416664
  atomic energy  EATOM  =      6223.57668875
  ---------------------------------------------------
  free energy    TOTEN  =       134.92109154 eV

  energy without entropy =      134.92119346  energy(sigma->0) =      134.92114250


--------------------------------------------------------------------------------------------------------




--------------------------------------- Iteration      1(   3)  ---------------------------------------


    TRIAL :  cpu time      0.7050: real time      0.7050
    CORREC:  cpu time      0.0004: real time      0.0003
    --------------------------------------------
      LOOP:  cpu time      0.7091: real time      0.7098

 eigenvalue-minimisations  :   192
 total energy-change (2. order) :-0.1434890E+03  (-0.1434883E+03)
 number of electron      66.0000000 magnetization 
 augmentation part       66.0000000 magnetization 

 Free energy of the ion-electron system (eV)
  ---------------------------------------------------
  alpha Z        PSCENC =         3.82760131
  Ewald energy   TEWEN  =      3949.60846310
  -Hartree energ DENC   =     -9891.37809378
  -exchange      EXHF   =         0.00000000
  -V(xc)+E(xc)   XCENC  =       -68.89654986
  PAW double counting   =      6020.77289596    -5744.09564538
  entropy T*S    EENTRO =        -0.00000000
  eigenvalues    EBANDS =      -501.98323756
  atomic energy  EATOM  =      6223.57668875
  ---------------------------------------------------
  free energy    TOTEN  =        -8.56787746 eV

  energy without entropy =       -8.56787746  energy(sigma->0) =       -8.56787746


--------------------------------------------------------------------------------------------------------




--------------------------------------- Iteration      1(   4)  ---------------------------------------


    TRIAL :  cpu time      0.3269: real time      0.3269
    CORREC:  cpu time      0.0003: real time      0.0003
    --------------------------------------------
      LOOP:  cpu time      0.3313: real time      0.3319

 eigenvalue-minimisations  :    96
 total energy-change (2. order) :-0.1824633E+01  (-0.1824633E+01)
 number of electron      66.0000000 magnetization 
 augmentation part       66.0000000 magnetization 

 Free energy of the ion-electron system (eV)
  ---------------------------------------------------
  alpha Z        PSCENC =         3.82760131
  Ewald energy   TEWEN  =      3949.60846310
  -Hartree energ DENC   =     -9891.37809378
  -exchange      EXHF   =         0.00000000
  -V(xc)+E(xc)   XCENC  =       -68.89654986
  PAW double counting   =      6020.77289596    -5744.09564538
  entropy T*S    EENTRO =        -0.00000000
  eigenvalues    EBANDS =      -503.80787085
  atomic energy  EATOM  =      6223.57668875
  ---------------------------------------------------
  free energy    TOTEN  =       -10.39251076 eV

  energy without entropy =      -10.39251076  energy(sigma->0) =      -10.39251076


--------------------------------------------------------------------------------------------------------




--------------------------------------- Iteration      1(   5)  ---------------------------------------


    TRIAL :  cpu time      0.3291: real time      0.3291
    CORREC:  cpu time      0.0005: real time      0.0005
    CHARGE:  cpu time      0.0949: real time      0.0951
    --------------------------------------------
      LOOP:  cpu time      0.4288: real time      0.4295

 eigenvalue-minimisations  :    96
 total energy-change (2. order) :-0.1487863E-01  (-0.1487863E-01)
 number of electron      66.0000001 magnetization 
 augmentation part       31.4838139 magnetization 

 Free energy of the ion-electron system (eV)
  ---------------------------------------------------
  alpha Z        PSCENC =         3.82760131
  Ewald energy   TEWEN  =      3949.60846310
  -Hartree energ DENC   =     -9891.37809378
  -exchange      EXHF   =         0.00000000
  -V(xc)+E(xc)   XCENC  =       -68.89654986
  PAW double counting   =      6020.77289596    -5744.09564538
  entropy T*S    EENTRO =        -0.00000000
  eigenvalues    EBANDS =      -503.82274949
  atomic energy  EATOM  =      6223.57668875
  ---------------------------------------------------
  free energy    TOTEN  =       -10.40738939 eV

  energy without entropy =      -10.40738939  energy(sigma->0) =      -10.40738939


--------------------------------------------------------------------------------------------------------




--------------------------------------- Iteration      1(   6)  ---------------------------------------


    POTLOK:  cpu time      0.1474: real time      0.1474
    SETDIJ:  cpu time      0.1826: real time      0.1827
    TRIAL :  cpu time      0.1856: real time      0.1856
    CORREC:  cpu time      0.4801: real time      0.4801
    CHARGE:  cpu time      0.0905: real time      0.0905
    --------------------------------------------
      LOOP:  cpu time      1.0909: real time      1.0914

 eigenvalue-minimisations  :     0
 total energy-change (2. order) : 0.2105492E+01  (-0.1161762E+01)
 number of electron      66.0000001 magnetization 
 augmentation part       31.8207863 magnetization 

 Free energy of the ion-electron system (eV)
  ---------------------------------------------------
  alpha Z        PSCENC =         3.82760131
  Ewald energy   TEWEN  =      3949.60846310
  -Hartree energ DENC   =     -9935.71337236
  -exchange      EXHF   =         0.00000000
  -V(xc)+E(xc)   XCENC  =       -70.13402665
  PAW double counting   =      6461.38346911    -6192.73143144
  entropy T*S    EENTRO =        -0.00000000
  eigenvalues    EBANDS =      -448.11928899
  atomic energy  EATOM  =      6223.57668875
  ---------------------------------------------------
  free energy    TOTEN  =        -8.30189717 eV

  energy without entropy =       -8.30189717  energy(sigma->0) =       -8.30189717


--------------------------------------------------------------------------------------------------------




--------------------------------------- Iteration      1(   7)  ---------------------------------------


    POTLOK:  cpu time      0.1571: real time      0.1571
    SETDIJ:  cpu time      0.1800: real time      0.1803
    TRIAL :  cpu time      0.1802: real time      0.1802
    CORREC:  cpu time      0.4799: real time      0.4799
    CHARGE:  cpu time      0.0899: real time      0.0899
    --------------------------------------------
      LOOP:  cpu time      1.0916: real time      1.0922

 eigenvalue-minimisations  :     0
 total energy-change (2. order) :-0.1161154E+01  (-0.8479218E-01)
 number of electron      66.0000001 magnetization 
 augmentation part       31.7982793 magnetization 

 Free energy of the ion-electron system (eV)
  ---------------------------------------------------
  alpha Z        PSCENC =         3.82760131
  Ewald energy   TEWEN  =      3949.60846310
  -Hartree energ DENC   =     -9914.45310865
  -exchange      EXHF   =         0.00000000
  -V(xc)+E(xc)   XCENC  =       -69.49779813
  PAW double counting   =      6438.99177170    -6170.59315541
  entropy T*S    EENTRO =        -0.00000000
  eigenvalues    EBANDS =      -470.92351336
  atomic energy  EATOM  =      6223.57668875
  ---------------------------------------------------
  free energy    TOTEN  =        -9.46305069 eV

  energy without entropy =       -9.46305069  energy(sigma->0) =       -9.46305069


--------------------------------------------------------------------------------------------------------




--------------------------------------- Iteration      1(   8)  ---------------------------------------


    POTLOK:  cpu time      0.1479: real time      0.1479
    SETDIJ:  cpu time      0.1838: real time      0.1838
    TRIAL :  cpu time      0.1806: real time      0.1806
    CORREC:  cpu time      0.4773: real time      0.4774
    CHARGE:  cpu time      0.0897: real time      0.0898
    --------------------------------------------
      LOOP:  cpu time      1.0832: real time      1.0839

 eigenvalue-minimisations  :     0
 total energy-change (2. order) :-0.8464051E-01  (-0.2669065E-01)
 number of electron      66.0000001 magnetization 
 augmentation part       31.8319470 magnetization 

 Free energy of the ion-electron system (eV)
  ---------------------------------------------------
  alpha Z        PSCENC =         3.82760131
  Ewald energy   TEWEN  =      3949.60846310
  -Hartree energ DENC   =     -9902.29440163
  -exchange      EXHF   =         0.00000000
  -V(xc)+E(xc)   XCENC  =       -69.70621370
  PAW double counting   =      6418.35648936    -6149.85375986
  entropy T*S    EENTRO =        -0.00000000
  eigenvalues    EBANDS =      -483.06255852
  atomic energy  EATOM  =      6223.57668875
  ---------------------------------------------------
  free energy    TOTEN  =        -9.54769120 eV

  energy without entropy =       -9.54769120  energy(sigma->0) =       -9.54769120


--------------------------------------------------------------------------------------------------------




--------------------------------------- Iteration      1(   9)  ---------------------------------------


    POTLOK:  cpu time      0.1491: real time      0.1491
    SETDIJ:  cpu time      0.1838: real time      0.1838
    TRIAL :  cpu time      0.1806: real time      0.1806
    CORREC:  cpu time      0.4728: real time      0.4729
    CHARGE:  cpu time      0.0909: real time      0.0909
    --------------------------------------------
      LOOP:  cpu time      1.0817: real time      1.0820

 eigenvalue-minimisations  :     0
 total energy-change (2. order) :-0.2665171E-01  (-0.9061166E-02)
 number of electron      66.0000001 magnetization 
 augmentation part       31.8273386 magnetization 

 Free energy of the ion-electron system (eV)
  ---------------------------------------------------
  alpha Z        PSCENC =         3.82760131
  Ewald energy   TEWEN  =      3949.60846310
  -Hartree energ DENC   =     -9904.85658237
  -exchange      EXHF   =         0.00000000
  -V(xc)+E(xc)   XCENC  =       -69.58979783
  PAW double counting   =      6417.02691011    -6148.49347681
  entropy T*S    EENTRO =        -0.00000000
  eigenvalues    EBANDS =      -480.67414916
  atomic energy  EATOM  =      6223.57668875
  ---------------------------------------------------
  free energy    TOTEN  =        -9.57434291 eV

  energy without entropy =       -9.57434291  energy(sigma->0) =       -9.57434291


--------------------------------------------------------------------------------------------------------




--------------------------------------- Iteration      1(  10)  ---------------------------------------


    POTLOK:  cpu time      0.1424: real time      0.1424
    SETDIJ:  cpu time      0.1820: real time      0.1820
    TRIAL :  cpu time      0.1803: real time      0.1803
    CORREC:  cpu time      0.4662: real time      0.4663
    CHARGE:  cpu time      0.0894: real time      0.0894
    --------------------------------------------
      LOOP:  cpu time      1.0640: real time      1.0643

 eigenvalue-minimisations  :     0
 total energy-change (2. order) :-0.9068083E-02  (-0.2488764E-02)
 number of electron      66.0000001 magnetization 
 augmentation part       31.8251423 magnetization 

 Free energy of the ion-electron system (eV)
  ---------------------------------------------------
  alpha Z        PSCENC =         3.82760131
  Ewald energy   TEWEN  =      3949.60846310
  -Hartree energ DENC   =     -9902.96511635
  -exchange      EXHF   =         0.00000000
  -V(xc)+E(xc)   XCENC  =       -69.62830426
  PAW double counting   =      6414.25633988    -6145.57303237
  entropy T*S    EENTRO =        -0.00000000
  eigenvalues    EBANDS =      -482.68605105
  atomic energy  EATOM  =      6223.57668875
  ---------------------------------------------------
  free energy    TOTEN  =        -9.58341099 eV

  energy without entropy =       -9.58341099  energy(sigma->0) =       -9.58341099


--------------------------------------------------------------------------------------------------------




--------------------------------------- Iteration      1(  11)  ---------------------------------------


    POTLOK:  cpu time      0.1418: real time      0.1418
    SETDIJ:  cpu time      0.1793: real time      0.1793
    TRIAL :  cpu time      0.1802: real time      0.1802
    CORREC:  cpu time      0.4672: real time      0.4673
    CHARGE:  cpu time      0.0904: real time      0.0904
    --------------------------------------------
      LOOP:  cpu time      1.0636: real time      1.0639

 eigenvalue-minimisations  :     0
 total energy-change (2. order) :-0.2492724E-02  (-0.5401526E-03)
 number of electron      66.0000001 magnetization 
 augmentation part       31.8318551 magnetization 

 Free energy of the ion-electron system (eV)
  ---------------------------------------------------
  alpha Z        PSCENC =         3.82760131
  Ewald energy   TEWEN  =      3949.60846310
  -Hartree energ DENC   =     -9901.77819494
  -exchange      EXHF   =         0.00000000
  -V(xc)+E(xc)   XCENC  =       -69.64597487
  PAW double counting   =      6411.81326694    -6143.04821737
  entropy T*S    EENTRO =        -0.00000000
  eigenvalues    EBANDS =      -483.93953662
  atomic energy  EATOM  =      6223.57668875
  ---------------------------------------------------
  free energy    TOTEN  =        -9.58590371 eV

  energy without entropy =       -9.58590371  energy(sigma->0) =       -9.58590371


--------------------------------------------------------------------------------------------------------




--------------------------------------- Iteration      1(  12)  ---------------------------------------


    POTLOK:  cpu time      0.1431: real time      0.1431
    SETDIJ:  cpu time      0.1792: real time      0.1792
    TRIAL :  cpu time      0.1802: real time      0.1802
    CORREC:  cpu time      0.4699: real time      0.4700
    CHARGE:  cpu time      0.0898: real time      0.0898
    --------------------------------------------
      LOOP:  cpu time      1.0663: real time      1.0669

 eigenvalue-minimisations  :     0
 total energy-change (2. order) :-0.5355183E-03  (-0.1119114E-03)
 number of electron      66.0000001 magnetization 
 augmentation part       31.8283116 magnetization 

 Free energy of the ion-electron system (eV)
  ---------------------------------------------------
  alpha Z        PSCENC =         3.82760131
  Ewald energy   TEWEN  =      3949.60846310
  -Hartree energ DENC   =     -9903.02589812
  -exchange      EXHF   =         0.00000000
  -V(xc)+E(xc)   XCENC  =       -69.61791342
  PAW double counting   =      6411.53642456    -6142.77063138
  entropy T*S    EENTRO =        -0.00000000
  eigenvalues    EBANDS =      -482.72117402
  atomic energy  EATOM  =      6223.57668875
  ---------------------------------------------------
  free energy    TOTEN  =        -9.58643923 eV

  energy without entropy =       -9.58643923  energy(sigma->0) =       -9.58643923


--------------------------------------------------------------------------------------------------------




--------------------------------------- Iteration      1(  13)  ---------------------------------------


    POTLOK:  cpu time      0.1406: real time      0.1406
    SETDIJ:  cpu time      0.1857: real time      0.1857
    TRIAL :  cpu time      0.1802: real time      0.1802
    CORREC:  cpu time      0.4698: real time      0.4698
    CHARGE:  cpu time      0.0900: real time      0.0900
    --------------------------------------------
      LOOP:  cpu time      1.0701: real time      1.0704

 eigenvalue-minimisations  :     0
 total energy-change (2. order) :-0.1126841E-03  (-0.3708718E-04)
 number of electron      66.0000001 magnetization 
 augmentation part       31.8291166 magnetization 

 Free energy of the ion-electron system (eV)
  ---------------------------------------------------
  alpha Z        PSCENC =         3.82760131
  Ewald energy   TEWEN  =      3949.60846310
  -Hartree energ DENC   =     -9902.28476814
  -exchange      EXHF   =         0.00000000
  -V(xc)+E(xc)   XCENC  =       -69.63469769
  PAW double counting   =      6410.43910097    -6141.66131267
  entropy T*S    EENTRO =        -0.00000000
  eigenvalues    EBANDS =      -483.45762754
  atomic energy  EATOM  =      6223.57668875
  ---------------------------------------------------
  free energy    TOTEN  =        -9.58655192 eV

  energy without entropy =       -9.58655192  energy(sigma->0) =       -9.58655192


--------------------------------------------------------------------------------------------------------




--------------------------------------- Iteration      1(  14)  ---------------------------------------


    POTLOK:  cpu time      0.1419: real time      0.1419
    SETDIJ:  cpu time      0.1823: real time      0.1823
    TRIAL :  cpu time      0.1819: real time      0.1819
    CORREC:  cpu time      0.4694: real time      0.4694
    CHARGE:  cpu time      0.0903: real time      0.0903
    --------------------------------------------
      LOOP:  cpu time      1.0696: real time      1.0701

 eigenvalue-minimisations  :     0
 total energy-change (2. order) :-0.3639572E-04  (-0.6744884E-05)
 number of electron      66.0000001 magnetization 
 augmentation part       31.8295623 magnetization 

 Free energy of the ion-electron system (eV)
  ---------------------------------------------------
  alpha Z        PSCENC =         3.82760131
  Ewald energy   TEWEN  =      3949.60846310
  -Hartree energ DENC   =     -9902.46493803
  -exchange      EXHF   =         0.00000000
  -V(xc)+E(xc)   XCENC  =       -69.63112498
  PAW double counting   =      6410.29199392    -6141.51571320
  entropy T*S    EENTRO =        -0.00000000
  eigenvalues    EBANDS =      -483.27955919
  atomic energy  EATOM  =      6223.57668875
  ---------------------------------------------------
  free energy    TOTEN  =        -9.58658831 eV

  energy without entropy =       -9.58658831  energy(sigma->0) =       -9.58658831


--------------------------------------------------------------------------------------------------------




--------------------------------------- Iteration      1(  15)  ---------------------------------------


    POTLOK:  cpu time      0.1403: real time      0.1403
    SETDIJ:  cpu time      0.1817: real time      0.1817
    TRIAL :  cpu time      0.1801: real time      0.1802
    CORREC:  cpu time      0.4695: real time      0.4696
    CHARGE:  cpu time      0.0907: real time      0.0907
    --------------------------------------------
      LOOP:  cpu time      1.0664: real time      1.0669

 eigenvalue-minimisations  :     0
 total energy-change (2. order) :-0.6263318E-05  (-0.1099662E-05)
 number of electron      66.0000001 magnetization 
 augmentation part       31.8293052 magnetization 

 Free energy of the ion-electron system (eV)
  ---------------------------------------------------
  alpha Z        PSCENC =         3.82760131
  Ewald energy   TEWEN  =      3949.60846310
  -Hartree energ DENC   =     -9902.60551707
  -exchange      EXHF   =         0.00000000
  -V(xc)+E(xc)   XCENC  =       -69.62852397
  PAW double counting   =      6410.22348809    -6141.44811358
  entropy T*S    EENTRO =        -0.00000000
  eigenvalues    EBANDS =      -483.14068121
  atomic energy  EATOM  =      6223.57668875
  ---------------------------------------------------
  free energy    TOTEN  =        -9.58659458 eV

  energy without entropy =       -9.58659458  energy(sigma->0) =       -9.58659458


--------------------------------------------------------------------------------------------------------




--------------------------------------- Iteration      1(  16)  ---------------------------------------


    POTLOK:  cpu time      0.1402: real time      0.1402
    SETDIJ:  cpu time      0.1822: real time      0.1822
    TRIAL :  cpu time      0.1813: real time      0.1814
    CORREC:  cpu time      0.4703: real time      0.4709
    EDDIAG:  cpu time      0.0767: real time      0.0767
    CHARGE:  cpu time      0.0907: real time      0.0907
    --------------------------------------------
      LOOP:  cpu time      1.1450: real time      1.1462

 eigenvalue-minimisations  :     0
 total energy-change (2. order) :-0.9943915E-06  (-0.3493715E-06)
 number of electron      66.0000001 magnetization 
 augmentation part       31.8291886 magnetization 

 Free energy of the ion-electron system (eV)
  ---------------------------------------------------
  alpha Z        PSCENC =         3.82760131
  Ewald energy   TEWEN  =      3949.60846310
  -Hartree energ DENC   =     -9902.55894002
  -exchange      EXHF   =         0.00000000
  -V(xc)+E(xc)   XCENC  =       -69.62946027
  PAW double counting   =      6410.11356282    -6141.33740101
  entropy T*S    EENTRO =        -0.00000000
  eigenvalues    EBANDS =      -483.18711024
  atomic energy  EATOM  =      6223.57668875
  ---------------------------------------------------
  free energy    TOTEN  =        -9.58659557 eV

  energy without entropy =       -9.58659557  energy(sigma->0) =       -9.58659557


--------------------------------------------------------------------------------------------------------


  average scaling for gradient   1.1351


 average (electrostatic) potential at core
  the test charge radii are     1.1249
  (the norm of the test charge is              1.0000)
       1 -82.6661       2 -82.1855       3 -82.1867       4 -82.1881       5 -82.1845
       6 -82.1891



 E-fermi :  -4.4977     XC(G=0):  -0.3982     alpha+bet : -0.1722

 Fermi energy:        -4.4976630575

 k-point     1 :       0.0000    0.0000    0.0000
  band No.  band energies     occupation 
      1      -8.8024      2.00000
      2      -8.8021      2.00000
      3      -8.7710      2.00000
      4      -8.7692      2.00000
      5      -8.6241      2.00000
      6      -8.3983      2.00000
      7      -8.0714      2.00000
      8      -7.9365      2.00000
      9      -7.9346      2.00000
     10      -7.8349      2.00000
     11      -7.8301      2.00000
     12      -7.5950      2.00000
     13      -7.5878      2.00000
     14      -7.5477      2.00000
     15      -7.5460      2.00000
     16      -7.0889      2.00000
     17      -7.0881      2.00000
     18      -7.0772      2.00000
     19      -7.0681      2.00000
     20      -7.0648      2.00000
     21      -7.0258      2.00000
     22      -7.0214      2.00000
     23      -6.9123      2.00000
     24      -6.9118      2.00000
     25      -6.8373      2.00000
     26      -6.8225      2.00000
     27      -6.8167      2.00000
     28      -6.7069      2.00000
     29      -6.5656      2.00000
     30      -6.5216      2.00000
     31      -6.5215      2.00000
     32      -4.7586      2.00000
     33      -4.7479      2.00000
     34      -2.9420      0.00000
     35      -2.6003      0.00000
     36      -2.5991      0.00000
     37      -1.7323      0.00000
     38      -0.9358      0.00000
     39      -0.9335      0.00000
     40      -0.2714      0.00000
     41      -0.2703      0.00000
     42      -0.1845      0.00000
     43      -0.1664      0.00000
     44      -0.0609      0.00000
     45       0.2149      0.00000
     46       0.4367      0.00000
     47       0.4699      0.00000
     48       0.4915      0.00000


--------------------------------------------------------------------------------------------------------


 soft charge-density along one line, spin component           1
         0         1         2         3         4         5         6         7         8         9
 total charge-density along one line

 pseudopotential strength for first ion, spin component:           1
-10.566  -0.002  -0.002  -0.006  -0.000 -10.530  -0.002  -0.002
 -0.002 -10.562  -0.003   0.002   0.006  -0.002 -10.526  -0.003
 -0.002  -0.003 -10.565  -0.001   0.004  -0.002  -0.003 -10.529
 -0.006   0.002  -0.001 -10.569  -0.001  -0.006   0.002  -0.001
 -0.000   0.006   0.004  -0.001 -10.566  -0.000   0.006   0.003
-10.530  -0.002  -0.002  -0.006  -0.000 -10.471  -0.002  -0.002
 -0.002 -10.526  -0.003   0.002   0.006  -0.002 -10.467  -0.003
 -0.002  -0.003 -10.529  -0.001   0.003  -0.002  -0.003 -10.470
 -0.006   0.002  -0.001 -10.532  -0.001  -0.005   0.002  -0.001
 -0.000   0.006   0.003  -0.001 -10.530  -0.000   0.006   0.003
 -0.002   0.007  -0.001   0.002   0.004  -0.002   0.007  -0.001
 -0.004   0.012  -0.001   0.003   0.007  -0.004   0.012  -0.001
 -0.008   0.024   0.016   0.001   0.028  -0.008   0.023   0.015
  0.001  -0.029   0.026  -0.008  -0.001   0.001  -0.028   0.025
 -0.027   0.001   0.004   0.022  -0.007  -0.026   0.001   0.004
 -0.010   0.029   0.018   0.001   0.034  -0.010   0.028   0.018
  0.001  -0.035   0.031  -0.010  -0.001   0.001  -0.033   0.029
 -0.033   0.001   0.005   0.027  -0.009  -0.031   0.001   0.005
 total augmentation occupancy for first ion, spin component:           1
  3.213   0.128  -0.112  -0.176   0.108  -1.218  -0.142   0.083   0.107  -0.106   0.137  -0.018   0.013  -0.078  -0.259  -0.006
  0.128   2.894  -0.083  -0.078  -0.079  -0.142  -0.865   0.043   0.099   0.141  -0.391   0.053  -0.037  -0.065  -0.078   0.016
 -0.112  -0.083   3.319  -0.023   0.176   0.083   0.043  -1.308   0.011  -0.129   0.034  -0.004   0.189   0.249   0.054  -0.000
 -0.176  -0.078  -0.023   3.141  -0.155   0.107   0.099   0.011  -1.173   0.133  -0.109   0.015  -0.078  -0.018   0.212   0.004
  0.108  -0.079   0.176  -0.155   3.103  -0.106   0.141  -0.129   0.133  -1.111  -0.215   0.029   0.134   0.124  -0.125   0.010
 -1.218  -0.142   0.083   0.107  -0.106   1.195   0.153  -0.060  -0.052   0.105  -0.130   0.022  -0.007   0.076   0.272   0.001
 -0.142  -0.865   0.043   0.099   0.141   0.153   0.811  -0.012  -0.115  -0.191   0.370  -0.061   0.021   0.082   0.076  -0.003
  0.083   0.043  -1.308   0.011  -0.129  -0.060  -0.012   1.272  -0.001   0.092  -0.032   0.005  -0.195  -0.261  -0.056   0.010
  0.107   0.099   0.011  -1.173   0.133  -0.052  -0.115  -0.001   1.171  -0.115   0.104  -0.017   0.076   0.023  -0.222  -0.004
 -0.106   0.141  -0.129   0.133  -1.111   0.105  -0.191   0.092  -0.115   1.089   0.204  -0.034  -0.149  -0.121   0.128   0.007
  0.137  -0.391   0.034  -0.109  -0.215  -0.130   0.370  -0.032   0.104   0.204   1.942  -0.343   0.201  -0.164   0.058  -0.019
 -0.018   0.053  -0.004   0.015   0.029   0.022  -0.061   0.005  -0.017  -0.034  -0.343   0.063  -0.039   0.032  -0.011   0.003
  0.013  -0.037   0.189  -0.078   0.134  -0.007   0.021  -0.195   0.076  -0.149   0.201  -0.039   0.105   0.052  -0.018  -0.007
 -0.078  -0.065   0.249  -0.018   0.124   0.076   0.082  -0.261   0.023  -0.121  -0.164   0.032   0.052   0.126   0.015  -0.002
 -0.259  -0.078   0.054   0.212  -0.125   0.272   0.076  -0.056  -0.222   0.128   0.058  -0.011  -0.018   0.015   0.163   0.001
 -0.006   0.016  -0.000   0.004   0.010   0.001  -0.003   0.010  -0.004   0.007  -0.019   0.003  -0.007  -0.002   0.001   0.001
  0.004  -0.014   0.003  -0.004  -0.007  -0.004  -0.003   0.014  -0.001   0.007   0.016  -0.003  -0.002  -0.007  -0.000  -0.000
 -0.003   0.004  -0.000   0.003   0.002  -0.014  -0.004   0.003   0.012  -0.007  -0.006   0.001   0.001  -0.000  -0.009   0.000


------------------------ aborting loop because EDIFF is reached ----------------------------------------


    FORLOC:  cpu time      0.0054: real time      0.0054
    FORNL :  cpu time      0.1030: real time      0.1031
    STRESS:  cpu time      0.3042: real time      0.3043
    FORCOR:  cpu time      0.1182: real time      0.1182
    OFIELD:  cpu time      0.0007: real time      0.0007

  Hirshfeld charges:
            ion         q(e)     
   ------------------------------
      1     Ag          0.058
      2     Ag         -0.012
      3     Ag         -0.012
      4     Ag         -0.012
      5     Ag         -0.012
      6     Ag         -0.011

  Hirshfeld-I charges:
            ion         q(e)        dq(e)    
   ------------------------------------------
      1     Ag          0.150     -0.488E-04
      2     Ag         -0.030      0.983E-05
      3     Ag         -0.030      0.975E-05
      4     Ag         -0.030      0.971E-05
      5     Ag         -0.030      0.988E-05
      6     Ag         -0.029      0.961E-05

   Hirshfeld-I converged in  12 cycles. Convergence criterion |dq|< 0.500E-04 e

  Tkatchenko/Scheffler method for vdW energy calculation
  ---------------------------------------------------------------------------------------------

  Parameters of vdW forcefield:
            C6ts              R0ts          ALPHAts         R0scs        ALPHAscs        RELVOL 
            (au)              (au)           (au)            (au)          (au)                 
   ---------------------------------------------------------------------------------------------
   Ag        300.124          3.710         42.409          3.499         35.589          1.004
   Ag        329.500          3.795         45.406          3.651         40.404          0.970
   Ag        329.388          3.795         45.398          3.651         40.412          0.970
   Ag        329.250          3.795         45.388          3.651         40.428          0.970
   Ag        329.558          3.796         45.410          3.650         40.396          0.970
   Ag        329.163          3.795         45.382          3.651         40.425          0.970

  vdW correction parametrized for the method pbe       

  IVDW = 263
  VDW_RADIUS =    50.000 A
  VDW_SR =     0.830
  VDW_D =     6.000
  SCSRAD =   120.000 A
  LVDWSCS = T
  LSCSGRAD = T
  LSCALER0 = T
  ITIM =  1
  Edisp (eV):   -0.45342
    FORVDW:  cpu time     36.5714: real time     36.5739

  FORCE on cell =-STRESS in cart. coord.  units (eV):
  Direction    XX          YY          ZZ          XY          YZ          ZX
  --------------------------------------------------------------------------------------
  Alpha Z     3.82760     3.82760     3.82760
  Ewald    2227.24827   556.03579  1166.32227  -496.54418  1416.71290   400.08258
  Hartree  4050.88277  2674.56258  3177.09405  -403.89171  1152.43741   325.39509
  E(xc)    -347.26972  -348.22397  -347.87457    -0.30218     0.86205     0.24281
  Local   -7236.99255 -4195.50143 -5306.09871   898.51003 -2563.64461  -723.94055
  n-local   -67.68848   -67.52848   -67.59791     0.06689    -0.18593    -0.03574
  augment   549.62871   551.48381   550.80414     0.58883    -1.68366    -0.47272
  Kinetic   821.18834   825.77418   824.08302     1.46703    -4.18886    -1.16340
  Fock        0.00000     0.00000     0.00000     0.00000     0.00000     0.00000
  vdW        -0.18453    -0.07938    -0.11657     0.02741    -0.07845    -0.02246
  -------------------------------------------------------------------------------------
  Total       0.64041     0.35069     0.44334    -0.07787     0.23086     0.08561
  in kB       0.12826     0.07023     0.08879    -0.01560     0.04623     0.01715
  external pressure =        0.10 kB  Pullay stress =        0.00 kB


 VOLUME and BASIS-vectors are now :
 -----------------------------------------------------------------------------
  energy-cutoff  :      520.00
  volume of cell :     8000.00
      direct lattice vectors                 reciprocal lattice vectors
    20.000000000  0.000000000  0.000000000     0.050000000  0.000000000  0.000000000
     0.000000000 20.000000000  0.000000000     0.000000000  0.050000000  0.000000000
     0.000000000  0.000000000 20.000000000     0.000000000  0.000000000  0.050000000

  length of vectors
    20.000000000 20.000000000 20.000000000     0.050000000  0.050000000  0.050000000


 FORCES acting on ions:
    Electron-Ion                     Ewald-Force                    Non-Local-Force
 -----------------------------------------------------------------------------------------------
   0.122E+03 0.424E+03 -.347E+03   -.120E+03 -.420E+03 0.343E+03   -.120E+01 -.421E+01 0.343E+01
   0.427E+03 0.111E+03 0.472E+03   -.424E+03 -.110E+03 -.467E+03   -.358E+01 -.232E+00 -.482E+01
   0.519E+03 -.373E+03 -.902E+02   -.515E+03 0.369E+03 0.901E+02   -.441E+01 0.407E+01 0.203E+00
   -.140E+03 -.459E+03 -.433E+03   0.139E+03 0.455E+03 0.430E+03   0.146E+01 0.484E+01 0.328E+01
   -.640E+03 -.338E+02 -.759E+02   0.634E+03 0.328E+02 0.759E+02   0.590E+01 0.107E+01 0.495E-01
   -.289E+03 0.328E+03 0.476E+03   0.286E+03 -.326E+03 -.472E+03   0.279E+01 -.222E+01 -.486E+01
 -----------------------------------------------------------------------------------------------
   -.955E+00 -.332E+01 0.272E+01   -.114E-12 0.568E-13 0.000E+00   0.958E+00 0.332E+01 -.272E+01


 POSITION                                       TOTAL-FORCE (eV/Angst)
 -----------------------------------------------------------------------------------
      9.91144      9.52464     10.49773        -0.032448     -0.119824      0.092329
      8.49615      9.71779      8.24227        -0.082501     -0.010009     -0.091858
      8.14942     11.52399     10.33877        -0.091828      0.074068      0.008012
     10.60705     11.84903     11.61311         0.031759      0.088976      0.069245
     12.47004     10.25330     10.28421         0.120341      0.015910      0.013207
     11.16389      8.91263      8.21903         0.054676     -0.049121     -0.090935
 -----------------------------------------------------------------------------------
    total drift:                                0.003013     -0.007325     -0.000200


--------------------------------------------------------------------------------------------------------



  FREE ENERGIE OF THE ION-ELECTRON SYSTEM (eV)
  ---------------------------------------------------
  free  energy   TOTEN  =       -10.04001658 eV

  energy  without entropy=      -10.04001658  energy(sigma->0) =      -10.04001658



--------------------------------------------------------------------------------------------------------


    POTLOK:  cpu time      0.3196: real time      0.3196


--------------------------------------------------------------------------------------------------------


     LOOP+:  cpu time     52.3611: real time     52.3763
    4ORBIT:  cpu time      0.0000: real time      0.0000

 total amount of memory used by VASP MPI-rank0   108557. kBytes
=======================================================================

   base      :      30000. kBytes
   nonlr-proj:       1889. kBytes
   fftplans  :      31079. kBytes
   grid      :      42969. kBytes
   one-center:         31. kBytes
   wavefun   :       2589. kBytes

  
  
 General timing and accounting informations for this job:
 ========================================================
  
                  Total CPU time used (sec):       63.949
                            User time (sec):       62.937
                          System time (sec):        1.012
                         Elapsed time (sec):       65.374
  
                   Maximum memory used (kb):      204364.
                   Average memory used (kb):          N/A
  
                          Minor page faults:        24265
                          Major page faults:            0
                 Voluntary context switches:         5707
