 vasp.6.3.0 20Jan22 (build Apr  1 2022 16:44:48) complex                         
 executed on        HPECrayEX_GCC date 2023.01.06  18:04:15
 running  768 mpi-ranks, with    1 threads/rank
 distrk:  each k-point on  384 cores,    2 groups
 distr:  one band on NCORE=   4 cores,   96 groups


--------------------------------------------------------------------------------------------------------


 INCAR:
   SYSTEM = MgO-rocksalt
   ISMEAR = 0
   SIGMA = 0.05
   EDIFF = 1E-6
   ALGO = ALL
   ISTART = 0
   IBRION = -1
   NSW = 0
   ISYM = 2
   LHFCALC = .TRUE.
   GGA = PE
   IVDW = 212
   LVDWEXPANSION = .TRUE.
   VDW_SR = 0.85
   ENCUT = 520
   PREC = Accurate
   LASPH = .TRUE.
   LREAL = Auto
   ISPIN = 1
   NELM = 200
   NELMIN = 8
   NCORE = 4
   KPAR = 2
   LWAVE = .FALSE.
   LCHARG = .FALSE.

 POTCAR:    PAW_PBE Au 04Oct2007                  
 -----------------------------------------------------------------------------
|                                                                             |
|           W    W    AA    RRRRR   N    N  II  N    N   GGGG   !!!           |
|           W    W   A  A   R    R  NN   N  II  NN   N  G    G  !!!           |
|           W    W  A    A  R    R  N N  N  II  N N  N  G       !!!           |
|           W WW W  AAAAAA  RRRRR   N  N N  II  N  N N  G  GGG   !            |
|           WW  WW  A    A  R   R   N   NN  II  N   NN  G    G                |
|           W    W  A    A  R    R  N    N  II  N    N   GGGG   !!!           |
|                                                                             |
|     You have selected ISYM=2 for a HF type calculation. This will           |
|     symmetrize the charge density but not the exchange potential. I         |
|     suggest to use ISYM=3 instead. This uses symmetry to obtain the         |
|     orbitals at all k-points in the Brillouin zone, but does not apply      |
|     symmetry to the Hartree potential directly. The resultant charge        |
|     might have lower symmetry than the crystal but, at least, Hartree       |
|     and exchange are fully compatible.                                      |
|                                                                             |
 -----------------------------------------------------------------------------

 POTCAR:    PAW_PBE Au 04Oct2007                  
   SHA256 =  d0044ae04e2bdce24051b198fc5c053d722a5bc6fe3c3b100514a13fc5d2db88 Au/POTCAR             
   COPYR  = (c) Copyright 04Oct2007 Georg Kresse                                                    
   COPYR  = This file is part of the software VASP. Any use, copying, and all other rights are regul
   COPYR  = If you do not have a valid VASP license, you may not use, copy or distribute this file. 
   VRHFIN =Au: s1d10                                                                                
   LEXCH  = PE                                                                                      
   EATOM  =   926.0867 eV,   68.0654 Ry                                                             
                                                                                                    
   TITEL  = PAW_PBE Au 04Oct2007                                                                    
   LULTRA =        F    use ultrasoft PP ?                                                          
   IUNSCR =        1    unscreen: 0-lin 1-nonlin 2-no                                               
   RPACOR =    2.330    partial core radius                                                         
   POMASS =  196.966; ZVAL   =   11.000    mass and valenz                                          
   RCORE  =    2.500    outmost cutoff radius                                                       
   RWIGS  =    2.840; RWIGS  =    1.503    wigner-seitz radius (au A)                               
   ENMAX  =  229.943; ENMIN  =  172.457 eV                                                          
   ICORE  =        3    local potential                                                             
   LCOR   =        T    correct aug charges                                                         
   LPAW   =        T    paw PP                                                                      
   EAUG   =  356.670                                                                                
   DEXC   =    0.000                                                                                
   RMAX   =    2.562    core radius for proj-oper                                                   
   RAUG   =    1.300    factor for augmentation sphere                                              
   RDEP   =    2.598    radius for radial grids                                                     
   RDEPT  =    2.193    core radius for aug-charge                                                  
                                                                                                    
   Atomic configuration                                                                             
   16 entries                                                                                       
     n  l   j            E        occ.                                                              
     1  0  0.50    -80748.5001   2.0000                                                             
     2  0  0.50    -14244.7466   2.0000                                                             
     2  1  1.50    -12310.9591   6.0000                                                             
     3  0  0.50     -3362.1768   2.0000                                                             
     3  1  1.50     -2801.5463   6.0000                                                             
     3  2  2.50     -2203.8206  10.0000                                                             
     4  0  0.50      -729.8168   2.0000                                                             
     4  1  1.50      -546.0527   6.0000                                                             
     4  2  2.50      -325.7302  10.0000                                                             
     4  3  3.50       -81.1472  14.0000                                                             
     5  0  0.50      -108.3201   2.0000                                                             
     5  1  1.50       -59.7479   6.0000                                                             
     5  2  2.50        -6.8783  10.0000                                                             
     6  0  0.50        -5.7602   1.0000                                                             
     6  1  1.50        -6.8029   0.0000                                                             
     5  3  2.50        -1.3606   0.0000                                                             
   Description                                                                                      
     l       E           TYP  RCUT    TYP  RCUT                                                     
     2     -6.8782861     23  2.500                                                                 
     2     -8.2388687     23  2.500                                                                 
     0     -5.7601759     23  2.500                                                                 
     0     -0.8493231     23  2.500                                                                 
     1     -2.7211652     23  2.500                                                                 
     1     27.2116520     23  2.500                                                                 
     3     -1.3605826     23  2.500                                                                 
  local pseudopotential read in
  partial core-charges read in
  partial kinetic energy density read in
  atomic valenz-charges read in
  non local Contribution for L=           2  read in
    real space projection operators read in
  non local Contribution for L=           2  read in
    real space projection operators read in
  non local Contribution for L=           0  read in
    real space projection operators read in
  non local Contribution for L=           0  read in
    real space projection operators read in
  non local Contribution for L=           1  read in
    real space projection operators read in
  non local Contribution for L=           1  read in
    real space projection operators read in
    PAW grid and wavefunctions read in

   number of l-projection  operators is LMAX  =           6
   number of lm-projection operators is LMMAX =          18

 -----------------------------------------------------------------------------
|                                                                             |
|               ----> ADVICE to this user running VASP <----                  |
|                                                                             |
|     You have a (more or less) 'small supercell' and for smaller cells       |
|     it is recommended to use the reciprocal-space projection scheme!        |
|     The real-space optimization is not efficient for small cells and it     |
|     is also less accurate ...                                               |
|     Therefore, set LREAL=.FALSE. in the INCAR file.                         |
|                                                                             |
 -----------------------------------------------------------------------------

 Optimization of the real space projectors (new method)

 maximal supplied QI-value         = 15.12
 optimisation between [QCUT,QGAM] = [ 11.64, 23.28] = [ 37.95,151.78] Ry 
 Optimized for a Real-space Cutoff    1.49 Angstroem

   l    n(q)    QCUT    max X(q) W(low)/X(q) W(high)/X(q)  e(spline) 
   2      9    11.641    60.898    0.24E-03    0.10E-03    0.19E-06
   2      9    11.641    58.894    0.25E-03    0.10E-03    0.19E-06
   0     10    11.641   109.617    0.73E-04    0.33E-04    0.11E-06
   0     10    11.641    75.026    0.71E-04    0.32E-04    0.11E-06
   1     10    11.641    16.344    0.27E-04    0.97E-04    0.16E-06
   1     10    11.641    10.160    0.23E-04    0.77E-04    0.13E-06
  PAW_PBE Au 04Oct2007                  :
 energy of atom  1       EATOM= -926.0867
 kinetic energy error for atom=    0.0034 (will be added to EATOM!!)


 POSCAR: au4
  positions in direct lattice
  velocities in cartesian coordinates
 exchange correlation table for  LEXCH =        8
   RHO(1)=    0.500       N(1)  =     2000
   RHO(2)=  100.500       N(2)  =     4000



--------------------------------------------------------------------------------------------------------


 ion  position               nearest neighbor table
   1  0.972  0.107  0.999-   4 2.58   3 2.66
   2  0.960  0.861  0.953-   3 2.51
   3  0.993  0.975  0.992-   2 2.51   4 2.66   1 2.66
   4  0.076  0.057  0.056-   1 2.58   3 2.66

  LATTYP: Found a simple cubic cell.
 ALAT       =    20.0000000000
  
  Lattice vectors:
  
 A1 = (  20.0000000000,   0.0000000000,   0.0000000000)
 A2 = (   0.0000000000,  20.0000000000,   0.0000000000)
 A3 = (   0.0000000000,   0.0000000000,  20.0000000000)


Analysis of symmetry for initial positions (statically):
=====================================================================
 Subroutine PRICEL returns:
 Original cell was already a primitive cell.
 

 Routine SETGRP: Setting up the symmetry group for a 
 simple cubic supercell.


 Subroutine GETGRP returns: Found  1 space group operations
 (whereof  1 operations were pure point group operations)
 out of a pool of 48 trial point group operations.


The static configuration has the point symmetry C_1 .


Analysis of symmetry for dynamics (positions and initial velocities):
=====================================================================
 Subroutine PRICEL returns:
 Original cell was already a primitive cell.
 

 Routine SETGRP: Setting up the symmetry group for a 
 simple cubic supercell.


 Subroutine GETGRP returns: Found  1 space group operations
 (whereof  1 operations were pure point group operations)
 out of a pool of 48 trial point group operations.


The dynamic configuration has the point symmetry C_1 .


 Subroutine INISYM returns: Found  1 space group operations
 (whereof  1 operations are pure point group operations),
 and found     1 'primitive' translations


----------------------------------------------------------------------------------------

                                     Primitive cell                                     

  volume of cell :    8000.0000

  direct lattice vectors                    reciprocal lattice vectors
    20.000000000  0.000000000  0.000000000     0.050000000  0.000000000  0.000000000
     0.000000000 20.000000000  0.000000000     0.000000000  0.050000000  0.000000000
     0.000000000  0.000000000 20.000000000     0.000000000  0.000000000  0.050000000

  length of vectors
    20.000000000 20.000000000 20.000000000     0.050000000  0.050000000  0.050000000

  position of ions in fractional coordinates (direct lattice)
     0.971513168  0.106654628  0.999023488
     0.959562945  0.860818041  0.953391080
     0.992833549  0.975340255  0.991717852
     0.076090339  0.057187077  0.055867579

  ion indices of the primitive-cell ions
   primitive index   ion index
                 1           1
                 2           2
                 3           3
                 4           4

----------------------------------------------------------------------------------------



 KPOINTS: KPOINTS created by Atomic Simulation Env

Automatic generation of k-mesh.
 Grid dimensions read from file:
 generate k-points for:    1    1    1

 Generating k-lattice:

  Cartesian coordinates                     Fractional coordinates (reciprocal lattice)
     0.050000000  0.000000000  0.000000000     1.000000000  0.000000000  0.000000000
     0.000000000  0.050000000  0.000000000     0.000000000  1.000000000  0.000000000
     0.000000000  0.000000000  0.050000000     0.000000000  0.000000000  1.000000000

  Length of vectors
     0.050000000  0.050000000  0.050000000

  Shift w.r.t. Gamma in fractional coordinates (k-lattice)
     0.000000000  0.000000000  0.000000000

 
 Subroutine IBZKPT returns following result:
 ===========================================
 
 Found      1 irreducible k-points:
 
 Following reciprocal coordinates:
            Coordinates               Weight
  0.000000  0.000000  0.000000      1.000000
 
 Following cartesian coordinates:
            Coordinates               Weight
  0.000000  0.000000  0.000000      1.000000
 
 
 Subroutine IBZKPT_HF returns following result:
 ==============================================
 
 Found      1 k-points in 1st BZ
 the following      1 k-points will be used (e.g. in the exchange kernel)
 Following reciprocal coordinates:   # in IRBZ
  0.000000  0.000000  0.000000    1.00000000   1 t-inv F


--------------------------------------------------------------------------------------------------------




 Dimension of arrays:
   k-points           NKPTS =      1   k-points in BZ     NKDIM =      1   number of bands    NBANDS=     96
   number of dos      NEDOS =    301   number of ions     NIONS =      4
   non local maximal  LDIM  =      6   non local SUM 2l+1 LMDIM =     18
   total plane-waves  NPLWV = ******
   max r-space proj   IRMAX =   5885   max aug-charges    IRDMAX=  25995
   dimension x,y,z NGX =   150 NGY =  150 NGZ =  150
   dimension x,y,z NGXF=   300 NGYF=  300 NGZF=  300
   support grid    NGXF=   300 NGYF=  300 NGZF=  300
   ions per type =               4
   NGX,Y,Z   is equivalent  to a cutoff of  12.47, 12.47, 12.47 a.u.
   NGXF,Y,Z  is equivalent  to a cutoff of  24.94, 24.94, 24.94 a.u.

 SYSTEM =  MgO-rocksalt                            
 POSCAR =  au4                                     

 Startparameter for this run:
   NWRITE =      2    write-flag & timer
   PREC   = accura    normal or accurate (medium, high low for compatibility)
   ISTART =      0    job   : 0-new  1-cont  2-samecut
   ICHARG =      2    charge: 1-file 2-atom 10-const
   ISPIN  =      1    spin polarized calculation?
   LNONCOLLINEAR =      F non collinear calculations
   LSORBIT =      F    spin-orbit coupling
   INIWAV =      1    electr: 0-lowe 1-rand  2-diag
   LASPH  =      T    aspherical Exc in radial PAW
 Electronic Relaxation 1
   ENCUT  =  520.0 eV  38.22 Ry    6.18 a.u.  37.19 37.19 37.19*2*pi/ulx,y,z
   ENINI  =  520.0     initial cutoff
   ENAUG  =  356.7 eV  augmentation charge cutoff
   NELM   =    200;   NELMIN=  8; NELMDL= -5     # of ELM steps 
   EDIFF  = 0.1E-05   stopping-criterion for ELM
   LREAL  =      T    real-space projection
   NLSPLINE    = F    spline interpolate recip. space projectors
   LCOMPAT=      F    compatible to vasp.4.4
   GGA_COMPAT  = T    GGA compatible to vasp.4.4-vasp.4.6
   LMAXPAW     = -100 max onsite density
   LMAXMIX     =    2 max onsite mixed and CHGCAR
   VOSKOWN=      0    Vosko Wilk Nusair interpolation
   ROPT   =   -0.00025
 Ionic relaxation
   EDIFFG = 0.1E-04   stopping-criterion for IOM
   NSW    =      0    number of steps for IOM
   NBLOCK =      1;   KBLOCK =      1    inner block; outer block 
   IBRION =     -1    ionic relax: 0-MD 1-quasi-New 2-CG
   NFREE  =      0    steps in history (QN), initial steepest desc. (CG)
   ISIF   =      0    stress and relaxation
   IWAVPR =     10    prediction:  0-non 1-charg 2-wave 3-comb
   ISYM   =      2    0-nonsym 1-usesym 2-fastsym
   LCORR  =      T    Harris-Foulkes like correction to forces

   POTIM  = 0.5000    time-step for ionic-motion
   TEIN   =    0.0    initial temperature
   TEBEG  =    0.0;   TEEND  =   0.0 temperature during run
   SMASS  =  -3.00    Nose mass-parameter (am)
   estimated Nose-frequenzy (Omega)   =  0.10E-29 period in steps = 0.13E+47 mass=  -0.914E-26a.u.
   SCALEE = 1.0000    scale energy and forces
   NPACO  =    256;   APACO  = 10.0  distance and # of slots for P.C.
   PSTRESS=    0.0 pullay stress

  Mass of Ions in am
   POMASS = 196.97
  Ionic Valenz
   ZVAL   =  11.00
  Atomic Wigner-Seitz radii
   RWIGS  =  -1.00
  virtual crystal weights 
   VCA    =   1.00
   NELECT =      44.0000    total number of electrons
   NUPDOWN=      -1.0000    fix difference up-down

 DOS related values:
   EMIN   =  10.00;   EMAX   =-10.00  energy-range for DOS
   EFERMI =   0.00
   ISMEAR =     0;   SIGMA  =   0.05  broadening in eV -4-tet -1-fermi 0-gaus

 Electronic relaxation 2 (details)
   IALGO  =     58    algorithm
   LDIAG  =      T    sub-space diagonalisation (order eigenvalues)
   LSUBROT=      F    optimize rotation matrix (better conditioning)
   TURBO    =      0    0=normal 1=particle mesh
   IRESTART =      0    0=no restart 2=restart with 2 vectors
   NREBOOT  =      0    no. of reboots
   NMIN     =      0    reboot dimension
   EREF     =   0.00    reference energy to select bands
   IMIX   =      4    mixing-type and parameters
     AMIX     =   0.40;   BMIX     =  1.00
     AMIX_MAG =   1.60;   BMIX_MAG =  1.00
     AMIN     =   0.10
     WC   =   100.;   INIMIX=   1;  MIXPRE=   1;  MAXMIX= -45

 Intra band minimization:
   WEIMIN = 0.0000     energy-eigenvalue tresh-hold
   EBREAK =  0.26E-08  absolut break condition
   DEPER  =   0.30     relativ break condition  

   TIME   =   0.40     timestep for ELM

  volume/ion in A,a.u.               =    2000.00     13496.67
  Fermi-wavevector in a.u.,A,eV,Ry     =   0.288976  0.546086  1.136187  0.083507
  Thomas-Fermi vector in A             =   1.146265

 Write flags
   LWAVE        =      F    write WAVECAR
   LDOWNSAMPLE  =      F    k-point downsampling of WAVECAR
   LCHARG       =      F    write CHGCAR
   LVTOT        =      F    write LOCPOT, total local potential
   LVHAR        =      F    write LOCPOT, Hartree potential only
   LELF         =      F    write electronic localiz. function (ELF)
   LORBIT       =      0    0 simple, 1 ext, 2 COOP (PROOUT), +10 PAW based schemes


 Dipole corrections
   LMONO  =      F    monopole corrections only (constant potential shift)
   LDIPOL =      F    correct potential (dipole corrections)
   IDIPOL =      0    1-x, 2-y, 3-z, 4-all directions 
   EPSILON=  1.0000000 bulk dielectric constant

 Exchange correlation treatment:
   GGA     =    PE    GGA type
   LEXCH   =     8    internal setting for exchange type
   LIBXC   =     F    Libxc                    
   VOSKOWN =     0    Vosko Wilk Nusair interpolation
   EXXOEP  =     0    0=HF, 1=EXX-LHF (local Hartree Fock) 2=EXX OEP
   LHFCALC =     T    Hartree Fock is set to
   LSYMGRAD=     F    symmetrize gradient (conserves proper symmetry)
   PRECFOCK=normal    Normal, Fast or Accurate (Low or Medium for compatibility)
   LRHFCALC=     F    long range Hartree Fock
   LRSCOR  =     F    long range correlation only (use DFT for short range part)
   LTHOMAS =     F    Thomas Fermi screening in HF
   LMODELHF=     F    short range full HF, long range fraction AEXX
   LFOCKACE=     T    use Adeptively-Compressed-Exchange operator
   ENCUT4O =  -1.0   cutoff for four orbital integrals eV
   LMAXFOCK=     4    L truncation for augmentation on plane wave grid
   LMAXFOCKAE=  -1    L truncation for all-electron charge restoration on plane wave grid
   NMAXFOCKAE=   1    number of basis functions for all-electron charge restoration
   LFOCKAEDFT=     F  apply the AE augmentation even for DFT
   NKREDX  =     1    reduce k-point grid by
   NKREDY  =     1    reduce k-point grid by
   NKREDZ  =     1    reduce k-point grid by
   SHIFTRED=     F    shift reduced grid of Gamma
   HFKIDENT=     F    idential grid for each k-point
   ODDONLY =     F    use only odd q-grid points
   EVENONLY=     F    use only even q-grid points
   HFALPHA =   -1.0000 decay constant for conv. correction
   MCALPHA =    0.0000 extent of test-charge in conv. correction in multipole expansion
   AEXX    =    0.2500 exact exchange contribution
   HFSCREEN=    0.0000 screening length (either q_TF or 0.3 A-1)
   HFSCREENC=   0.0000 screening length for correlation (either q_TF or 0.3 A-1)
   HFRCUT  =    0.0000 spherical cutoff for potential kernel
   ALDAX   =    0.7500 LDA exchange part
   AGGAX   =    0.7500 GGA exchange part
   ALDAC   =    1.0000 LDA correlation
   AGGAC   =    1.0000 GGA correlation
   ENCUTFOCK=  -1.0 apply spherical cutoff to Coloumb kernel
   NBANDSGWLOW=     1    first orbital included in HF term
   NBLOCK_FOCK=    64    blocking factor in FOCK_ACC

 Linear response parameters
   LEPSILON=     F    determine dielectric tensor
   LRPA    =     F    only Hartree local field effects (RPA)
   LNABLA  =     F    use nabla operator in PAW spheres
   LVEL    =     F    velocity operator in full k-point grid
   CSHIFT  =0.1000    complex shift for real part using Kramers Kronig
   OMEGAMAX=  -1.0    maximum frequency
   DEG_THRESHOLD= 0.2000000E-02 threshold for treating states as degnerate
   RTIME   =   -0.100 relaxation time in fs
  (WPLASMAI=    0.000 imaginary part of plasma frequency in eV, 0.658/RTIME)
   DFIELD  = 0.0000000 0.0000000 0.0000000 field for delta impulse in time

  Optional k-point grid parameters
   LKPOINTS_OPT  =     F    use optional k-point grid
   KPOINTS_OPT_MODE=     1    mode for optional k-point grid

 Orbital magnetization related:
   ORBITALMAG=     F  switch on orbital magnetization
   LCHIMAG   =     F  perturbation theory with respect to B field
   DQ        =  0.001000  dq finite difference perturbation B field
   LLRAUG    =     F  two centre corrections for induced B field



--------------------------------------------------------------------------------------------------------


 Static calculation
 charge density and potential will be updated during run
 non-spin polarized calculation
 Conjugate gradient for all bands (Freysoldt, et al. PRB 79, 241103 (2009))
 preconditioned conjugated gradient                                        
 perform sub-space diagonalisation
    before iterative eigenvector-optimisation
 modified Broyden-mixing scheme, WC =      100.0
 initial mixing is a Kerker type mixing with AMIX =  0.4000 and BMIX =      1.0000
 Hartree-type preconditioning will be used
 using additional bands           74
 real space projection scheme for non local part
 use partial core corrections
 no Harris-corrections to forces 
 use gradient corrections 
 use of overlap-Matrix (Vanderbilt PP)
 Gauss-broadening in eV      SIGMA  =   0.05


--------------------------------------------------------------------------------------------------------


  energy-cutoff  :      520.00
  volume of cell :     8000.00
      direct lattice vectors                 reciprocal lattice vectors
    20.000000000  0.000000000  0.000000000     0.050000000  0.000000000  0.000000000
     0.000000000 20.000000000  0.000000000     0.000000000  0.050000000  0.000000000
     0.000000000  0.000000000 20.000000000     0.000000000  0.000000000  0.050000000

  length of vectors
    20.000000000 20.000000000 20.000000000     0.050000000  0.050000000  0.050000000



 k-points in units of 2pi/SCALE and weight: KPOINTS created by Atomic Simulation Env
   0.00000000  0.00000000  0.00000000       1.000

 k-points in reciprocal lattice and weights: KPOINTS created by Atomic Simulation Env
   0.00000000  0.00000000  0.00000000       1.000

 position of ions in fractional coordinates (direct lattice) 
   0.97151317  0.10665463  0.99902349
   0.95956294  0.86081804  0.95339108
   0.99283355  0.97534025  0.99171785
   0.07609034  0.05718708  0.05586758

 position of ions in cartesian coordinates  (Angst):
  19.43026335  2.13309255 19.98046977
  19.19125889 17.21636081 19.06782160
  19.85667098 19.50680509 19.83435705
   1.52180678  1.14374154  1.11735158



--------------------------------------------------------------------------------------------------------


 k-point   1 :   0.0000 0.0000 0.0000  plane waves:  215503

 maximum and minimum number of plane-waves per node :     53900    53857

 maximum number of plane-waves:    215503
 maximum index in each direction: 
   IXMAX=   37   IYMAX=   37   IZMAX=   37
   IXMIN=  -37   IYMIN=  -37   IZMIN=  -37


 real space projection operators:
  total allocation   :       3184.03 KBytes
  max/ min on nodes  :        877.64        717.61


 parallel 3D FFT for wavefunctions:
    minimum data exchange during FFTs selected (reduces bandwidth)
 parallel 3D FFT for charge:
    minimum data exchange during FFTs selected (reduces bandwidth)


 FFT grid for exact exchange (Hartree Fock) 
  NGX =112; NGY =112; NGZ =112


 Radii for the augmentation spheres in the non-local exchange
 for species   1 augmentation radius   1.512 (default was   1.210)
       energy cutoff for augmentation   2080.0

 real space projection operators:
  total allocation   :       1985.74 KBytes
  max/ min on nodes  :        501.56        488.67

 Maximum index for augmentation-charges in exchange          635
  SETUP_FOCK is finished

 total amount of memory used by VASP MPI-rank0   122549. kBytes
=======================================================================

   base      :      30000. kBytes
   nonlr-proj:       2257. kBytes
   fftplans  :      48991. kBytes
   grid      :      38630. kBytes
   one-center:         15. kBytes
   HF        :         64. kBytes
   wavefun   :       2592. kBytes

     INWAV:  cpu time      0.0000: real time      0.0000
 Broyden mixing: mesh for mixing (old mesh)
   NGX = 75   NGY = 75   NGZ = 75
  (NGX  =300   NGY  =300   NGZ  =300)
  gives a total of 421875 points

 initial charge density was supplied:
 charge density of overlapping atoms calculated
 number of electron      44.0000000 magnetization 
 keeping initial charge density in first step


--------------------------------------------------------------------------------------------------------


 Maximum index for non-local projection operator         1633
 Maximum index for augmentation-charges         1022 (set IRDMAX)


--------------------------------------------------------------------------------------------------------


    FEWALD:  cpu time      0.0006: real time      0.0006


--------------------------------------- Iteration      1(   1)  ---------------------------------------


    POTLOK:  cpu time      0.1153: real time      0.1155
    SETDIJ:  cpu time      0.1826: real time      0.1826
    TRIAL :  cpu time      0.5489: real time      0.5495
    CORREC:  cpu time      0.0010: real time      0.0010
    --------------------------------------------
      LOOP:  cpu time      0.8490: real time      0.8497

 eigenvalue-minimisations  :   192
 total energy-change (2. order) :-0.9254017E+04  (-0.9684475E+03)
 number of electron      44.0000000 magnetization 
 augmentation part       44.0000000 magnetization 

 Free energy of the ion-electron system (eV)
  ---------------------------------------------------
  alpha Z        PSCENC =         2.32959210
  Ewald energy   TEWEN  =      1433.62714800
  -Hartree energ DENC   =     -4980.45595042
  -exchange      EXHF   =         0.00000000
  -V(xc)+E(xc)   XCENC  =        57.06399068
  PAW double counting   =      3496.39001341   -12934.52217745
  entropy T*S    EENTRO =        -0.06630851
  eigenvalues    EBANDS =       -30.35189566
  atomic energy  EATOM  =      3701.96848987
  ---------------------------------------------------
  free energy    TOTEN  =     -9254.01709798 eV

  energy without entropy =    -9253.95078947  energy(sigma->0) =    -9253.98394372
  exchange ACFDT corr.  =         0.00000000  see jH, gK, PRB 81, 115126


--------------------------------------------------------------------------------------------------------




--------------------------------------- Iteration      1(   2)  ---------------------------------------


    TRIAL :  cpu time      1.9163: real time      1.9168
    CORREC:  cpu time      0.0003: real time      0.0003
    --------------------------------------------
      LOOP:  cpu time      1.9196: real time      1.9251

 eigenvalue-minimisations  :   384
 total energy-change (2. order) :-0.4062001E+03  (-0.4043129E+03)
 number of electron      44.0000000 magnetization 
 augmentation part       44.0000000 magnetization 

 Free energy of the ion-electron system (eV)
  ---------------------------------------------------
  alpha Z        PSCENC =         2.32959210
  Ewald energy   TEWEN  =      1433.62714800
  -Hartree energ DENC   =     -4980.45595042
  -exchange      EXHF   =         0.00000000
  -V(xc)+E(xc)   XCENC  =        57.06399068
  PAW double counting   =      3496.39001341   -12934.52217745
  entropy T*S    EENTRO =        -0.00000000
  eigenvalues    EBANDS =      -436.61833770
  atomic energy  EATOM  =      3701.96848987
  ---------------------------------------------------
  free energy    TOTEN  =     -9660.21723152 eV

  energy without entropy =    -9660.21723152  energy(sigma->0) =    -9660.21723152
  exchange ACFDT corr.  =         0.00000000  see jH, gK, PRB 81, 115126


--------------------------------------------------------------------------------------------------------




--------------------------------------- Iteration      1(   3)  ---------------------------------------


    TRIAL :  cpu time      0.5398: real time      0.5399
    CORREC:  cpu time      0.0003: real time      0.0003
    --------------------------------------------
      LOOP:  cpu time      0.5476: real time      0.5480

 eigenvalue-minimisations  :   192
 total energy-change (2. order) :-0.9895653E+01  (-0.9895596E+01)
 number of electron      44.0000000 magnetization 
 augmentation part       44.0000000 magnetization 

 Free energy of the ion-electron system (eV)
  ---------------------------------------------------
  alpha Z        PSCENC =         2.32959210
  Ewald energy   TEWEN  =      1433.62714800
  -Hartree energ DENC   =     -4980.45595042
  -exchange      EXHF   =         0.00000000
  -V(xc)+E(xc)   XCENC  =        57.06399068
  PAW double counting   =      3496.39001341   -12934.52217745
  entropy T*S    EENTRO =        -0.00000000
  eigenvalues    EBANDS =      -446.51399117
  atomic energy  EATOM  =      3701.96848987
  ---------------------------------------------------
  free energy    TOTEN  =     -9670.11288498 eV

  energy without entropy =    -9670.11288498  energy(sigma->0) =    -9670.11288498
  exchange ACFDT corr.  =         0.00000000  see jH, gK, PRB 81, 115126


--------------------------------------------------------------------------------------------------------




--------------------------------------- Iteration      1(   4)  ---------------------------------------


    TRIAL :  cpu time      1.8303: real time      1.8307
    CORREC:  cpu time      0.0003: real time      0.0003
    --------------------------------------------
      LOOP:  cpu time      1.8385: real time      1.8391

 eigenvalue-minimisations  :   384
 total energy-change (2. order) :-0.5464430E-01  (-0.5464359E-01)
 number of electron      44.0000000 magnetization 
 augmentation part       44.0000000 magnetization 

 Free energy of the ion-electron system (eV)
  ---------------------------------------------------
  alpha Z        PSCENC =         2.32959210
  Ewald energy   TEWEN  =      1433.62714800
  -Hartree energ DENC   =     -4980.45595042
  -exchange      EXHF   =         0.00000000
  -V(xc)+E(xc)   XCENC  =        57.06399068
  PAW double counting   =      3496.39001341   -12934.52217745
  entropy T*S    EENTRO =        -0.00000000
  eigenvalues    EBANDS =      -446.56863547
  atomic energy  EATOM  =      3701.96848987
  ---------------------------------------------------
  free energy    TOTEN  =     -9670.16752928 eV

  energy without entropy =    -9670.16752928  energy(sigma->0) =    -9670.16752928
  exchange ACFDT corr.  =         0.00000000  see jH, gK, PRB 81, 115126


--------------------------------------------------------------------------------------------------------




--------------------------------------- Iteration      1(   5)  ---------------------------------------


    POTLOK:  cpu time      0.1019: real time      0.1019
    SETDIJ:  cpu time      0.1750: real time      0.1750
    TRIAL :  cpu time      8.6800: real time      8.6849
    CORREC:  cpu time      0.0003: real time      0.0003
    CHARGE:  cpu time      0.0974: real time      0.0975
    --------------------------------------------
      LOOP:  cpu time      9.0618: real time      9.0672

 eigenvalue-minimisations  :   288
 total energy-change (2. order) : 0.9661704E+04  (-0.4302681E+01)
 number of electron      44.0000003 magnetization 
 augmentation part       16.7039026 magnetization 

 Free energy of the ion-electron system (eV)
  ---------------------------------------------------
  alpha Z        PSCENC =         2.32959210
  Ewald energy   TEWEN  =      1433.62714800
  -Hartree energ DENC   =     -4980.45595042
  -exchange      EXHF   =       104.22852300
  -V(xc)+E(xc)   XCENC  =        43.57998994
  PAW double counting   =      3509.30231918    -3422.21618814
  entropy T*S    EENTRO =        -0.00000000
  eigenvalues    EBANDS =      -400.82777934
  atomic energy  EATOM  =      3701.96848987
  ---------------------------------------------------
  free energy    TOTEN  =        -8.46385581 eV

  energy without entropy =       -8.46385581  energy(sigma->0) =       -8.46385581
  exchange ACFDT corr.  =        -0.00000000  see jH, gK, PRB 81, 115126


--------------------------------------------------------------------------------------------------------




--------------------------------------- Iteration      1(   6)  ---------------------------------------


    POTLOK:  cpu time      0.0997: real time      0.0997
    SETDIJ:  cpu time      0.1818: real time      0.1818
    TRIAL :  cpu time      9.2188: real time      9.2237
    CORREC:  cpu time      8.2378: real time      8.2433
    CHARGE:  cpu time      0.0956: real time      0.0959
    --------------------------------------------
      LOOP:  cpu time     17.8424: real time     17.8534

 eigenvalue-minimisations  :     0
 total energy-change (2. order) : 0.1443008E+01  (-0.1040151E+01)
 number of electron      44.0000003 magnetization 
 augmentation part       16.4288312 magnetization 

 Free energy of the ion-electron system (eV)
  ---------------------------------------------------
  alpha Z        PSCENC =         2.32959210
  Ewald energy   TEWEN  =      1433.62714800
  -Hartree energ DENC   =     -5061.60348602
  -exchange      EXHF   =       100.01366765
  -V(xc)+E(xc)   XCENC  =        44.68120557
  PAW double counting   =      4317.27965822    -4234.39644585
  entropy T*S    EENTRO =        -0.00000000
  eigenvalues    EBANDS =      -310.92067690
  atomic energy  EATOM  =      3701.96848987
  ---------------------------------------------------
  free energy    TOTEN  =        -7.02084736 eV

  energy without entropy =       -7.02084736  energy(sigma->0) =       -7.02084736
  exchange ACFDT corr.  =        -0.00000000  see jH, gK, PRB 81, 115126


--------------------------------------------------------------------------------------------------------




--------------------------------------- Iteration      1(   7)  ---------------------------------------


    POTLOK:  cpu time      0.1130: real time      0.1130
    SETDIJ:  cpu time      0.1666: real time      0.1666
    TRIAL :  cpu time      7.9310: real time      7.9362
    CORREC:  cpu time      8.1766: real time      8.1816
    CHARGE:  cpu time      0.0945: real time      0.0948
    --------------------------------------------
      LOOP:  cpu time     16.4902: real time     16.5009

 eigenvalue-minimisations  :     0
 total energy-change (2. order) :-0.1045743E+01  (-0.2009127E+00)
 number of electron      44.0000003 magnetization 
 augmentation part       16.4916605 magnetization 

 Free energy of the ion-electron system (eV)
  ---------------------------------------------------
  alpha Z        PSCENC =         2.32959210
  Ewald energy   TEWEN  =      1433.62714800
  -Hartree energ DENC   =     -4994.31406900
  -exchange      EXHF   =        98.76732356
  -V(xc)+E(xc)   XCENC  =        43.46585515
  PAW double counting   =      4222.66046532    -4140.19957039
  entropy T*S    EENTRO =        -0.00000000
  eigenvalues    EBANDS =      -376.37182471
  atomic energy  EATOM  =      3701.96848987
  ---------------------------------------------------
  free energy    TOTEN  =        -8.06659009 eV

  energy without entropy =       -8.06659009  energy(sigma->0) =       -8.06659009
  exchange ACFDT corr.  =        -0.00000000  see jH, gK, PRB 81, 115126


--------------------------------------------------------------------------------------------------------




--------------------------------------- Iteration      1(   8)  ---------------------------------------


    POTLOK:  cpu time      0.1050: real time      0.1051
    SETDIJ:  cpu time      0.1747: real time      0.1747
    TRIAL :  cpu time      7.8898: real time      7.8949
    CORREC:  cpu time      8.2430: real time      8.2476
    CHARGE:  cpu time      0.0958: real time      0.0961
    --------------------------------------------
      LOOP:  cpu time     16.5122: real time     16.5269

 eigenvalue-minimisations  :     0
 total energy-change (2. order) :-0.2004286E+00  (-0.7794830E-01)
 number of electron      44.0000003 magnetization 
 augmentation part       16.4519856 magnetization 

 Free energy of the ion-electron system (eV)
  ---------------------------------------------------
  alpha Z        PSCENC =         2.32959210
  Ewald energy   TEWEN  =      1433.62714800
  -Hartree energ DENC   =     -4999.21173838
  -exchange      EXHF   =        98.99919405
  -V(xc)+E(xc)   XCENC  =        43.72500351
  PAW double counting   =      4224.80331929    -4142.16961744
  entropy T*S    EENTRO =        -0.00000000
  eigenvalues    EBANDS =      -372.33840973
  atomic energy  EATOM  =      3701.96848987
  ---------------------------------------------------
  free energy    TOTEN  =        -8.26701872 eV

  energy without entropy =       -8.26701872  energy(sigma->0) =       -8.26701872
  exchange ACFDT corr.  =        -0.00000000  see jH, gK, PRB 81, 115126


--------------------------------------------------------------------------------------------------------




--------------------------------------- Iteration      1(   9)  ---------------------------------------


    POTLOK:  cpu time      0.1034: real time      0.1034
    SETDIJ:  cpu time      0.1776: real time      0.1776
    TRIAL :  cpu time      7.9919: real time      7.9967
    CORREC:  cpu time      8.1831: real time      8.1884
    CHARGE:  cpu time      0.0971: real time      0.0975
    --------------------------------------------
      LOOP:  cpu time     16.5610: real time     16.5717

 eigenvalue-minimisations  :     0
 total energy-change (2. order) :-0.7658800E-01  (-0.1710889E-01)
 number of electron      44.0000003 magnetization 
 augmentation part       16.4526816 magnetization 

 Free energy of the ion-electron system (eV)
  ---------------------------------------------------
  alpha Z        PSCENC =         2.32959210
  Ewald energy   TEWEN  =      1433.62714800
  -Hartree energ DENC   =     -4995.92929571
  -exchange      EXHF   =        98.86509063
  -V(xc)+E(xc)   XCENC  =        43.60719639
  PAW double counting   =      4221.93361734    -4139.49102492
  entropy T*S    EENTRO =        -0.00000000
  eigenvalues    EBANDS =      -375.25442043
  atomic energy  EATOM  =      3701.96848987
  ---------------------------------------------------
  free energy    TOTEN  =        -8.34360671 eV

  energy without entropy =       -8.34360671  energy(sigma->0) =       -8.34360671
  exchange ACFDT corr.  =        -0.00000000  see jH, gK, PRB 81, 115126


--------------------------------------------------------------------------------------------------------




--------------------------------------- Iteration      1(  10)  ---------------------------------------


    POTLOK:  cpu time      0.0995: real time      0.0995
    SETDIJ:  cpu time      0.1787: real time      0.1787
    TRIAL :  cpu time      7.9673: real time      7.9718
    CORREC:  cpu time      8.2719: real time      8.2780
    CHARGE:  cpu time      0.0948: real time      0.0952
    --------------------------------------------
      LOOP:  cpu time     16.6197: real time     16.6310

 eigenvalue-minimisations  :     0
 total energy-change (2. order) :-0.1712242E-01  (-0.4634392E-02)
 number of electron      44.0000003 magnetization 
 augmentation part       16.4618192 magnetization 

 Free energy of the ion-electron system (eV)
  ---------------------------------------------------
  alpha Z        PSCENC =         2.32959210
  Ewald energy   TEWEN  =      1433.62714800
  -Hartree energ DENC   =     -4993.43672470
  -exchange      EXHF   =        98.82009984
  -V(xc)+E(xc)   XCENC  =        43.56634706
  PAW double counting   =      4222.64901674    -4140.19888175
  entropy T*S    EENTRO =        -0.00000000
  eigenvalues    EBANDS =      -377.68581629
  atomic energy  EATOM  =      3701.96848987
  ---------------------------------------------------
  free energy    TOTEN  =        -8.36072913 eV

  energy without entropy =       -8.36072913  energy(sigma->0) =       -8.36072913
  exchange ACFDT corr.  =        -0.00000000  see jH, gK, PRB 81, 115126


--------------------------------------------------------------------------------------------------------




--------------------------------------- Iteration      1(  11)  ---------------------------------------


    POTLOK:  cpu time      0.1028: real time      0.1028
    SETDIJ:  cpu time      0.1779: real time      0.1779
    TRIAL :  cpu time      8.0223: real time      8.0274
    CORREC:  cpu time      8.2732: real time      8.2782
    CHARGE:  cpu time      0.0946: real time      0.0950
    --------------------------------------------
      LOOP:  cpu time     16.6791: real time     16.6901

 eigenvalue-minimisations  :     0
 total energy-change (2. order) :-0.4632624E-02  (-0.1628386E-02)
 number of electron      44.0000003 magnetization 
 augmentation part       16.4558498 magnetization 

 Free energy of the ion-electron system (eV)
  ---------------------------------------------------
  alpha Z        PSCENC =         2.32959210
  Ewald energy   TEWEN  =      1433.62714800
  -Hartree energ DENC   =     -4994.25672174
  -exchange      EXHF   =        98.83658411
  -V(xc)+E(xc)   XCENC  =        43.58679957
  PAW double counting   =      4224.58752272    -4142.11715615
  entropy T*S    EENTRO =        -0.00000000
  eigenvalues    EBANDS =      -376.92762025
  atomic energy  EATOM  =      3701.96848987
  ---------------------------------------------------
  free energy    TOTEN  =        -8.36536176 eV

  energy without entropy =       -8.36536176  energy(sigma->0) =       -8.36536176
  exchange ACFDT corr.  =        -0.00000000  see jH, gK, PRB 81, 115126


--------------------------------------------------------------------------------------------------------




--------------------------------------- Iteration      1(  12)  ---------------------------------------


    POTLOK:  cpu time      0.1056: real time      0.1056
    SETDIJ:  cpu time      0.1730: real time      0.1730
    TRIAL :  cpu time      7.9875: real time      7.9926
    CORREC:  cpu time      8.1145: real time      8.1201
    CHARGE:  cpu time      0.0971: real time      0.0975
    --------------------------------------------
      LOOP:  cpu time     16.4854: real time     16.4967

 eigenvalue-minimisations  :     0
 total energy-change (2. order) :-0.1630261E-02  (-0.5155231E-03)
 number of electron      44.0000003 magnetization 
 augmentation part       16.4562365 magnetization 

 Free energy of the ion-electron system (eV)
  ---------------------------------------------------
  alpha Z        PSCENC =         2.32959210
  Ewald energy   TEWEN  =      1433.62714800
  -Hartree energ DENC   =     -4993.36432512
  -exchange      EXHF   =        98.81355244
  -V(xc)+E(xc)   XCENC  =        43.56674794
  PAW double counting   =      4223.03486780    -4140.59087205
  entropy T*S    EENTRO =        -0.00000000
  eigenvalues    EBANDS =      -377.75219301
  atomic energy  EATOM  =      3701.96848987
  ---------------------------------------------------
  free energy    TOTEN  =        -8.36699202 eV

  energy without entropy =       -8.36699202  energy(sigma->0) =       -8.36699202
  exchange ACFDT corr.  =        -0.00000000  see jH, gK, PRB 81, 115126


--------------------------------------------------------------------------------------------------------




--------------------------------------- Iteration      1(  13)  ---------------------------------------


    POTLOK:  cpu time      0.0973: real time      0.0973
    SETDIJ:  cpu time      0.1805: real time      0.1805
    TRIAL :  cpu time      8.0103: real time      8.0154
    CORREC:  cpu time      8.0875: real time      8.0925
    CHARGE:  cpu time      0.0945: real time      0.0948
    --------------------------------------------
      LOOP:  cpu time     16.4773: real time     16.4880

 eigenvalue-minimisations  :     0
 total energy-change (2. order) :-0.5149417E-03  (-0.1609762E-03)
 number of electron      44.0000003 magnetization 
 augmentation part       16.4554302 magnetization 

 Free energy of the ion-electron system (eV)
  ---------------------------------------------------
  alpha Z        PSCENC =         2.32959210
  Ewald energy   TEWEN  =      1433.62714800
  -Hartree energ DENC   =     -4993.54979031
  -exchange      EXHF   =        98.81623102
  -V(xc)+E(xc)   XCENC  =        43.57019646
  PAW double counting   =      4223.14183354    -4140.70084327
  entropy T*S    EENTRO =        -0.00000000
  eigenvalues    EBANDS =      -377.57036437
  atomic energy  EATOM  =      3701.96848987
  ---------------------------------------------------
  free energy    TOTEN  =        -8.36750696 eV

  energy without entropy =       -8.36750696  energy(sigma->0) =       -8.36750696
  exchange ACFDT corr.  =        -0.00000000  see jH, gK, PRB 81, 115126


--------------------------------------------------------------------------------------------------------




--------------------------------------- Iteration      1(  14)  ---------------------------------------


    POTLOK:  cpu time      0.0989: real time      0.0990
    SETDIJ:  cpu time      0.1806: real time      0.1806
    TRIAL :  cpu time      7.9387: real time      7.9438
    CORREC:  cpu time      8.2689: real time      8.2740
    CHARGE:  cpu time      0.0946: real time      0.0948
    --------------------------------------------
      LOOP:  cpu time     16.5892: real time     16.6002

 eigenvalue-minimisations  :     0
 total energy-change (2. order) :-0.1613588E-03  (-0.4925161E-04)
 number of electron      44.0000003 magnetization 
 augmentation part       16.4559868 magnetization 

 Free energy of the ion-electron system (eV)
  ---------------------------------------------------
  alpha Z        PSCENC =         2.32959210
  Ewald energy   TEWEN  =      1433.62714800
  -Hartree energ DENC   =     -4993.29631827
  -exchange      EXHF   =        98.81198013
  -V(xc)+E(xc)   XCENC  =        43.56602556
  PAW double counting   =      4222.93045074    -4140.49147287
  entropy T*S    EENTRO =        -0.00000000
  eigenvalues    EBANDS =      -377.81356358
  atomic energy  EATOM  =      3701.96848987
  ---------------------------------------------------
  free energy    TOTEN  =        -8.36766832 eV

  energy without entropy =       -8.36766832  energy(sigma->0) =       -8.36766832
  exchange ACFDT corr.  =        -0.00000000  see jH, gK, PRB 81, 115126


--------------------------------------------------------------------------------------------------------




--------------------------------------- Iteration      1(  15)  ---------------------------------------


    POTLOK:  cpu time      0.0969: real time      0.0969
    SETDIJ:  cpu time      0.1819: real time      0.1819
    TRIAL :  cpu time      7.9357: real time      7.9405
    CORREC:  cpu time      8.2283: real time      8.2337
    CHARGE:  cpu time      0.0947: real time      0.0950
    --------------------------------------------
      LOOP:  cpu time     16.5446: real time     16.5559

 eigenvalue-minimisations  :     0
 total energy-change (2. order) :-0.4895219E-04  (-0.1394164E-04)
 number of electron      44.0000003 magnetization 
 augmentation part       16.4554797 magnetization 

 Free energy of the ion-electron system (eV)
  ---------------------------------------------------
  alpha Z        PSCENC =         2.32959210
  Ewald energy   TEWEN  =      1433.62714800
  -Hartree energ DENC   =     -4993.41390118
  -exchange      EXHF   =        98.81443580
  -V(xc)+E(xc)   XCENC  =        43.56844554
  PAW double counting   =      4223.14549104    -4140.70602818
  entropy T*S    EENTRO =        -0.00000000
  eigenvalues    EBANDS =      -377.70139027
  atomic energy  EATOM  =      3701.96848987
  ---------------------------------------------------
  free energy    TOTEN  =        -8.36771727 eV

  energy without entropy =       -8.36771727  energy(sigma->0) =       -8.36771727
  exchange ACFDT corr.  =        -0.00000000  see jH, gK, PRB 81, 115126


--------------------------------------------------------------------------------------------------------




--------------------------------------- Iteration      1(  16)  ---------------------------------------


    POTLOK:  cpu time      0.0958: real time      0.0958
    SETDIJ:  cpu time      0.1800: real time      0.1800
    TRIAL :  cpu time      8.0334: real time      8.0379
    CORREC:  cpu time      8.2813: real time      8.2874
    CHARGE:  cpu time      0.0938: real time      0.0941
    --------------------------------------------
      LOOP:  cpu time     16.6919: real time     16.7031

 eigenvalue-minimisations  :     0
 total energy-change (2. order) :-0.1402154E-04  (-0.5846922E-05)
 number of electron      44.0000003 magnetization 
 augmentation part       16.4555874 magnetization 

 Free energy of the ion-electron system (eV)
  ---------------------------------------------------
  alpha Z        PSCENC =         2.32959210
  Ewald energy   TEWEN  =      1433.62714800
  -Hartree energ DENC   =     -4993.33189632
  -exchange      EXHF   =        98.81275683
  -V(xc)+E(xc)   XCENC  =        43.56681065
  PAW double counting   =      4223.02541106    -4140.58787081
  entropy T*S    EENTRO =        -0.00000000
  eigenvalues    EBANDS =      -377.77817267
  atomic energy  EATOM  =      3701.96848987
  ---------------------------------------------------
  free energy    TOTEN  =        -8.36773129 eV

  energy without entropy =       -8.36773129  energy(sigma->0) =       -8.36773129
  exchange ACFDT corr.  =        -0.00000000  see jH, gK, PRB 81, 115126


--------------------------------------------------------------------------------------------------------




--------------------------------------- Iteration      1(  17)  ---------------------------------------


    POTLOK:  cpu time      0.1001: real time      0.1001
    SETDIJ:  cpu time      0.1766: real time      0.1766
    TRIAL :  cpu time      7.8962: real time      7.9011
    CORREC:  cpu time      8.3052: real time      8.3098
    CHARGE:  cpu time      0.0936: real time      0.0939
    --------------------------------------------
      LOOP:  cpu time     16.5794: real time     16.5895

 eigenvalue-minimisations  :     0
 total energy-change (2. order) :-0.5757618E-05  (-0.2251984E-05)
 number of electron      44.0000003 magnetization 
 augmentation part       16.4555163 magnetization 

 Free energy of the ion-electron system (eV)
  ---------------------------------------------------
  alpha Z        PSCENC =         2.32959210
  Ewald energy   TEWEN  =      1433.62714800
  -Hartree energ DENC   =     -4993.37288055
  -exchange      EXHF   =        98.81347929
  -V(xc)+E(xc)   XCENC  =        43.56756174
  PAW double counting   =      4223.02106901    -4140.58395634
  entropy T*S    EENTRO =        -0.00000000
  eigenvalues    EBANDS =      -377.73824017
  atomic energy  EATOM  =      3701.96848987
  ---------------------------------------------------
  free energy    TOTEN  =        -8.36773705 eV

  energy without entropy =       -8.36773705  energy(sigma->0) =       -8.36773705
  exchange ACFDT corr.  =        -0.00000000  see jH, gK, PRB 81, 115126


--------------------------------------------------------------------------------------------------------




--------------------------------------- Iteration      1(  18)  ---------------------------------------


    POTLOK:  cpu time      0.0999: real time      0.0999
    SETDIJ:  cpu time      0.1773: real time      0.1773
    TRIAL :  cpu time      8.0329: real time      8.0380
    CORREC:  cpu time      8.2178: real time      8.2235
    CHARGE:  cpu time      0.0945: real time      0.0948
    --------------------------------------------
      LOOP:  cpu time     16.6265: real time     16.6416

 eigenvalue-minimisations  :     0
 total energy-change (2. order) :-0.2254503E-05  (-0.7859009E-06)
 number of electron      44.0000003 magnetization 
 augmentation part       16.4554328 magnetization 

 Free energy of the ion-electron system (eV)
  ---------------------------------------------------
  alpha Z        PSCENC =         2.32959210
  Ewald energy   TEWEN  =      1433.62714800
  -Hartree energ DENC   =     -4993.37349354
  -exchange      EXHF   =        98.81346088
  -V(xc)+E(xc)   XCENC  =        43.56758257
  PAW double counting   =      4222.99955904    -4140.56313167
  entropy T*S    EENTRO =        -0.00000000
  eigenvalues    EBANDS =      -377.73694657
  atomic energy  EATOM  =      3701.96848987
  ---------------------------------------------------
  free energy    TOTEN  =        -8.36773930 eV

  energy without entropy =       -8.36773930  energy(sigma->0) =       -8.36773930
  exchange ACFDT corr.  =        -0.00000000  see jH, gK, PRB 81, 115126


--------------------------------------------------------------------------------------------------------




--------------------------------------- Iteration      1(  19)  ---------------------------------------


    POTLOK:  cpu time      0.0958: real time      0.0958
    SETDIJ:  cpu time      0.1816: real time      0.1816
    TRIAL :  cpu time      8.0341: real time      8.0394
    CORREC:  cpu time      8.2820: real time      8.2876
    EDDIAG:  cpu time      7.9073: real time      7.9116
    CHARGE:  cpu time      0.0928: real time      0.0930
    --------------------------------------------
      LOOP:  cpu time     24.6010: real time     24.6169

 eigenvalue-minimisations  :     0
 total energy-change (2. order) :-0.7928306E-06  (-0.3943904E-06)
 number of electron      44.0000003 magnetization 
 augmentation part       16.4555043 magnetization 

 Free energy of the ion-electron system (eV)
  ---------------------------------------------------
  alpha Z        PSCENC =         2.32959210
  Ewald energy   TEWEN  =      1433.62714800
  -Hartree energ DENC   =     -4993.36632323
  -exchange      EXHF   =        98.81364593
  -V(xc)+E(xc)   XCENC  =        43.56738584
  PAW double counting   =      4222.98854840    -4140.55258457
  entropy T*S    EENTRO =        -0.00000000
  eigenvalues    EBANDS =      -377.74325930
  atomic energy  EATOM  =      3701.96848987
  ---------------------------------------------------
  free energy    TOTEN  =        -8.36774010 eV

  energy without entropy =       -8.36774010  energy(sigma->0) =       -8.36774010
  exchange ACFDT corr.  =        -0.00000000  see jH, gK, PRB 81, 115126


--------------------------------------------------------------------------------------------------------


  average scaling for gradient   1.4082


 average (electrostatic) potential at core
  the test charge radii are     1.2098
  (the norm of the test charge is              1.0000)
       1 -71.1653       2 -69.7418       3 -70.7525       4 -71.1656



 E-fermi :  -5.9611     XC(G=0):  -0.2235     alpha+bet : -0.1187

 Fermi energy:        -5.9610738268

 k-point     1 :       0.0000    0.0000    0.0000
  band No.  band energies     occupation 
      1     -11.5899      2.00000
      2     -10.5925      2.00000
      3     -10.1737      2.00000
      4     -10.1590      2.00000
      5      -9.5541      2.00000
      6      -9.4487      2.00000
      7      -9.1690      2.00000
      8      -9.1159      2.00000
      9      -8.6453      2.00000
     10      -8.5814      2.00000
     11      -8.4408      2.00000
     12      -8.3865      2.00000
     13      -8.3489      2.00000
     14      -8.1473      2.00000
     15      -8.1180      2.00000
     16      -8.0999      2.00000
     17      -7.4191      2.00000
     18      -7.4179      2.00000
     19      -7.1525      2.00000
     20      -7.1423      2.00000
     21      -6.9659      2.00000
     22      -6.1987      2.00000
     23      -3.7714      0.00000
     24      -2.4742      0.00000
     25      -1.1542      0.00000
     26      -0.4671      0.00000
     27      -0.2678      0.00000
     28      -0.1059      0.00000
     29       0.1188      0.00000
     30       0.2615      0.00000
     31       0.3996      0.00000
     32       0.4376      0.00000
     33       0.4750      0.00000
     34       0.4942      0.00000
     35       0.5378      0.00000
     36       0.5499      0.00000
     37       0.7006      0.00000
     38       0.7746      0.00000
     39       0.7969      0.00000
     40       0.8148      0.00000
     41       0.8208      0.00000
     42       0.8345      0.00000
     43       0.8430      0.00000
     44       0.8787      0.00000
     45       0.9041      0.00000
     46       0.9565      0.00000
     47       0.9991      0.00000
     48       1.0112      0.00000
     49       1.0285      0.00000
     50       1.0671      0.00000
     51       1.2008      0.00000
     52       1.2169      0.00000
     53       1.2320      0.00000
     54       1.2497      0.00000
     55       1.2983      0.00000
     56       1.3597      0.00000
     57       1.3752      0.00000
     58       1.4622      0.00000
     59       1.5540      0.00000
     60       1.5925      0.00000
     61       1.6018      0.00000
     62       1.6379      0.00000
     63       1.6752      0.00000
     64       1.6858      0.00000
     65       1.7243      0.00000
     66       1.8246      0.00000
     67       1.8522      0.00000
     68       1.8701      0.00000
     69       1.9029      0.00000
     70       1.9099      0.00000
     71       1.9266      0.00000
     72       1.9319      0.00000
     73       1.9376      0.00000
     74       1.9464      0.00000
     75       1.9520      0.00000
     76       1.9591      0.00000
     77       1.9661      0.00000
     78       1.9710      0.00000
     79       1.9752      0.00000
     80       1.9969      0.00000
     81       2.0065      0.00000
     82       2.0241      0.00000
     83       2.0644      0.00000
     84       2.0770      0.00000
     85       2.0929      0.00000
     86       2.0988      0.00000
     87       2.1431      0.00000
     88       2.1798      0.00000
     89       2.2312      0.00000
     90       2.2416      0.00000
     91       2.2654      0.00000
     92       2.2806      0.00000
     93       2.2897      0.00000
     94       2.2922      0.00000
     95       2.2982      0.00000
     96       2.3128      0.00000


--------------------------------------------------------------------------------------------------------


 soft charge-density along one line, spin component           1
         0         1         2         3         4         5         6         7         8         9
 total charge-density along one line

 pseudopotential strength for first ion, spin component:           1
 -8.390  -0.025  -0.038   0.015  -0.001  -8.548  -0.025  -0.037
 -0.025  -8.353   0.005   0.032  -0.007  -0.025  -8.512   0.005
 -0.038   0.005  -8.342  -0.011  -0.009  -0.037   0.005  -8.501
  0.015   0.032  -0.011  -8.354  -0.030   0.015   0.031  -0.011
 -0.001  -0.007  -0.009  -0.030  -8.400  -0.001  -0.007  -0.009
 -8.548  -0.025  -0.037   0.015  -0.001  -8.690  -0.024  -0.036
 -0.025  -8.512   0.005   0.031  -0.007  -0.024  -8.655   0.005
 -0.037   0.005  -8.501  -0.011  -0.009  -0.036   0.005  -8.644
  0.015   0.031  -0.011  -8.513  -0.029   0.015   0.030  -0.011
 -0.001  -0.007  -0.009  -0.029  -8.558  -0.001  -0.006  -0.009
 -0.029  -0.009  -0.022   0.026  -0.003  -0.029  -0.009  -0.022
 -0.042  -0.013  -0.032   0.038  -0.004  -0.041  -0.013  -0.032
 -0.030  -0.013  -0.018  -0.000  -0.030  -0.029  -0.013  -0.017
 -0.000   0.029  -0.016  -0.030  -0.000  -0.000   0.028  -0.015
  0.029  -0.000   0.017  -0.014  -0.030   0.028  -0.000   0.017
 -0.034  -0.015  -0.020   0.000  -0.035  -0.034  -0.015  -0.020
  0.000   0.032  -0.018  -0.034  -0.001   0.000   0.032  -0.017
  0.033   0.000   0.020  -0.017  -0.033   0.032   0.000   0.019
 total augmentation occupancy for first ion, spin component:           1
  3.340   0.240   0.269  -0.288  -0.153  -1.245  -0.280  -0.355   0.356   0.139   1.341  -0.455  -0.081   0.056   0.146  -0.023
  0.240   3.019   0.004  -0.274  -0.093  -0.281  -0.843   0.000   0.338   0.119   0.411  -0.142  -0.007   0.074   0.058  -0.013
  0.269   0.004   2.907  -0.029   0.095  -0.354   0.001  -0.767   0.036  -0.167   1.038  -0.345  -0.100   0.006   0.050  -0.010
 -0.288  -0.274  -0.029   3.015   0.217   0.354   0.337   0.035  -0.920  -0.321  -1.182   0.381   0.040  -0.077  -0.111  -0.005
 -0.153  -0.093   0.095   0.217   3.314   0.140   0.119  -0.168  -0.320  -1.366   0.209  -0.078  -0.117  -0.058  -0.092  -0.025
 -1.245  -0.281  -0.354   0.354   0.140   1.146   0.314   0.425  -0.409  -0.130  -1.180   0.425   0.130  -0.059  -0.184  -0.007
 -0.280  -0.843   0.001   0.337   0.119   0.314   0.678  -0.006  -0.391  -0.140  -0.356   0.129   0.024  -0.106  -0.060  -0.001
 -0.355   0.000  -0.767   0.035  -0.168   0.425  -0.006   0.629  -0.039   0.228  -0.923   0.329   0.135   0.010  -0.078  -0.007
  0.356   0.338   0.036  -0.920  -0.320  -0.409  -0.391  -0.039   0.819   0.406   1.030  -0.358  -0.048   0.120   0.143   0.004
  0.139   0.119  -0.167  -0.321  -1.366  -0.130  -0.140   0.228   0.406   1.389  -0.212   0.084   0.166   0.063   0.130  -0.006
  1.341   0.411   1.038  -1.182   0.209  -1.180  -0.356  -0.923   1.030  -0.212   3.935  -1.304  -0.328   0.138   0.306   0.015
 -0.455  -0.142  -0.345   0.381  -0.078   0.425   0.129   0.329  -0.358   0.084  -1.304   0.439   0.118  -0.047  -0.106  -0.006
 -0.081  -0.007  -0.100   0.040  -0.117   0.130   0.024   0.135  -0.048   0.166  -0.328   0.118   0.057  -0.004  -0.017  -0.004
  0.056   0.074   0.006  -0.077  -0.058  -0.059  -0.106   0.010   0.120   0.063   0.138  -0.047  -0.004   0.026   0.020   0.001
  0.146   0.058   0.050  -0.111  -0.092  -0.184  -0.060  -0.078   0.143   0.130   0.306  -0.106  -0.017   0.020   0.052   0.002
 -0.023  -0.013  -0.010  -0.005  -0.025  -0.007  -0.001  -0.007   0.004  -0.006   0.015  -0.006  -0.004   0.001   0.002   0.001
 -0.005   0.030  -0.019  -0.027   0.004   0.004   0.001   0.002  -0.003  -0.003  -0.005   0.002   0.001  -0.002  -0.001  -0.000
  0.022  -0.005   0.014  -0.005  -0.028   0.007   0.004   0.004  -0.008  -0.003  -0.013   0.005   0.002  -0.001  -0.004  -0.000


------------------------ aborting loop because EDIFF is reached ----------------------------------------


    FORLOC:  cpu time      0.0022: real time      0.0022
    FORHF :  cpu time      1.4333: real time      1.4350
    FORNL :  cpu time      0.0952: real time      0.0952
    FORCOR:  cpu time      0.2449: real time      0.2449
    OFIELD:  cpu time      0.0002: real time      0.0002

  Hirshfeld charges:
            ion         q(e)     
   ------------------------------
      1     Au          0.099
      2     Au         -0.152
      3     Au         -0.046
      4     Au          0.099

  Hirshfeld-I charges:
            ion         q(e)        dq(e)    
   ------------------------------------------
      1     Au          0.119     -0.109E-04
      2     Au         -0.200     -0.237E-04
      3     Au         -0.032      0.445E-04
      4     Au          0.113     -0.100E-04

   Hirshfeld-I converged in  18 cycles. Convergence criterion |dq|< 0.500E-04 e

  Atomic reference data used in the T-S method for vdW correction:
            C6at              R0at           ALPHAat      REFSTATE
            (au)              (au)            (au)                
   ---------------------------------------------------------------
   Au        298.000          3.855         36.500         0
 
 Nth order contribution to Edisp (eV)
 Edisp(N=2): -0.10128718500646502     
 Edisp(N=3):  -3.6146550717846816E-005
 Edisp(N=4):  -9.6952659739176471E-004
 Edisp(N=5):  -1.7142159993572501E-005
 Edisp(N=6):  -1.9337093980585383E-005
 Edisp(N=inf): -0.10233071775265634     

  Tkatchenko/Scheffler method for vdW energy calculation
  ---------------------------------------------------------------------------------------------

  Parameters of vdW forcefield:
            C6ts              R0ts          ALPHAts         R0scs        ALPHAscs        RELVOL 
            (au)              (au)           (au)            (au)          (au)                 
   ---------------------------------------------------------------------------------------------
   Au        259.721          3.768         34.075          3.791         34.703          0.934
   Au        344.447          3.949         39.241          4.029         41.678          1.075
   Au        311.250          3.883         37.303          3.843         36.167          1.022
   Au        260.121          3.769         34.101          3.792         34.731          0.934

  vdW correction parametrized for the method   +  

  IVDW = 212
  VDW_RADIUS =    50.000 A
  VDW_SR =     0.850
  VDW_D =     6.000
  SCSRAD =   120.000 A
  LVDWSCS = T
  LSCSGRAD = T
  LSCALER0 = T
  ITIM = -1
  Edisp (eV):   -0.10233
    FORVDW:  cpu time     54.2415: real time     54.2449

 VOLUME and BASIS-vectors are now :
 -----------------------------------------------------------------------------
  energy-cutoff  :      520.00
  volume of cell :     8000.00
      direct lattice vectors                 reciprocal lattice vectors
    20.000000000  0.000000000  0.000000000     0.050000000  0.000000000  0.000000000
     0.000000000 20.000000000  0.000000000     0.000000000  0.050000000  0.000000000
     0.000000000  0.000000000 20.000000000     0.000000000  0.000000000  0.050000000

  length of vectors
    20.000000000 20.000000000 20.000000000     0.050000000  0.050000000  0.050000000


 FORCES acting on ions:
    Electron-Ion                     Ewald-Force                    Non-Local-Force
 -----------------------------------------------------------------------------------------------
   0.252E+03 -.408E+03 0.919E+02   -.247E+03 0.402E+03 -.892E+02   -.553E+01 0.548E+01 -.256E+01
   0.109E+03 0.373E+03 0.126E+03   -.107E+03 -.366E+03 -.123E+03   -.218E+01 -.748E+01 -.251E+01
   0.392E+02 0.135E+03 0.454E+02   -.399E+02 -.137E+03 -.461E+02   0.532E+00 0.183E+01 0.607E+00
   -.401E+03 -.100E+03 -.263E+03   0.393E+03 0.101E+03 0.259E+03   0.700E+01 -.446E+00 0.425E+01
 -----------------------------------------------------------------------------------------------
   0.138E+00 0.470E+00 0.157E+00   0.000E+00 0.000E+00 -.284E-13   -.178E+00 -.618E+00 -.215E+00


 POSITION                                       TOTAL-FORCE (eV/Angst)
 -----------------------------------------------------------------------------------
     19.43026      2.13309     19.98047         0.025280      0.082260      0.028229
     19.19126     17.21636     19.06782        -0.040147     -0.137223     -0.045384
     19.85667     19.50681     19.83436        -0.008152     -0.028623     -0.010218
      1.52181      1.14374      1.11735         0.023020      0.083586      0.027373
 -----------------------------------------------------------------------------------
    total drift:                                0.001095     -0.002602     -0.005177


--------------------------------------------------------------------------------------------------------



  FREE ENERGIE OF THE ION-ELECTRON SYSTEM (eV)
  ---------------------------------------------------
  free  energy   TOTEN  =        -8.47007081 eV

  energy  without entropy=       -8.47007081  energy(sigma->0) =       -8.47007081



--------------------------------------------------------------------------------------------------------


    POTLOK:  cpu time      0.2736: real time      0.2736


--------------------------------------------------------------------------------------------------------


     LOOP+:  cpu time    311.8150: real time    312.0061
    4ORBIT:  cpu time      0.0000: real time      0.0000

 total amount of memory used by VASP MPI-rank0   953100. kBytes
=======================================================================

   base      :      30000. kBytes
   nonlr-proj:       2794. kBytes
   fftplans  :      48991. kBytes
   grid      :      38630. kBytes
   one-center:         15. kBytes
   HF        :         64. kBytes
   wavefun   :       2592. kBytes
   fock_wrk  :     830014. kBytes

  
  
 General timing and accounting informations for this job:
 ========================================================
  
                  Total CPU time used (sec):      333.473
                            User time (sec):      318.708
                          System time (sec):       14.765
                         Elapsed time (sec):      336.204
  
                   Maximum memory used (kb):     1665768.
                   Average memory used (kb):          N/A
  
                          Minor page faults:      1859315
                          Major page faults:            0
                 Voluntary context switches:        17496
