 vasp.6.4.0 14Feb23 (build Dec 05 2023 14:15:48) complex                        
  
 executed on             LinuxIFC date 2023.12.07  23:26:21
 running 1024 mpi-ranks, with    1 threads/rank, on   64 nodes
 distrk:  each k-point on 1024 cores,    1 groups
 distr:  one band on NCORE=  32 cores,   32 groups


--------------------------------------------------------------------------------------------------------


 INCAR:
   SYSTEM = MgO-rocksalt
   ISMEAR = 0
   SIGMA = 0.05
   EDIFF = 1E-4
   ALGO = ALL
   ISTART = 0
   IBRION = -1
   NSW = 0
   ISYM = 3
   LHFCALC = .TRUE.
   GGA = B5
   AEXX = 0.2
   AGGAX = 0.72
   AGGAC = 0.81
   ALDAC = 0.19
   IVDW = 13
   VDW_S8 = 2.0293
   VDW_A1 = 0.4087
   VDW_A2 = 4.5381
   ENCUT = 520
   PREC = Normal
   LASPH = .TRUE.
   LREAL = Auto
   ISPIN = 1
   NELM = 2000
   NELMIN = 8
   NCORE = 32
   LWAVE = .FALSE.
   LCHARG = .FALSE.

 POTCAR:    PAW_PBE Ag 02Apr2005                  
 POTCAR:    PAW_PBE Ag 02Apr2005                  
   SHA256 =  6550cfa3543261e132c169e1b98a529204624d72be14e2da2e0242bcb74a174d Ag/POTCAR             
   COPYR  = (c) Copyright 02Apr2005 Georg Kresse                                                    
   COPYR  = This file is part of the software VASP. Any use, copying, and all other rights are regul
   COPYR  = If you do not have a valid VASP license, you may not use, copy or distribute this file. 
   VRHFIN =Ag : s1 d10                                                                              
   LEXCH  = PE                                                                                      
   EATOM  =  1037.2675 eV,   76.2370 Ry                                                             
                                                                                                    
   TITEL  = PAW_PBE Ag 02Apr2005                                                                    
   LULTRA =        F    use ultrasoft PP ?                                                          
   IUNSCR =        1    unscreen: 0-lin 1-nonlin 2-no                                               
   RPACOR =    2.000    partial core radius                                                         
   POMASS =  107.868; ZVAL   =   11.000    mass and valenz                                          
   RCORE  =    2.500    outmost cutoff radius                                                       
   RWIGS  =    2.840; RWIGS  =    1.503    wigner-seitz radius (au A)                               
   ENMAX  =  249.844; ENMIN  =  187.383 eV                                                          
   ICORE  =        3    local potential                                                             
   LCOR   =        T    correct aug charges                                                         
   LPAW   =        T    paw PP                                                                      
   EAUG   =  412.496                                                                                
   DEXC   =    0.000                                                                                
   RMAX   =    2.560    core radius for proj-oper                                                   
   RAUG   =    1.300    factor for augmentation sphere                                              
   RDEP   =    2.576    radius for radial grids                                                     
   RDEPT  =    2.072    core radius for aug-charge                                                  
                                                                                                    
   Atomic configuration                                                                             
   12 entries                                                                                       
     n  l   j            E        occ.                                                              
     1  0  0.50    -25324.9161   2.0000                                                             
     2  0  0.50     -3728.5341   2.0000                                                             
     2  1  1.50     -3344.0404   6.0000                                                             
     3  0  0.50      -683.5581   2.0000                                                             
     3  1  1.50      -557.3225   6.0000                                                             
     3  2  2.50      -358.3853  10.0000                                                             
     4  0  0.50       -95.0341   2.0000                                                             
     4  1  1.50       -58.5511   6.0000                                                             
     4  2  2.50        -7.4440  10.0000                                                             
     5  0  0.50        -4.4045   1.0000                                                             
     5  1  0.50        -1.3606   0.0000                                                             
     4  3  2.50        -1.3606   0.0000                                                             
   Description                                                                                      
     l       E           TYP  RCUT    TYP  RCUT                                                     
     2     -7.4439781     23  2.400                                                                 
     2     -8.8045607     23  2.400                                                                 
     0     -4.4044681     23  2.400                                                                 
     0      1.9520038     23  2.400                                                                 
     1     -1.3605826     23  2.500                                                                 
     1     27.2116520     23  2.500                                                                 
     3     -4.0817478     23  2.400                                                                 
  local pseudopotential read in
  partial core-charges read in
  partial kinetic energy density read in
  atomic valenz-charges read in
  non local Contribution for L=           2  read in
    real space projection operators read in
  non local Contribution for L=           2  read in
    real space projection operators read in
  non local Contribution for L=           0  read in
    real space projection operators read in
  non local Contribution for L=           0  read in
    real space projection operators read in
  non local Contribution for L=           1  read in
    real space projection operators read in
  non local Contribution for L=           1  read in
    real space projection operators read in
    PAW grid and wavefunctions read in
 
   number of l-projection  operators is LMAX  =           6
   number of lm-projection operators is LMMAX =          18
 
 -----------------------------------------------------------------------------
|                                                                             |
|               ----> ADVICE to this user running VASP <----                  |
|                                                                             |
|     You have a (more or less) 'small supercell' and for smaller cells       |
|     it is recommended to use the reciprocal-space projection scheme!        |
|     The real-space optimization is not efficient for small cells and it     |
|     is also less accurate ...                                               |
|     Therefore, set LREAL=.FALSE. in the INCAR file.                         |
|                                                                             |
 -----------------------------------------------------------------------------

 Optimization of the real space projectors (new method)

 maximal supplied QI-value         = 15.12
 optimisation between [QCUT,QGAM] = [ 11.64, 23.28] = [ 37.95,151.78] Ry 
 Optimized for a Real-space Cutoff    1.40 Angstroem

   l    n(q)    QCUT    max X(q) W(low)/X(q) W(high)/X(q)  e(spline) 
   2      9    11.641    53.897    0.27E-03    0.11E-03    0.28E-06
   2      9    11.641    52.416    0.27E-03    0.11E-03    0.29E-06
   0     10    11.641   122.045    0.70E-04    0.59E-04    0.17E-06
   0     10    11.641    73.629    0.67E-04    0.56E-04    0.16E-06
   1      9    11.641    15.255    0.49E-03    0.24E-03    0.17E-06
   1      9    11.641     9.562    0.40E-03    0.20E-03    0.14E-06
 -----------------------------------------------------------------------------
|                                                                             |
|               ----> ADVICE to this user running VASP <----                  |
|                                                                             |
|     You enforced a specific xc type in the INCAR file but a different       |
|     type was found in the POTCAR file.                                      |
|     I HOPE YOU KNOW WHAT YOU ARE DOING!                                     |
|                                                                             |
 -----------------------------------------------------------------------------

  PAW_PBE Ag 02Apr2005                  :
 energy of atom  1       EATOM=-1037.2675
 kinetic energy error for atom=    0.0047 (will be added to EATOM!!)
 
 
 POSCAR: Ag Mg  O
  positions in direct lattice
  No initial velocities read in
 WARNING: Using user supplied parameters
     VDW_S8 = 2.029
     VDW_A1 = 0.409
     VDW_A2 = 4.538
     because the xc functional is not supported. Required parameters not
     defined in the INCAR file will be replaced with PBE defaults ones.

 exchange correlation table for  LEXCH =       12
   RHO(1)=    0.500       N(1)  =     2000
   RHO(2)=  100.500       N(2)  =     4000
 


--------------------------------------------------------------------------------------------------------


 ion  position               nearest neighbor table
   1  0.400  0.563  0.612-   4 2.67   3 2.71
   2  0.400  0.500  0.835-   3 2.58
   3  0.400  0.499  0.718-   2 2.58   1 2.71   4 2.71
   4  0.400  0.436  0.612-   1 2.67   3 2.71
 
  LATTYP: Found a simple tetragonal cell.
 ALAT       =    21.1388521970
 C/A-ratio  =     1.0461251639
  
  Lattice vectors:
  
 A1 = (  21.1388521970,   0.0000000000,   0.0000000000)
 A2 = (   0.0000000000,  21.1388521970,   0.0000000000)
 A3 = (   0.0000000000,   0.0000000000,  22.1138852197)


Analysis of symmetry for initial positions (statically):
=====================================================================
 Subroutine PRICEL returns:
 Original cell was already a primitive cell.
 

 Routine SETGRP: Setting up the symmetry group for a 
 simple tetragonal supercell.


 Subroutine GETGRP returns: Found  1 space group operations
 (whereof  1 operations were pure point group operations)
 out of a pool of 16 trial point group operations.


The static configuration has the point symmetry C_1 .


Analysis of symmetry for dynamics (positions and initial velocities):
=====================================================================
 Subroutine PRICEL returns:
 Original cell was already a primitive cell.
 

 Routine SETGRP: Setting up the symmetry group for a 
 simple tetragonal supercell.


 Subroutine GETGRP returns: Found  1 space group operations
 (whereof  1 operations were pure point group operations)
 out of a pool of 16 trial point group operations.


The dynamic configuration has the point symmetry C_1 .


Analysis of constrained symmetry for selective dynamics:
=====================================================================
 Subroutine PRICEL returns:
 Original cell was already a primitive cell.
 

 Routine SETGRP: Setting up the symmetry group for a 
 simple tetragonal supercell.


 Subroutine GETGRP returns: Found  1 space group operations
 (whereof  1 operations were pure point group operations)
 out of a pool of 16 trial point group operations.


The constrained configuration has the point symmetry C_1 .


 Subroutine INISYM returns: Found  1 space group operations
 (whereof  1 operations are pure point group operations),
 and found     1 'primitive' translations


----------------------------------------------------------------------------------------

                                     Primitive cell                                     

  volume of cell :    9881.6133

  direct lattice vectors                    reciprocal lattice vectors
    21.138852197  0.000000000  0.000000000     0.047306258  0.000000000  0.000000000
     0.000000000 21.138852197  0.000000000     0.000000000  0.047306258  0.000000000
     0.000000000  0.000000000 22.113885220     0.000000000  0.000000000  0.045220457

  length of vectors
    21.138852197 21.138852197 22.113885220     0.047306258  0.047306258  0.045220457

  position of ions in fractional coordinates (direct lattice)
     0.400262498  0.562644202  0.611757253
     0.400180406  0.499857897  0.835303009
     0.400101799  0.499467099  0.718499130
     0.400198249  0.436299472  0.611663944

  ion indices of the primitive-cell ions
   primitive index   ion index
                 1           1
                 2           2
                 3           3
                 4           4

----------------------------------------------------------------------------------------

 
 
 KPOINTS: KPOINTS created by Atomic Simulation Env

Automatic generation of k-mesh.
 Grid dimensions read from file:
 generate k-points for:    1    1    1

 Generating k-lattice:

  Cartesian coordinates                     Fractional coordinates (reciprocal lattice)
     0.047306258  0.000000000  0.000000000     1.000000000  0.000000000  0.000000000
     0.000000000  0.047306258  0.000000000     0.000000000  1.000000000  0.000000000
     0.000000000  0.000000000  0.045220457     0.000000000  0.000000000  1.000000000

  Length of vectors
     0.047306258  0.047306258  0.045220457

  Shift w.r.t. Gamma in fractional coordinates (k-lattice)
     0.000000000  0.000000000  0.000000000

 
 Subroutine IBZKPT returns following result:
 ===========================================
 
 Found      1 irreducible k-points:
 
 Following reciprocal coordinates:
            Coordinates               Weight
  0.000000  0.000000  0.000000      1.000000
 
 Following cartesian coordinates:
            Coordinates               Weight
  0.000000  0.000000  0.000000      1.000000
 
 
 Subroutine IBZKPT_HF returns following result:
 ==============================================
 
 Found      1 k-points in 1st BZ
 the following      1 k-points will be used (e.g. in the exchange kernel)
 Following reciprocal coordinates:   # in IRBZ
  0.000000  0.000000  0.000000    1.00000000   1 t-inv F


--------------------------------------------------------------------------------------------------------




 Dimension of arrays:
   k-points           NKPTS =      1   k-points in BZ     NKDIM =      1   number of bands    NBANDS=     32
   number of dos      NEDOS =    301   number of ions     NIONS =      4
   non local maximal  LDIM  =      6   non local SUM 2l+1 LMDIM =     18
   total plane-waves  NPLWV = ******
   max r-space proj   IRMAX =   2177   max aug-charges    IRDMAX=   9226
   dimension x,y,z NGX =   120 NGY =  120 NGZ =  126
   dimension x,y,z NGXF=   240 NGYF=  240 NGZF=  252
   support grid    NGXF=   240 NGYF=  240 NGZF=  252
   ions per type =               4
   NGX,Y,Z   is equivalent  to a cutoff of   9.44,  9.44,  9.47 a.u.
   NGXF,Y,Z  is equivalent  to a cutoff of  18.87, 18.87, 18.94 a.u.

 SYSTEM =  MgO-rocksalt                            
 POSCAR =  Ag Mg  O                                

 Startparameter for this run:
   NWRITE =      2    write-flag & timer
   PREC   = normal    normal or accurate (medium, high low for compatibility)
   ISTART =      0    job   : 0-new  1-cont  2-samecut
   ICHARG =      2    charge: 1-file 2-atom 10-const
   ISPIN  =      1    spin polarized calculation?
   LNONCOLLINEAR =      F non collinear calculations
   LSORBIT =      F    spin-orbit coupling
   INIWAV =      1    electr: 0-lowe 1-rand  2-diag
   LASPH  =      T    aspherical Exc in radial PAW
 Electronic Relaxation 1
   ENCUT  =  520.0 eV  38.22 Ry    6.18 a.u.  39.30 39.30 41.12*2*pi/ulx,y,z
   ENINI  =  520.0     initial cutoff
   ENAUG  =  412.5 eV  augmentation charge cutoff
   NELM   =   2000;   NELMIN=  8; NELMDL= -5     # of ELM steps 
   EDIFF  = 0.1E-03   stopping-criterion for ELM
   LREAL  =      T    real-space projection
   NLSPLINE    = F    spline interpolate recip. space projectors
   LCOMPAT=      F    compatible to vasp.4.4
   GGA_COMPAT  = T    GGA compatible to vasp.4.4-vasp.4.6
   LMAXPAW     = -100 max onsite density
   LMAXMIX     =    2 max onsite mixed and CHGCAR
   VOSKOWN=      0    Vosko Wilk Nusair interpolation
   ROPT   =   -0.00050
 Ionic relaxation
   EDIFFG = 0.1E-02   stopping-criterion for IOM
   NSW    =      0    number of steps for IOM
   NBLOCK =      1;   KBLOCK =      1    inner block; outer block 
   IBRION =     -1    ionic relax: 0-MD 1-quasi-New 2-CG
   NFREE  =      0    steps in history (QN), initial steepest desc. (CG)
   ISIF   =      0    stress and relaxation
   IWAVPR =     10    prediction:  0-non 1-charg 2-wave 3-comb
   ISYM   =      3    0-nonsym 1-usesym 2-fastsym
   LCORR  =      T    Harris-Foulkes like correction to forces

   POTIM  = 0.5000    time-step for ionic-motion
   TEIN   =    0.0    initial temperature
   TEBEG  =    0.0;   TEEND  =   0.0 temperature during run
   SMASS  =  -3.00    Nose mass-parameter (am)
   estimated Nose-frequenzy (Omega)   =  0.10E-29 period in steps = 0.13E+47 mass=  -0.102E-25a.u.
   SCALEE = 1.0000    scale energy and forces
   NPACO  =    256;   APACO  = 10.0  distance and # of slots for P.C.
   PSTRESS=    0.0 pullay stress

  Mass of Ions in am
   POMASS = 107.87
  Ionic Valenz
   ZVAL   =  11.00
  Atomic Wigner-Seitz radii
   RWIGS  =  -1.00
  virtual crystal weights 
   VCA    =   1.00
   NELECT =      44.0000    total number of electrons
   NUPDOWN=      -1.0000    fix difference up-down

 DOS related values:
   EMIN   =  10.00;   EMAX   =-10.00  energy-range for DOS
   EFERMI =   0.00;   METHOD = LEGACY      
   ISMEAR =     0;   SIGMA  =   0.05  broadening in eV -4-tet -1-fermi 0-gaus

 Electronic relaxation 2 (details)
   IALGO  =     58    algorithm
   LDIAG  =      T    sub-space diagonalisation (order eigenvalues)
   LSUBROT=      F    optimize rotation matrix (better conditioning)
   TURBO    =      0    0=normal 1=particle mesh
   IRESTART =      0    0=no restart 2=restart with 2 vectors
   NREBOOT  =      0    no. of reboots
   NMIN     =      0    reboot dimension
   EREF     =   0.00    reference energy to select bands
   IMIX   =      4    mixing-type and parameters
     AMIX     =   0.40;   BMIX     =  1.00
     AMIX_MAG =   1.60;   BMIX_MAG =  1.00
     AMIN     =   0.10
     WC   =   100.;   INIMIX=   1;  MIXPRE=   1;  MAXMIX= -45

 Intra band minimization:
   WEIMIN = 0.0000     energy-eigenvalue tresh-hold
   EBREAK =  0.78E-06  absolut break condition
   DEPER  =   0.30     relativ break condition  

   TIME   =   0.40     timestep for ELM

  volume/ion in A,a.u.               =    2470.40     16671.10
  Fermi-wavevector in a.u.,A,eV,Ry     =   0.269329  0.508958  0.986941  0.072538
  Thomas-Fermi vector in A             =   1.106612
 
 Write flags
   LWAVE        =      F    write WAVECAR
   LDOWNSAMPLE  =      F    k-point downsampling of WAVECAR
   LCHARG       =      F    write CHGCAR
   LVTOT        =      F    write LOCPOT, total local potential
   LVHAR        =      F    write LOCPOT, Hartree potential only
   LELF         =      F    write electronic localiz. function (ELF)
   LORBIT       =      0    0 simple, 1 ext, 2 COOP (PROOUT), +10 PAW based schemes


 Dipole corrections
   LMONO  =      F    monopole corrections only (constant potential shift)
   LDIPOL =      F    correct potential (dipole corrections)
   IDIPOL =      0    1-x, 2-y, 3-z, 4-all directions 
   EPSILON=  1.0000000 bulk dielectric constant

 Exchange correlation treatment:
   GGA     =    B5    GGA type
   LEXCH   =    12    internal setting for exchange type
   LIBXC   =     F    Libxc                    
   VOSKOWN =     0    Vosko Wilk Nusair interpolation
   EXXOEP  =     0    0=HF, 1=EXX-LHF (local Hartree Fock) 2=EXX OEP
   LHFCALC =     T    Hartree Fock is set to
   LSYMGRAD=     F    symmetrize gradient (conserves proper symmetry)
   PRECFOCK=normal    Normal, Fast or Accurate (Low or Medium for compatibility)
   LRHFCALC=     F    long range Hartree Fock
   LRSCOR  =     F    long range correlation only (use DFT for short range part)
   LTHOMAS =     F    Thomas Fermi screening in HF
   LMODELHF=     F    short range full HF, long range fraction AEXX
   FOCKCORR=     1    mode to apply convergence corrections
   LFOCKACE=     T    use Adeptively-Compressed-Exchange operator
   ENCUT4O =  -1.0   cutoff for four orbital integrals eV
   LMAXFOCK=     4    L truncation for augmentation on plane wave grid
   LMAXFOCKAE=  -1    L truncation for all-electron charge restoration on plane wave grid
   NMAXFOCKAE=   1    number of basis functions for all-electron charge restoration
   LFOCKAEDFT=     F  apply the AE augmentation even for DFT
   NKREDX  =     1    reduce k-point grid by
   NKREDY  =     1    reduce k-point grid by
   NKREDZ  =     1    reduce k-point grid by
   SHIFTRED=     F    shift reduced grid of Gamma
   HFKIDENT=     F    idential grid for each k-point
   ODDONLY =     F    use only odd q-grid points
   EVENONLY=     F    use only even q-grid points
   HFALPHA =   -1.0000 decay constant for conv. correction
   MCALPHA =    0.0000 extent of test-charge in conv. correction in multipole expansion
   AEXX    =    0.2000 exact exchange contribution
   HFSCREEN=    0.0000 screening length (either q_TF or 0.3 A-1)
   HFSCREENC=   0.0000 screening length for correlation (either q_TF or 0.3 A-1)
   HFRCUT  =    0.0000 spherical cutoff for potential kernel
   ALDAX   =    0.8000 LDA exchange part
   AGGAX   =    0.7200 GGA exchange part
   ALDAC   =    0.1900 LDA correlation
   AGGAC   =    0.8100 GGA correlation
   ENCUTFOCK=  -1.0 apply spherical cutoff to Coloumb kernel
   NBANDSGWLOW=     1    first orbital included in HF term
   NBLOCK_FOCK=    64    blocking factor in FOCK_ACC

 Linear response parameters
   LEPSILON=     F    determine dielectric tensor
   LRPA    =     F    only Hartree local field effects (RPA)
   LNABLA  =     F    use nabla operator in PAW spheres
   LVEL    =     F    velocity operator in full k-point grid
   CSHIFT  =0.1000    complex shift for real part using Kramers Kronig
   OMEGAMAX=  -1.0    maximum frequency
   DEG_THRESHOLD= 0.2000000E-02 threshold for treating states as degnerate
   RTIME   =   -0.100 relaxation time in fs
  (WPLASMAI=    0.000 imaginary part of plasma frequency in eV, 0.658/RTIME)
   DFIELD  = 0.0000000 0.0000000 0.0000000 field for delta impulse in time
 
  Optional k-point grid parameters
   LKPOINTS_OPT  =     F    use optional k-point grid
   KPOINTS_OPT_MODE=     1    mode for optional k-point grid
 
 Orbital magnetization related:
   ORBITALMAG=     F  switch on orbital magnetization
   LCHIMAG   =     F  perturbation theory with respect to B field
   DQ        =  0.001000  dq finite difference perturbation B field
   LLRAUG    =     F  two centre corrections for induced B field
   LBONE     =     F  B-component reconstruction in AE one-centre
   LVGVCALC  =     T  calculate vGv susceptibility
   LVGVAPPL  =     F  apply vGv susceptibility instead of pGv for G=0

 Random number generation:
   RANDOM_GENERATOR = DEFAULT
   PCG_SEED         = not used


--------------------------------------------------------------------------------------------------------


 Static calculation
 charge density and potential will be updated during run
 non-spin polarized calculation
 Conjugate gradient for all bands (Freysoldt, et al. PRB 79, 241103 (2009))
 preconditioned conjugated gradient                                        
 perform sub-space diagonalisation
    before iterative eigenvector-optimisation
 modified Broyden-mixing scheme, WC =      100.0
 initial mixing is a Kerker type mixing with AMIX =  0.4000 and BMIX =      1.0000
 Hartree-type preconditioning will be used
 using additional bands           10
 real space projection scheme for non local part
 use partial core corrections
 no Harris-corrections to forces 
 use gradient corrections 
 use of overlap-Matrix (Vanderbilt PP)
 Gauss-broadening in eV      SIGMA  =   0.05


--------------------------------------------------------------------------------------------------------


  energy-cutoff  :      520.00
  volume of cell :     9881.61
      direct lattice vectors                 reciprocal lattice vectors
    21.138852197  0.000000000  0.000000000     0.047306258  0.000000000  0.000000000
     0.000000000 21.138852197  0.000000000     0.000000000  0.047306258  0.000000000
     0.000000000  0.000000000 22.113885220     0.000000000  0.000000000  0.045220457

  length of vectors
    21.138852197 21.138852197 22.113885220     0.047306258  0.047306258  0.045220457


 
 k-points in units of 2pi/SCALE and weight: KPOINTS created by Atomic Simulation Env
   0.00000000  0.00000000  0.00000000       1.000
 
 k-points in reciprocal lattice and weights: KPOINTS created by Atomic Simulation Env
   0.00000000  0.00000000  0.00000000       1.000
 
 position of ions in fractional coordinates (direct lattice) 
   0.40026250  0.56264420  0.61175725
   0.40018041  0.49985790  0.83530301
   0.40010180  0.49946710  0.71849913
   0.40019825  0.43629947  0.61166394
 
 position of ions in cartesian coordinates  (Angst):
   8.46108979 11.89365263 13.52832968
   8.45935445 10.56642220 18.47179487
   8.45769279 10.55816119 15.88880730
   8.45973163  9.22287004 13.52626625
 


--------------------------------------------------------------------------------------------------------


 k-point   1 :   0.0000 0.0000 0.0000  plane waves:  265979

 maximum and minimum number of plane-waves per node :      8318     8303

 maximum number of plane-waves:    265979
 maximum index in each direction: 
   IXMAX=   39   IYMAX=   39   IZMAX=   41
   IXMIN=  -39   IYMIN=  -39   IZMIN=  -41


 real space projection operators:
  total allocation   :       1158.61 KBytes
  max/ min on nodes  :        109.55          0.00


 parallel 3D FFT for wavefunctions:
    minimum data exchange during FFTs selected (reduces bandwidth)
 parallel 3D FFT for charge:
    minimum data exchange during FFTs selected (reduces bandwidth)

 
 Radii for the augmentation spheres in the non-local exchange
 for species   1 augmentation radius   1.406 (default was   1.125)
       energy cutoff for augmentation   2080.0

 real space projection operators:
  total allocation   :       1661.91 KBytes
  max/ min on nodes  :        155.86          0.00

 Maximum index for augmentation-charges in exchange            0
  SETUP_FOCK is finished

 total amount of memory used by VASP MPI-rank0    41874. kBytes
=======================================================================

   base      :      30000. kBytes
   nonlr-proj:        295. kBytes
   fftplans  :       5756. kBytes
   grid      :       5345. kBytes
   one-center:         15. kBytes
   HF        :         64. kBytes
   wavefun   :        399. kBytes
 
     INWAV:  cpu time      0.0004: real time      0.0005
 Broyden mixing: mesh for mixing (old mesh)
   NGX = 79   NGY = 79   NGZ = 83
  (NGX  =240   NGY  =240   NGZ  =252)
  gives a total of 518003 points

 initial charge density was supplied:
 charge density of overlapping atoms calculated
 number of electron      44.0000000 magnetization 
 keeping initial charge density in first step


--------------------------------------------------------------------------------------------------------


 Maximum index for non-local projection operator            0
 Maximum index for augmentation-charges            0 (set IRDMAX)


--------------------------------------------------------------------------------------------------------


    FEWALD:  cpu time      0.0027: real time      0.0027


--------------------------------------- Ionic step        1  -------------------------------------------




--------------------------------------- Iteration      1(   1)  ---------------------------------------


    POTLOK:  cpu time      0.2521: real time      0.2644
    SETDIJ:  cpu time      0.7708: real time      0.7715
    TRIAL :  cpu time      0.1596: real time      0.2201
    CORREC:  cpu time      0.0097: real time      0.0098
    --------------------------------------------
      LOOP:  cpu time      1.1944: real time      1.2687

 eigenvalue-minimisations  :    64
 total energy-change (2. order) :-0.3231435E+04  (-0.6277875E+03)
 number of electron      44.0000000 magnetization 
 augmentation part       44.0000000 magnetization 

 Free energy of the ion-electron system (eV)
  ---------------------------------------------------
  alpha Z        PSCENC =         1.37722947
  Ewald energy   TEWEN  =      1478.23520240
  -Hartree energ DENC   =     -5440.47219133
  -exchange      EXHF   =         0.00000000
  -V(xc)+E(xc)   XCENC  =       -46.79222581
  PAW double counting   =      4013.84859731    -7392.08731607
  entropy T*S    EENTRO =        -0.00942685
  eigenvalues    EBANDS =        15.32595520
  atomic energy  EATOM  =      4139.13879565
  ---------------------------------------------------
  free energy    TOTEN  =     -3231.43538002 eV

  energy without entropy =    -3231.42595317  energy(sigma->0) =    -3231.43066660
  exchange ACFDT corr.  =         0.00000000  see jH, gK, PRB 81, 115126


--------------------------------------------------------------------------------------------------------




--------------------------------------- Iteration      1(   2)  ---------------------------------------


    TRIAL :  cpu time      0.1882: real time      0.1959
    CORREC:  cpu time      0.0030: real time      0.0030
    --------------------------------------------
      LOOP:  cpu time      0.1942: real time      0.2105

 eigenvalue-minimisations  :   128
 total energy-change (2. order) :-0.2725413E+03  (-0.2725364E+03)
 number of electron      44.0000000 magnetization 
 augmentation part       44.0000000 magnetization 

 Free energy of the ion-electron system (eV)
  ---------------------------------------------------
  alpha Z        PSCENC =         1.37722947
  Ewald energy   TEWEN  =      1478.23520240
  -Hartree energ DENC   =     -5440.47219133
  -exchange      EXHF   =         0.00000000
  -V(xc)+E(xc)   XCENC  =       -46.79222581
  PAW double counting   =      4013.84859731    -7392.08731607
  entropy T*S    EENTRO =        -0.02994424
  eigenvalues    EBANDS =      -257.19483049
  atomic energy  EATOM  =      4139.13879565
  ---------------------------------------------------
  free energy    TOTEN  =     -3503.97668311 eV

  energy without entropy =    -3503.94673886  energy(sigma->0) =    -3503.96171099
  exchange ACFDT corr.  =         0.00000000  see jH, gK, PRB 81, 115126


--------------------------------------------------------------------------------------------------------




--------------------------------------- Iteration      1(   3)  ---------------------------------------


    TRIAL :  cpu time      0.1755: real time      0.1755
    CORREC:  cpu time      0.0010: real time      0.0010
    --------------------------------------------
      LOOP:  cpu time      0.1781: real time      0.1878

 eigenvalue-minimisations  :   128
 total energy-change (2. order) :-0.1780978E+03  (-0.1776759E+03)
 number of electron      44.0000000 magnetization 
 augmentation part       44.0000000 magnetization 

 Free energy of the ion-electron system (eV)
  ---------------------------------------------------
  alpha Z        PSCENC =         1.37722947
  Ewald energy   TEWEN  =      1478.23520240
  -Hartree energ DENC   =     -5440.47219133
  -exchange      EXHF   =         0.00000000
  -V(xc)+E(xc)   XCENC  =       -46.79222581
  PAW double counting   =      4013.84859731    -7392.08731607
  entropy T*S    EENTRO =        -0.00000000
  eigenvalues    EBANDS =      -435.32261789
  atomic energy  EATOM  =      4139.13879565
  ---------------------------------------------------
  free energy    TOTEN  =     -3682.07452627 eV

  energy without entropy =    -3682.07452627  energy(sigma->0) =    -3682.07452627
  exchange ACFDT corr.  =         0.00000000  see jH, gK, PRB 81, 115126


--------------------------------------------------------------------------------------------------------




--------------------------------------- Iteration      1(   4)  ---------------------------------------


    TRIAL :  cpu time      0.0779: real time      0.0779
    CORREC:  cpu time      0.0008: real time      0.0008
    --------------------------------------------
      LOOP:  cpu time      0.0808: real time      0.0902

 eigenvalue-minimisations  :    64
 total energy-change (2. order) :-0.2981583E+01  (-0.2981561E+01)
 number of electron      44.0000000 magnetization 
 augmentation part       44.0000000 magnetization 

 Free energy of the ion-electron system (eV)
  ---------------------------------------------------
  alpha Z        PSCENC =         1.37722947
  Ewald energy   TEWEN  =      1478.23520240
  -Hartree energ DENC   =     -5440.47219133
  -exchange      EXHF   =         0.00000000
  -V(xc)+E(xc)   XCENC  =       -46.79222581
  PAW double counting   =      4013.84859731    -7392.08731607
  entropy T*S    EENTRO =        -0.00000000
  eigenvalues    EBANDS =      -438.30420080
  atomic energy  EATOM  =      4139.13879565
  ---------------------------------------------------
  free energy    TOTEN  =     -3685.05610918 eV

  energy without entropy =    -3685.05610918  energy(sigma->0) =    -3685.05610918
  exchange ACFDT corr.  =         0.00000000  see jH, gK, PRB 81, 115126


--------------------------------------------------------------------------------------------------------




--------------------------------------- Iteration      1(   5)  ---------------------------------------


    POTLOK:  cpu time      0.5231: real time      0.5236
    SETDIJ:  cpu time      2.2975: real time      2.2990
    TRIAL :  cpu time      1.0111: real time      1.0131
    CORREC:  cpu time      0.0010: real time      0.0010
    CHARGE:  cpu time      0.0396: real time      0.0398
    --------------------------------------------
      LOOP:  cpu time      3.8747: real time      3.8887

 eigenvalue-minimisations  :   128
 total energy-change (2. order) : 0.3678950E+04  (-0.2781278E+01)
 number of electron      43.9999916 magnetization 
 augmentation part       21.4307290 magnetization 

 Free energy of the ion-electron system (eV)
  ---------------------------------------------------
  alpha Z        PSCENC =         1.37722947
  Ewald energy   TEWEN  =      1478.23520240
  -Hartree energ DENC   =     -5440.47219133
  -exchange      EXHF   =        90.04071991
  -V(xc)+E(xc)   XCENC  =       -40.20676459
  PAW double counting   =      4006.65197587    -3847.73342768
  entropy T*S    EENTRO =        -0.00000000
  eigenvalues    EBANDS =      -393.13794703
  atomic energy  EATOM  =      4139.13879565
  ---------------------------------------------------
  free energy    TOTEN  =        -6.10640733 eV

  energy without entropy =       -6.10640733  energy(sigma->0) =       -6.10640733
  exchange ACFDT corr.  =        -0.00000000  see jH, gK, PRB 81, 115126


--------------------------------------------------------------------------------------------------------




--------------------------------------- Iteration      1(   6)  ---------------------------------------


    POTLOK:  cpu time      0.5206: real time      0.5210
    SETDIJ:  cpu time      2.2787: real time      2.2809
    TRIAL :  cpu time      1.2467: real time      1.3033
    CORREC:  cpu time      3.7640: real time      3.7668
    CHARGE:  cpu time      0.0232: real time      0.0233
    --------------------------------------------
      LOOP:  cpu time      7.8435: real time      7.9150

 eigenvalue-minimisations  :     0
 total energy-change (2. order) : 0.1335953E+01  (-0.7441733E+00)
 number of electron      43.9999917 magnetization 
 augmentation part       21.2553827 magnetization 

 Free energy of the ion-electron system (eV)
  ---------------------------------------------------
  alpha Z        PSCENC =         1.37722947
  Ewald energy   TEWEN  =      1478.23520240
  -Hartree energ DENC   =     -5504.30898597
  -exchange      EXHF   =        86.89772052
  -V(xc)+E(xc)   XCENC  =       -39.59510945
  PAW double counting   =      4527.95091703    -4372.94317905
  entropy T*S    EENTRO =        -0.00000000
  eigenvalues    EBANDS =      -321.52304490
  atomic energy  EATOM  =      4139.13879565
  ---------------------------------------------------
  free energy    TOTEN  =        -4.77045429 eV

  energy without entropy =       -4.77045429  energy(sigma->0) =       -4.77045429
  exchange ACFDT corr.  =        -0.00000000  see jH, gK, PRB 81, 115126


--------------------------------------------------------------------------------------------------------




--------------------------------------- Iteration      1(   7)  ---------------------------------------


    POTLOK:  cpu time      0.5462: real time      0.5466
    SETDIJ:  cpu time      2.2870: real time      2.2889
    TRIAL :  cpu time      0.9140: real time      0.9147
    CORREC:  cpu time      3.7402: real time      3.7422
    CHARGE:  cpu time      0.0237: real time      0.0237
    --------------------------------------------
      LOOP:  cpu time      7.5151: real time      7.5299

 eigenvalue-minimisations  :     0
 total energy-change (2. order) :-0.7458290E+00  (-0.1460754E+00)
 number of electron      43.9999916 magnetization 
 augmentation part       21.3627148 magnetization 

 Free energy of the ion-electron system (eV)
  ---------------------------------------------------
  alpha Z        PSCENC =         1.37722947
  Ewald energy   TEWEN  =      1478.23520240
  -Hartree energ DENC   =     -5450.19458047
  -exchange      EXHF   =        86.15175868
  -V(xc)+E(xc)   XCENC  =       -40.51222107
  PAW double counting   =      4474.25537655    -4318.60395022
  entropy T*S    EENTRO =        -0.00000000
  eigenvalues    EBANDS =      -375.36389425
  atomic energy  EATOM  =      4139.13879565
  ---------------------------------------------------
  free energy    TOTEN  =        -5.51628325 eV

  energy without entropy =       -5.51628325  energy(sigma->0) =       -5.51628325
  exchange ACFDT corr.  =        -0.00000000  see jH, gK, PRB 81, 115126


--------------------------------------------------------------------------------------------------------




--------------------------------------- Iteration      1(   8)  ---------------------------------------


    POTLOK:  cpu time      0.5467: real time      0.5463
    SETDIJ:  cpu time      2.2884: real time      2.2904
    TRIAL :  cpu time      0.8969: real time      0.8976
    CORREC:  cpu time      3.7586: real time      3.7613
    CHARGE:  cpu time      0.0238: real time      0.0238
    --------------------------------------------
      LOOP:  cpu time      7.5172: real time      7.5332

 eigenvalue-minimisations  :     0
 total energy-change (2. order) :-0.1462288E+00  (-0.7446833E-01)
 number of electron      43.9999916 magnetization 
 augmentation part       21.3355112 magnetization 

 Free energy of the ion-electron system (eV)
  ---------------------------------------------------
  alpha Z        PSCENC =         1.37722947
  Ewald energy   TEWEN  =      1478.23520240
  -Hartree energ DENC   =     -5458.28973858
  -exchange      EXHF   =        86.39734008
  -V(xc)+E(xc)   XCENC  =       -40.20083546
  PAW double counting   =      4465.01928826    -4309.41209036
  entropy T*S    EENTRO =        -0.00000000
  eigenvalues    EBANDS =      -367.92770351
  atomic energy  EATOM  =      4139.13879565
  ---------------------------------------------------
  free energy    TOTEN  =        -5.66251204 eV

  energy without entropy =       -5.66251204  energy(sigma->0) =       -5.66251204
  exchange ACFDT corr.  =        -0.00000000  see jH, gK, PRB 81, 115126


--------------------------------------------------------------------------------------------------------




--------------------------------------- Iteration      1(   9)  ---------------------------------------


    POTLOK:  cpu time      0.5549: real time      0.5554
    SETDIJ:  cpu time      2.2949: real time      2.2965
    TRIAL :  cpu time      0.8987: real time      0.8993
    CORREC:  cpu time      3.7551: real time      3.7576
    CHARGE:  cpu time      0.0231: real time      0.0231
    --------------------------------------------
      LOOP:  cpu time      7.5320: real time      7.5473

 eigenvalue-minimisations  :     0
 total energy-change (2. order) :-0.7308933E-01  (-0.1777726E-01)
 number of electron      43.9999916 magnetization 
 augmentation part       21.3298756 magnetization 

 Free energy of the ion-electron system (eV)
  ---------------------------------------------------
  alpha Z        PSCENC =         1.37722947
  Ewald energy   TEWEN  =      1478.23520240
  -Hartree energ DENC   =     -5455.75670010
  -exchange      EXHF   =        86.31057674
  -V(xc)+E(xc)   XCENC  =       -40.28593159
  PAW double counting   =      4450.61288717    -4294.95323797
  entropy T*S    EENTRO =        -0.00000000
  eigenvalues    EBANDS =      -370.41442314
  atomic energy  EATOM  =      4139.13879565
  ---------------------------------------------------
  free energy    TOTEN  =        -5.73560137 eV

  energy without entropy =       -5.73560137  energy(sigma->0) =       -5.73560137
  exchange ACFDT corr.  =        -0.00000000  see jH, gK, PRB 81, 115126


--------------------------------------------------------------------------------------------------------




--------------------------------------- Iteration      1(  10)  ---------------------------------------


    POTLOK:  cpu time      0.5464: real time      0.5465
    SETDIJ:  cpu time      2.3424: real time      2.3447
    TRIAL :  cpu time      0.9048: real time      0.9054
    CORREC:  cpu time      3.7527: real time      3.7548
    CHARGE:  cpu time      0.0227: real time      0.0228
    --------------------------------------------
      LOOP:  cpu time      7.5734: real time      7.5879

 eigenvalue-minimisations  :     0
 total energy-change (2. order) :-0.1779779E-01  (-0.4641357E-02)
 number of electron      43.9999916 magnetization 
 augmentation part       21.3458313 magnetization 

 Free energy of the ion-electron system (eV)
  ---------------------------------------------------
  alpha Z        PSCENC =         1.37722947
  Ewald energy   TEWEN  =      1478.23520240
  -Hartree energ DENC   =     -5452.38232728
  -exchange      EXHF   =        86.26919570
  -V(xc)+E(xc)   XCENC  =       -40.33852292
  PAW double counting   =      4449.61860684    -4293.87648002
  entropy T*S    EENTRO =        -0.00000000
  eigenvalues    EBANDS =      -373.79509901
  atomic energy  EATOM  =      4139.13879565
  ---------------------------------------------------
  free energy    TOTEN  =        -5.75339916 eV

  energy without entropy =       -5.75339916  energy(sigma->0) =       -5.75339916
  exchange ACFDT corr.  =        -0.00000000  see jH, gK, PRB 81, 115126


--------------------------------------------------------------------------------------------------------




--------------------------------------- Iteration      1(  11)  ---------------------------------------


    POTLOK:  cpu time      0.5327: real time      0.5324
    SETDIJ:  cpu time      2.2881: real time      2.2902
    TRIAL :  cpu time      0.8972: real time      0.8979
    CORREC:  cpu time      3.7275: real time      3.7293
    CHARGE:  cpu time      0.0231: real time      0.0231
    --------------------------------------------
      LOOP:  cpu time      7.4720: real time      7.4860

 eigenvalue-minimisations  :     0
 total energy-change (2. order) :-0.4638429E-02  (-0.1527228E-02)
 number of electron      43.9999916 magnetization 
 augmentation part       21.3410398 magnetization 

 Free energy of the ion-electron system (eV)
  ---------------------------------------------------
  alpha Z        PSCENC =         1.37722947
  Ewald energy   TEWEN  =      1478.23520240
  -Hartree energ DENC   =     -5453.87260257
  -exchange      EXHF   =        86.30485375
  -V(xc)+E(xc)   XCENC  =       -40.29582368
  PAW double counting   =      4452.24949043    -4296.48897259
  entropy T*S    EENTRO =        -0.00000000
  eigenvalues    EBANDS =      -372.40621046
  atomic energy  EATOM  =      4139.13879565
  ---------------------------------------------------
  free energy    TOTEN  =        -5.75803759 eV

  energy without entropy =       -5.75803759  energy(sigma->0) =       -5.75803759
  exchange ACFDT corr.  =        -0.00000000  see jH, gK, PRB 81, 115126


--------------------------------------------------------------------------------------------------------




--------------------------------------- Iteration      1(  12)  ---------------------------------------


    POTLOK:  cpu time      0.5161: real time      0.5165
    SETDIJ:  cpu time      2.2890: real time      2.2906
    TRIAL :  cpu time      0.9005: real time      0.9012
    CORREC:  cpu time      3.7135: real time      3.7160
    CHARGE:  cpu time      0.0233: real time      0.0232
    --------------------------------------------
      LOOP:  cpu time      7.4457: real time      7.4618

 eigenvalue-minimisations  :     0
 total energy-change (2. order) :-0.1529217E-02  (-0.4176381E-03)
 number of electron      43.9999916 magnetization 
 augmentation part       21.3424445 magnetization 

 Free energy of the ion-electron system (eV)
  ---------------------------------------------------
  alpha Z        PSCENC =         1.37722947
  Ewald energy   TEWEN  =      1478.23520240
  -Hartree energ DENC   =     -5452.91334696
  -exchange      EXHF   =        86.28825692
  -V(xc)+E(xc)   XCENC  =       -40.31647856
  PAW double counting   =      4451.41365318    -4295.63654743
  entropy T*S    EENTRO =        -0.00000000
  eigenvalues    EBANDS =      -373.34633148
  atomic energy  EATOM  =      4139.13879565
  ---------------------------------------------------
  free energy    TOTEN  =        -5.75956680 eV

  energy without entropy =       -5.75956680  energy(sigma->0) =       -5.75956680
  exchange ACFDT corr.  =        -0.00000000  see jH, gK, PRB 81, 115126


--------------------------------------------------------------------------------------------------------




--------------------------------------- Iteration      1(  13)  ---------------------------------------


    POTLOK:  cpu time      0.5173: real time      0.5173
    SETDIJ:  cpu time      2.2879: real time      2.2893
    TRIAL :  cpu time      0.8923: real time      0.8928
    CORREC:  cpu time      3.7055: real time      3.7081
    CHARGE:  cpu time      0.0235: real time      0.0235
    --------------------------------------------
      LOOP:  cpu time      7.4304: real time      7.4446

 eigenvalue-minimisations  :     0
 total energy-change (2. order) :-0.4277457E-03  (-0.1032315E-03)
 number of electron      43.9999916 magnetization 
 augmentation part       21.3419250 magnetization 

 Free energy of the ion-electron system (eV)
  ---------------------------------------------------
  alpha Z        PSCENC =         1.37722947
  Ewald energy   TEWEN  =      1478.23520240
  -Hartree energ DENC   =     -5453.09242941
  -exchange      EXHF   =        86.29157919
  -V(xc)+E(xc)   XCENC  =       -40.31266770
  PAW double counting   =      4451.45932352    -4295.68167043
  entropy T*S    EENTRO =        -0.00000000
  eigenvalues    EBANDS =      -373.17535725
  atomic energy  EATOM  =      4139.13879565
  ---------------------------------------------------
  free energy    TOTEN  =        -5.75999455 eV

  energy without entropy =       -5.75999455  energy(sigma->0) =       -5.75999455
  exchange ACFDT corr.  =        -0.00000000  see jH, gK, PRB 81, 115126


--------------------------------------------------------------------------------------------------------




--------------------------------------- Iteration      1(  14)  ---------------------------------------


    POTLOK:  cpu time      0.5177: real time      0.5174
    SETDIJ:  cpu time      2.2885: real time      2.2908
    TRIAL :  cpu time      0.8934: real time      0.8941
    CORREC:  cpu time      3.7043: real time      3.7069
    CHARGE:  cpu time      0.0230: real time      0.0230
    --------------------------------------------
      LOOP:  cpu time      7.4312: real time      7.4462

 eigenvalue-minimisations  :     0
 total energy-change (2. order) :-0.1077746E-03  (-0.3509586E-04)
 number of electron      43.9999916 magnetization 
 augmentation part       21.3422517 magnetization 

 Free energy of the ion-electron system (eV)
  ---------------------------------------------------
  alpha Z        PSCENC =         1.37722947
  Ewald energy   TEWEN  =      1478.23520240
  -Hartree energ DENC   =     -5452.93699670
  -exchange      EXHF   =        86.28911263
  -V(xc)+E(xc)   XCENC  =       -40.31505237
  PAW double counting   =      4451.43229189    -4295.65274469
  entropy T*S    EENTRO =        -0.00000000
  eigenvalues    EBANDS =      -373.32794062
  atomic energy  EATOM  =      4139.13879565
  ---------------------------------------------------
  free energy    TOTEN  =        -5.76010232 eV

  energy without entropy =       -5.76010232  energy(sigma->0) =       -5.76010232
  exchange ACFDT corr.  =        -0.00000000  see jH, gK, PRB 81, 115126


--------------------------------------------------------------------------------------------------------




--------------------------------------- Iteration      1(  15)  ---------------------------------------


    POTLOK:  cpu time      0.5179: real time      0.5176
    SETDIJ:  cpu time      2.2888: real time      2.2910
    TRIAL :  cpu time      0.8955: real time      0.8958
    CORREC:  cpu time      3.7007: real time      3.7025
    EDDIAG:  cpu time      0.9178: real time      0.9134
    CHARGE:  cpu time      0.0298: real time      0.0298
    --------------------------------------------
      LOOP:  cpu time      8.3539: real time      8.3640

 eigenvalue-minimisations  :     0
 total energy-change (2. order) :-0.3548078E-04  (-0.1116113E-04)
 number of electron      43.9999916 magnetization 
 augmentation part       21.3423820 magnetization 

 Free energy of the ion-electron system (eV)
  ---------------------------------------------------
  alpha Z        PSCENC =         1.37722947
  Ewald energy   TEWEN  =      1478.23520240
  -Hartree energ DENC   =     -5452.96196263
  -exchange      EXHF   =        86.28996127
  -V(xc)+E(xc)   XCENC  =       -40.31428220
  PAW double counting   =      4451.56145795    -4295.78165436
  entropy T*S    EENTRO =        -0.00000000
  eigenvalues    EBANDS =      -373.30461487
  atomic energy  EATOM  =      4139.13879565
  ---------------------------------------------------
  free energy    TOTEN  =        -5.76013781 eV

  energy without entropy =       -5.76013781  energy(sigma->0) =       -5.76013781
  exchange ACFDT corr.  =        -0.00000000  see jH, gK, PRB 81, 115126


--------------------------------------------------------------------------------------------------------


  average scaling for gradient   1.0894


 average (electrostatic) potential at core
  the test charge radii are     1.1249
  (the norm of the test charge is              1.0000)
       1 -77.4433       2 -75.9827       3 -76.7546       4 -77.4415
 
 
 
 E-fermi :  -4.4119     XC(G=0):  -0.1931     alpha+bet : -0.0929

 Fermi energy:        -4.4118623456

 k-point     1 :       0.0000    0.0000    0.0000
  band No.  band energies     occupation 
      1     -10.4033      2.00000
      2     -10.0416      2.00000
      3      -9.8032      2.00000
      4      -9.7152      2.00000
      5      -9.4309      2.00000
      6      -9.4195      2.00000
      7      -9.2449      2.00000
      8      -8.9617      2.00000
      9      -8.9007      2.00000
     10      -8.8678      2.00000
     11      -8.8021      2.00000
     12      -8.5969      2.00000
     13      -8.3949      2.00000
     14      -8.3759      2.00000
     15      -8.3333      2.00000
     16      -7.7132      2.00000
     17      -7.7129      2.00000
     18      -7.5632      2.00000
     19      -7.5274      2.00000
     20      -7.4363      2.00000
     21      -6.7335      2.00000
     22      -4.6674      2.00000
     23      -3.1014      0.00000
     24      -1.9704      0.00000
     25      -1.2359      0.00000
     26      -0.5206      0.00000
     27      -0.3628      0.00000
     28      -0.0793      0.00000
     29       0.0929      0.00000
     30       0.1060      0.00000
     31       0.3512      0.00000
     32       0.4480      0.00000


--------------------------------------------------------------------------------------------------------


 soft charge-density along one line, spin component           1
         0         1         2         3         4         5         6         7         8         9
 total charge-density along one line
 
 pseudopotential strength for first ion, spin component:           1
 -9.240   0.000   0.000   0.007   0.000  -9.279   0.000   0.000
  0.000  -9.256   0.009  -0.000  -0.008   0.000  -9.295   0.008
  0.000   0.009  -9.243   0.000  -0.019   0.000   0.008  -9.281
  0.007  -0.000   0.000  -9.224   0.000   0.007  -0.000   0.000
  0.000  -0.008  -0.019   0.000  -9.246   0.000  -0.007  -0.018
 -9.279   0.000   0.000   0.007   0.000  -9.291   0.000   0.000
  0.000  -9.295   0.008  -0.000  -0.007   0.000  -9.306   0.008
  0.000   0.008  -9.281   0.000  -0.018   0.000   0.008  -9.293
  0.007  -0.000   0.000  -9.264   0.000   0.007  -0.000   0.000
  0.000  -0.007  -0.018   0.000  -9.285   0.000  -0.007  -0.017
  0.000  -0.005  -0.001  -0.000  -0.012   0.000  -0.005  -0.001
  0.000  -0.009  -0.002  -0.000  -0.019   0.000  -0.008  -0.002
  0.000  -0.008  -0.025   0.000  -0.042   0.000  -0.008  -0.024
  0.000   0.043  -0.010   0.000  -0.000   0.000   0.041  -0.009
  0.044   0.000  -0.000  -0.009   0.000   0.042   0.000  -0.000
  0.000  -0.010  -0.030   0.000  -0.052   0.000  -0.009  -0.029
  0.000   0.052  -0.012   0.000  -0.000   0.000   0.050  -0.011
  0.053   0.000  -0.000  -0.011   0.000   0.051   0.000  -0.000
 total augmentation occupancy for first ion, spin component:           1
  2.164  -0.000  -0.000  -0.034  -0.000  -0.182   0.000   0.000   0.050   0.000  -0.002   0.000   0.000  -0.000   0.007  -0.000
 -0.000   2.313  -0.069   0.000   0.127   0.000  -0.407   0.128  -0.000  -0.140   0.485  -0.136  -0.061   0.068  -0.000   0.001
 -0.000  -0.069   2.345  -0.000   0.123   0.000   0.128  -0.412   0.000  -0.187   0.104  -0.015  -0.034  -0.079   0.000  -0.011
 -0.034   0.000  -0.000   2.165   0.000   0.051  -0.000   0.000  -0.144  -0.000   0.001  -0.000  -0.000   0.000  -0.015   0.000
 -0.000   0.127   0.123   0.000   2.422   0.000  -0.140  -0.187  -0.000  -0.494   1.018  -0.257  -0.129   0.019  -0.000  -0.012
 -0.182   0.000   0.000   0.051   0.000   0.203  -0.000  -0.000  -0.066  -0.000   0.001  -0.000  -0.000   0.000  -0.036   0.000
  0.000  -0.407   0.128  -0.000  -0.140  -0.000   0.493  -0.181   0.001   0.153  -0.433   0.121   0.067  -0.106   0.000  -0.006
  0.000   0.128  -0.412   0.000  -0.187  -0.000  -0.181   0.474  -0.000   0.244  -0.071   0.007   0.053   0.093  -0.000  -0.005
  0.050  -0.000   0.000  -0.144  -0.000  -0.066   0.001  -0.000   0.127   0.000  -0.001   0.000   0.000  -0.000   0.021  -0.000
  0.000  -0.140  -0.187  -0.000  -0.494  -0.000   0.153   0.244   0.000   0.561  -0.882   0.224   0.168  -0.019   0.000  -0.015
 -0.002   0.485   0.104   0.001   1.018   0.001  -0.433  -0.071  -0.001  -0.882   2.720  -0.640  -0.337   0.112  -0.000   0.024
  0.000  -0.136  -0.015  -0.000  -0.257  -0.000   0.121   0.007   0.000   0.224  -0.640   0.154   0.083  -0.033   0.000  -0.006
  0.000  -0.061  -0.034  -0.000  -0.129  -0.000   0.067   0.053   0.000   0.168  -0.337   0.083   0.056  -0.012   0.000  -0.005
 -0.000   0.068  -0.079   0.000   0.019   0.000  -0.106   0.093  -0.000  -0.019   0.112  -0.033  -0.012   0.037  -0.000   0.001
  0.007  -0.000   0.000  -0.015  -0.000  -0.036   0.000  -0.000   0.021   0.000  -0.000   0.000   0.000  -0.000   0.008  -0.000
 -0.000   0.001  -0.011   0.000  -0.012   0.000  -0.006  -0.005  -0.000  -0.015   0.024  -0.006  -0.005   0.001  -0.000   0.001
  0.000   0.019   0.000   0.000  -0.002  -0.000   0.009  -0.007   0.000   0.002  -0.009   0.002   0.001  -0.003   0.000  -0.000
  0.025   0.000  -0.000  -0.004   0.000   0.003  -0.000   0.000  -0.002  -0.000   0.000  -0.000  -0.000   0.000  -0.001   0.000


------------------------ aborting loop because EDIFF is reached ----------------------------------------


    FORLOC:  cpu time      0.0092: real time      0.0092
    FORHF :  cpu time      0.3951: real time      0.3960
    FORNL :  cpu time      0.0251: real time      0.0252
    FORCOR:  cpu time      2.7736: real time      2.7748
    OFIELD:  cpu time      0.0002: real time      0.0002
    FORVDW:  cpu time      0.0117: real time      0.0283

 VOLUME and BASIS-vectors are now :
 -----------------------------------------------------------------------------
  energy-cutoff  :      520.00
  volume of cell :     9881.61
      direct lattice vectors                 reciprocal lattice vectors
    21.138852197  0.000000000  0.000000000     0.047306258  0.000000000  0.000000000
     0.000000000 21.138852197  0.000000000     0.000000000  0.047306258  0.000000000
     0.000000000  0.000000000 22.113885220     0.000000000  0.000000000  0.045220457

  length of vectors
    21.138852197 21.138852197 22.113885220     0.047306258  0.047306258  0.045220457


 FORCES acting on ions:
    Electron-Ion                     Ewald-Force                    Non-Local-Force
 -----------------------------------------------------------------------------------------------
   -.447E+00 -.382E+03 0.267E+03   0.439E+00 0.374E+03 -.265E+03   0.915E-02 0.765E+01 -.197E+01
   -.145E+00 -.990E+00 -.387E+03   0.141E+00 0.967E+00 0.380E+03   0.581E-02 0.222E-01 0.708E+01
   0.645E+00 0.109E+01 -.146E+03   -.637E+00 -.106E+01 0.150E+03   -.716E-02 -.341E-01 -.256E+01
   -.569E-01 0.382E+03 0.267E+03   0.577E-01 -.374E+03 -.265E+03   0.824E-03 -.764E+01 -.197E+01
 -----------------------------------------------------------------------------------------------
   -.348E-02 0.125E-03 -.455E+00   -.694E-16 -.568E-13 0.000E+00   0.863E-02 -.418E-02 0.572E+00
 
 
 POSITION                                       TOTAL-FORCE (eV/Angst)
 -----------------------------------------------------------------------------------
      8.46109     11.89365     13.52833        -0.001170     -0.082228     -0.246940
      8.45935     10.56642     18.47179        -0.000075      0.001188      0.190928
      8.45769     10.55816     15.88881         0.000200     -0.004745      0.300291
      8.45973      9.22287     13.52627         0.001045      0.085785     -0.244280
 -----------------------------------------------------------------------------------
    total drift:                                0.003154     -0.004157      0.011021


--------------------------------------------------------------------------------------------------------



  FREE ENERGIE OF THE ION-ELECTRON SYSTEM (eV)
  ---------------------------------------------------
  free  energy   TOTEN  =        -6.07280946 eV

  energy  without entropy=       -6.07280946  energy(sigma->0) =       -6.07280946
 


--------------------------------------------------------------------------------------------------------


    POTLOK:  cpu time      2.8169: real time      2.8188


--------------------------------------------------------------------------------------------------------


     LOOP+:  cpu time     87.7132: real time     88.0618
    4ORBIT:  cpu time      0.0000: real time      0.0000

 total amount of memory used by VASP MPI-rank0   112808. kBytes
=======================================================================

   base      :      30000. kBytes
   nonlr-proj:        745. kBytes
   fftplans  :       5756. kBytes
   grid      :       5345. kBytes
   one-center:         15. kBytes
   HF        :         64. kBytes
   wavefun   :        399. kBytes
   fock_wrk  :      70484. kBytes
 
  
  
 General timing and accounting informations for this job:
 ========================================================
  
                  Total CPU time used (sec):       98.949
                            User time (sec):       96.970
                          System time (sec):        1.980
                         Elapsed time (sec):      100.668
  
                   Maximum memory used (kb):      804800.
                   Average memory used (kb):          N/A
  
                          Minor page faults:        34584
                          Major page faults:            0
                 Voluntary context switches:         5918
