 **********************************************************************
                          MRCC program system
 **********************************************************************
 
                              Written by
     Mihaly Kallay, Peter R. Nagy, David Mester, Laszlo Gyevi-Nagy,
        Jozsef Csoka, P. Bernat Szabo, Zoltan Rolik, Gyula Samu,
     Jozsef Csontos, Bence Hegely, Adam Ganyecz, Istvan Ladjanszki,
       Lorant Szegedy, Bence Ladoczki, Klara Petrov, Mate Farkas,
                    Pal D. Mezei, and Reka A. Horvath
 
        Department of Physical Chemistry and Materials Science
            Budapest University of Technology and Economics
                  Budapest P.O.Box 91, H-1521 Hungary
 
                              www.mrcc.hu
 
                      Release date: March 18, 2022

 ************************ 2023-02-04 10:26:50 *************************
 Executing minp...

 Reading input from MINP...
 
 Input file:
 
calc=FNO-CCSD(T)
verbosity=3
mem=220GB
unit=angs
scfiguess=small
scfalg=locfit1
ccmaxit=400
ccsdalg=dfdirect
ccsdthreads=4
ccsdmkl=thr
ptthreads=4
lnoepsv=1e-5
naf_cor=1e-2
ECP=MCDHF-ECP-60
basis=bse_ACVQZ
basis_sm=def2-SVP
dfbasis_scf=def2-QZVPP-RI-JK
dfbasis_cor=bse_ACVQZ_mp2fit
core=0
unit=angs
geom=xyz
    4
Au4_1
Au     0.58885852     0.39545018     1.09613554
Au    -0.59271424    -0.39135590    -1.09567895
Au    -1.34131629    -1.43664851     1.23837741
Au     1.34131629     1.43664851    -1.23837741

ghost=serialno


 
 
 Checking keyword combinations...
 
 Keywords:
 
 active=none
 agrid=ld0006-ld0590
 agrid_pssp=ld0006-ld0194
 agrid_pssp_sm=ld0006-ld0074
 basis=bse_acvqz
 basis_sm=def2-svp
 basopt=off
 bfbasis=none
 bfgsmem=10
 bfgstol=1.0d-3
 bpcompo=0.985
 bpcompv=0.98
 bpdfo=0.985
 bpocc=0.985
 bppdo=0.985
 bppdv=0.98
 bpedo=0.985
 bpedv=0.98
 calc=ccsd(t)
 ccmaxit=400
 ccprog=ccsd
 ccsdalg=dfdirect
 ccsdmkl=thr
 ccsdrest=trf
 ccsdthreads=4
 cctol=6
 charge=0
 cialg=auto
 ciguess=off
 cmpgrp=auto
 comprest=off
 core=corr
 corembed=off
 csapprox=off
 cvs=off
 dboc=off
 delocsomofact=
 dendec=cholesky
 dens=0
 dfalg=lineq
 dfbasis_cab=none
 dfbasis_cor=bse_acvqz_mp2fit
 dfbasis_scf=def2-qzvpp-ri-jk
 dfbasis_scf_sm=def2-qzvpp-ri-jk
 dfintran=drpa
 dft=off
 dhexc=adc(2)
 diag=david
 docc=
 domrad=10.d0
 drpaalg=fit
 dual=off
 dual_df=off
 ecp=mcdhf-ecp-60
 edisp=off
 edisp_embed=off
 embed=off
 etemp=300
 epert=none
 eps=
 espcharge=off
 excrad=1.0
 excrad_fin=0.100000000D-02
 fitting=coulomb
 fmm=off
 fmmord=8
 freq=off
 gamma=1.d0
 gauss=spher
 geom=xyz
 gopt=off
 ghost=serialno
 gtol=7
 grdens=off
 gridbatch_cos=2000
 grtol=10
 guido_ct=off
 hamilton=dc
 iface=none
 intalg=auto
 itol=10
 laptol=1.d-2
 lccoporder=trffirst
 lcorthr=normal
 lccrest=off
 lmp2dens=on
 lnoepso=0.d0
 lnoepsv=1e-5
 boysalg=jacobi
 localcc=off
 localcorrsymm=off
 locintrf=disk
 mact=
 maxact=off
 maxdim=100
 maxex=0
 maxmicroit=100
 mcscfiguess=hf
 mem=220gb
 mmprog=
 molden=on
 mpitasks=1
 mulmet=0
 mult=
 nacto=0
 nactv=0
 naf_amp=1.d-2
 naf_cor=1e-2
 naf_scf=off
 nafalg=albe
 naftyp=
 nchol=auto
 ndeps=1e-3
 nstate=1
 nsing=0
 nto=off
 ntrip=0
 occ=
 occri=off
 oniom=off
 oniom_eechg=off
 oniom_pcm=off
 oniom_qcorr=off
 optalg=
 optmaxit=50
 optetol=1e-6
 optex=0
 optgtol=1e-4
 optstol=1e-3
 orblocc=off
 orbloce=off
 orbloco=off
 orblocv=off
 orblocguess=cholesky
 osveps=1e-3
 ovirt=ppl
 ovltol=1e-7
 ovosnorb=80.0
 pcm=off
 popul=off
 pressure=100000
 pssp=off
 ptfreq=0.0
 ptthreads=4
 qro=off
 qscf=off
 qmmm=off
 redcost_exc=off
 redcost_tddft=off
 refdet=none
 rest=0
 rgrid=log3
 rism=off
 rohfcore=semicanonical
 rohftype=semicanonical
 scfalg=locfit1
 scf_conv=difficult
 scfdamp=0.0d0
 scfdamp_mode=off
 scfdamp_end=50
 scfdamp_dampstep=0.d0
 scfdamp_dtol=0.0d0
 scfdamp_maxfact=0.0d0
 scfdamp_minfact=0.0d0
 scfdiis=on
 scfdiis_dtol=0.0d0
 scfdiis_end=50
 scfdiis_start=2
 scfdiis_step=1
 scfdiis_watch=off
 scfdiis_wrange=10
 scfdiis_wlimit=5
 scfdiis_delmax=2
 scfdtol=7
 scfext=10
 scfguessdens=
 scfiguess=small
 scfloc=pm
 scflshift=0.20
 scflshift_end=8
 scflshift_dtol=0.0
 scflshift_gaptol=0.20
 scfmaxit=50
 scftype=
 scftol=6
 scspe=1.d0
 scsph=1.d0
 scsps=1.2d0
 scsps_t=1.2d0
 scspt=0.33333333333333
 scspt_t=0.33333333333333
 scspv=1.d0
 spairtol=1e-4
 sqmprog=
 subminp=top
 symm=
 talg=occ
 temp=298.15
 test=off
 theodore=off
 tlmo=0.999
 tpao=0.94
 tprint=off
 uncontract=off
 unit=angs
 usedisk=2
 verbosity=3
 wpairtol=0.100000000E-05
 
 Calculating integrals for small-basis SCF...

 ************************ 2023-02-04 10:26:51 *************************
 Executing integ...

 Allocation of 220.0 Gbytes of memory...
 
 
 Number of atoms:                  4
 Charge:                           0
 Number of electrons:             76
 Number of core electrons:         0
 Spin multiplicity:                1
 
                 Cartesian coordinates [bohr]      Atomic mass [AMU]  Z
   1  Au    1.11278133    0.74729254    2.07139597   196.966543      79
   2  Au   -1.12006758   -0.73955547   -2.07053314   196.966543      79
   3  Au   -2.53472044   -2.71487222    2.34019414   196.966543      79
   4  Au    2.53472044    2.71487222   -2.34019414   196.966543      79
 
 This molecule is an asymmetric top.
 
 Point group: C1  
 Computational point group: C1  
 
 Cartesian coordinates in standard orientation [bohr]
   1  Au    0.00058418    2.46732219    0.00266499
   2  Au   -0.00052527   -2.46744293    0.00266473
   3  Au   -4.39000069    0.00037215   -0.00266483
   4  Au    4.38994177   -0.00025141   -0.00266490
 
 Nuclear repulsion energy [au]:        401.014549397316
 
 
 Basis set information:
 
 Maximum angular momentum: i
 Maximum number of contracted Gaussians:   13
 Maximum number of primitive Gaussians:    13
 Spherical harmonic GTOs are used.
 
 
 Conventional basis set:
 
   1  Au def2-svp [ 7s 6p 5d 1f | 6s 3p 2d 1f ]
   2  Au def2-svp [ 7s 6p 5d 1f | 6s 3p 2d 1f ]
   3  Au def2-svp [ 7s 6p 5d 1f | 6s 3p 2d 1f ]
   4  Au def2-svp [ 7s 6p 5d 1f | 6s 3p 2d 1f ]
 
 Basis functions:
            1             2             3             4             5             6             7             8             9            10
    0    1Au1s         1Au2s         1Au3s         1Au4s         1Au5s         1Au6s         1Au1pz        1Au1py        1Au1px        1Au2pz    
    1    1Au2py        1Au2px        1Au3pz        1Au3py        1Au3px        1Au1d-2       1Au1d-1       1Au1d0        1Au1d+1       1Au1d+2   
    2    1Au2d-2       1Au2d-1       1Au2d0        1Au2d+1       1Au2d+2       1Au1f-3       1Au1f-2       1Au1f-1       1Au1f0        1Au1f+1   
    3    1Au1f+2       1Au1f+3       2Au1s         2Au2s         2Au3s         2Au4s         2Au5s         2Au6s         2Au1pz        2Au1py    
    4    2Au1px        2Au2pz        2Au2py        2Au2px        2Au3pz        2Au3py        2Au3px        2Au1d-2       2Au1d-1       2Au1d0    
    5    2Au1d+1       2Au1d+2       2Au2d-2       2Au2d-1       2Au2d0        2Au2d+1       2Au2d+2       2Au1f-3       2Au1f-2       2Au1f-1   
    6    2Au1f0        2Au1f+1       2Au1f+2       2Au1f+3       3Au1s         3Au2s         3Au3s         3Au4s         3Au5s         3Au6s     
    7    3Au1pz        3Au1py        3Au1px        3Au2pz        3Au2py        3Au2px        3Au3pz        3Au3py        3Au3px        3Au1d-2   
    8    3Au1d-1       3Au1d0        3Au1d+1       3Au1d+2       3Au2d-2       3Au2d-1       3Au2d0        3Au2d+1       3Au2d+2       3Au1f-3   
    9    3Au1f-2       3Au1f-1       3Au1f0        3Au1f+1       3Au1f+2       3Au1f+3       4Au1s         4Au2s         4Au3s         4Au4s     
   10    4Au5s         4Au6s         4Au1pz        4Au1py        4Au1px        4Au2pz        4Au2py        4Au2px        4Au3pz        4Au3py    
   11    4Au3px        4Au1d-2       4Au1d-1       4Au1d0        4Au1d+1       4Au1d+2       4Au2d-2       4Au2d-1       4Au2d0        4Au2d+1   
   12    4Au2d+2       4Au1f-3       4Au1f-2       4Au1f-1       4Au1f0        4Au1f+1       4Au1f+2       4Au1f+3   
 
 Maximum number of basis functions per shell:   10
 Total number of basis functions:    128
 
 
 Fitting basis set for the SCF calculation:
 
   1  Au def2-qzvpp-ri-jk [ 13s 12p 11d 9f 5g 3h 2i | 13s 11p 10d 8f 4g 3h 2i ]
   2  Au def2-qzvpp-ri-jk [ 13s 12p 11d 9f 5g 3h 2i | 13s 11p 10d 8f 4g 3h 2i ]
   3  Au def2-qzvpp-ri-jk [ 13s 12p 11d 9f 5g 3h 2i | 13s 11p 10d 8f 4g 3h 2i ]
   4  Au def2-qzvpp-ri-jk [ 13s 12p 11d 9f 5g 3h 2i | 13s 11p 10d 8f 4g 3h 2i ]
 
 Basis functions:
            1             2             3             4             5             6             7             8             9            10
    0    1Au1s         1Au2s         1Au3s         1Au4s         1Au5s         1Au6s         1Au7s         1Au8s         1Au9s         1Au10s    
    1    1Au11s        1Au12s        1Au13s        1Au1pz        1Au1py        1Au1px        1Au2pz        1Au2py        1Au2px        1Au3pz    
    2    1Au3py        1Au3px        1Au4pz        1Au4py        1Au4px        1Au5pz        1Au5py        1Au5px        1Au6pz        1Au6py    
    3    1Au6px        1Au7pz        1Au7py        1Au7px        1Au8pz        1Au8py        1Au8px        1Au9pz        1Au9py        1Au9px    
    4    1Au10pz       1Au10py       1Au10px       1Au11pz       1Au11py       1Au11px       1Au1d-2       1Au1d-1       1Au1d0        1Au1d+1   
    5    1Au1d+2       1Au2d-2       1Au2d-1       1Au2d0        1Au2d+1       1Au2d+2       1Au3d-2       1Au3d-1       1Au3d0        1Au3d+1   
    6    1Au3d+2       1Au4d-2       1Au4d-1       1Au4d0        1Au4d+1       1Au4d+2       1Au5d-2       1Au5d-1       1Au5d0        1Au5d+1   
    7    1Au5d+2       1Au6d-2       1Au6d-1       1Au6d0        1Au6d+1       1Au6d+2       1Au7d-2       1Au7d-1       1Au7d0        1Au7d+1   
    8    1Au7d+2       1Au8d-2       1Au8d-1       1Au8d0        1Au8d+1       1Au8d+2       1Au9d-2       1Au9d-1       1Au9d0        1Au9d+1   
    9    1Au9d+2       1Au10d-2      1Au10d-1      1Au10d0       1Au10d+1      1Au10d+2      1Au1f-3       1Au1f-2       1Au1f-1       1Au1f0    
   10    1Au1f+1       1Au1f+2       1Au1f+3       1Au2f-3       1Au2f-2       1Au2f-1       1Au2f0        1Au2f+1       1Au2f+2       1Au2f+3   
   11    1Au3f-3       1Au3f-2       1Au3f-1       1Au3f0        1Au3f+1       1Au3f+2       1Au3f+3       1Au4f-3       1Au4f-2       1Au4f-1   
   12    1Au4f0        1Au4f+1       1Au4f+2       1Au4f+3       1Au5f-3       1Au5f-2       1Au5f-1       1Au5f0        1Au5f+1       1Au5f+2   
   13    1Au5f+3       1Au6f-3       1Au6f-2       1Au6f-1       1Au6f0        1Au6f+1       1Au6f+2       1Au6f+3       1Au7f-3       1Au7f-2   
   14    1Au7f-1       1Au7f0        1Au7f+1       1Au7f+2       1Au7f+3       1Au8f-3       1Au8f-2       1Au8f-1       1Au8f0        1Au8f+1   
   15    1Au8f+2       1Au8f+3       1Au1g-4       1Au1g-3       1Au1g-2       1Au1g-1       1Au1g0        1Au1g+1       1Au1g+2       1Au1g+3   
   16    1Au1g+4       1Au2g-4       1Au2g-3       1Au2g-2       1Au2g-1       1Au2g0        1Au2g+1       1Au2g+2       1Au2g+3       1Au2g+4   
   17    1Au3g-4       1Au3g-3       1Au3g-2       1Au3g-1       1Au3g0        1Au3g+1       1Au3g+2       1Au3g+3       1Au3g+4       1Au4g-4   
   18    1Au4g-3       1Au4g-2       1Au4g-1       1Au4g0        1Au4g+1       1Au4g+2       1Au4g+3       1Au4g+4       1Au1h-5       1Au1h-4   
   19    1Au1h-3       1Au1h-2       1Au1h-1       1Au1h0        1Au1h+1       1Au1h+2       1Au1h+3       1Au1h+4       1Au1h+5       1Au2h-5   
   20    1Au2h-4       1Au2h-3       1Au2h-2       1Au2h-1       1Au2h0        1Au2h+1       1Au2h+2       1Au2h+3       1Au2h+4       1Au2h+5   
   21    1Au3h-5       1Au3h-4       1Au3h-3       1Au3h-2       1Au3h-1       1Au3h0        1Au3h+1       1Au3h+2       1Au3h+3       1Au3h+4   
   22    1Au3h+5       1Au1i-6       1Au1i-5       1Au1i-4       1Au1i-3       1Au1i-2       1Au1i-1       1Au1i0        1Au1i+1       1Au1i+2   
   23    1Au1i+3       1Au1i+4       1Au1i+5       1Au1i+6       1Au2i-6       1Au2i-5       1Au2i-4       1Au2i-3       1Au2i-2       1Au2i-1   
   24    1Au2i0        1Au2i+1       1Au2i+2       1Au2i+3       1Au2i+4       1Au2i+5       1Au2i+6       2Au1s         2Au2s         2Au3s     
   25    2Au4s         2Au5s         2Au6s         2Au7s         2Au8s         2Au9s         2Au10s        2Au11s        2Au12s        2Au13s    
   26    2Au1pz        2Au1py        2Au1px        2Au2pz        2Au2py        2Au2px        2Au3pz        2Au3py        2Au3px        2Au4pz    
   27    2Au4py        2Au4px        2Au5pz        2Au5py        2Au5px        2Au6pz        2Au6py        2Au6px        2Au7pz        2Au7py    
   28    2Au7px        2Au8pz        2Au8py        2Au8px        2Au9pz        2Au9py        2Au9px        2Au10pz       2Au10py       2Au10px   
   29    2Au11pz       2Au11py       2Au11px       2Au1d-2       2Au1d-1       2Au1d0        2Au1d+1       2Au1d+2       2Au2d-2       2Au2d-1   
   30    2Au2d0        2Au2d+1       2Au2d+2       2Au3d-2       2Au3d-1       2Au3d0        2Au3d+1       2Au3d+2       2Au4d-2       2Au4d-1   
   31    2Au4d0        2Au4d+1       2Au4d+2       2Au5d-2       2Au5d-1       2Au5d0        2Au5d+1       2Au5d+2       2Au6d-2       2Au6d-1   
   32    2Au6d0        2Au6d+1       2Au6d+2       2Au7d-2       2Au7d-1       2Au7d0        2Au7d+1       2Au7d+2       2Au8d-2       2Au8d-1   
   33    2Au8d0        2Au8d+1       2Au8d+2       2Au9d-2       2Au9d-1       2Au9d0        2Au9d+1       2Au9d+2       2Au10d-2      2Au10d-1  
   34    2Au10d0       2Au10d+1      2Au10d+2      2Au1f-3       2Au1f-2       2Au1f-1       2Au1f0        2Au1f+1       2Au1f+2       2Au1f+3   
   35    2Au2f-3       2Au2f-2       2Au2f-1       2Au2f0        2Au2f+1       2Au2f+2       2Au2f+3       2Au3f-3       2Au3f-2       2Au3f-1   
   36    2Au3f0        2Au3f+1       2Au3f+2       2Au3f+3       2Au4f-3       2Au4f-2       2Au4f-1       2Au4f0        2Au4f+1       2Au4f+2   
   37    2Au4f+3       2Au5f-3       2Au5f-2       2Au5f-1       2Au5f0        2Au5f+1       2Au5f+2       2Au5f+3       2Au6f-3       2Au6f-2   
   38    2Au6f-1       2Au6f0        2Au6f+1       2Au6f+2       2Au6f+3       2Au7f-3       2Au7f-2       2Au7f-1       2Au7f0        2Au7f+1   
   39    2Au7f+2       2Au7f+3       2Au8f-3       2Au8f-2       2Au8f-1       2Au8f0        2Au8f+1       2Au8f+2       2Au8f+3       2Au1g-4   
   40    2Au1g-3       2Au1g-2       2Au1g-1       2Au1g0        2Au1g+1       2Au1g+2       2Au1g+3       2Au1g+4       2Au2g-4       2Au2g-3   
   41    2Au2g-2       2Au2g-1       2Au2g0        2Au2g+1       2Au2g+2       2Au2g+3       2Au2g+4       2Au3g-4       2Au3g-3       2Au3g-2   
   42    2Au3g-1       2Au3g0        2Au3g+1       2Au3g+2       2Au3g+3       2Au3g+4       2Au4g-4       2Au4g-3       2Au4g-2       2Au4g-1   
   43    2Au4g0        2Au4g+1       2Au4g+2       2Au4g+3       2Au4g+4       2Au1h-5       2Au1h-4       2Au1h-3       2Au1h-2       2Au1h-1   
   44    2Au1h0        2Au1h+1       2Au1h+2       2Au1h+3       2Au1h+4       2Au1h+5       2Au2h-5       2Au2h-4       2Au2h-3       2Au2h-2   
   45    2Au2h-1       2Au2h0        2Au2h+1       2Au2h+2       2Au2h+3       2Au2h+4       2Au2h+5       2Au3h-5       2Au3h-4       2Au3h-3   
   46    2Au3h-2       2Au3h-1       2Au3h0        2Au3h+1       2Au3h+2       2Au3h+3       2Au3h+4       2Au3h+5       2Au1i-6       2Au1i-5   
   47    2Au1i-4       2Au1i-3       2Au1i-2       2Au1i-1       2Au1i0        2Au1i+1       2Au1i+2       2Au1i+3       2Au1i+4       2Au1i+5   
   48    2Au1i+6       2Au2i-6       2Au2i-5       2Au2i-4       2Au2i-3       2Au2i-2       2Au2i-1       2Au2i0        2Au2i+1       2Au2i+2   
   49    2Au2i+3       2Au2i+4       2Au2i+5       2Au2i+6       3Au1s         3Au2s         3Au3s         3Au4s         3Au5s         3Au6s     
   50    3Au7s         3Au8s         3Au9s         3Au10s        3Au11s        3Au12s        3Au13s        3Au1pz        3Au1py        3Au1px    
   51    3Au2pz        3Au2py        3Au2px        3Au3pz        3Au3py        3Au3px        3Au4pz        3Au4py        3Au4px        3Au5pz    
   52    3Au5py        3Au5px        3Au6pz        3Au6py        3Au6px        3Au7pz        3Au7py        3Au7px        3Au8pz        3Au8py    
   53    3Au8px        3Au9pz        3Au9py        3Au9px        3Au10pz       3Au10py       3Au10px       3Au11pz       3Au11py       3Au11px   
   54    3Au1d-2       3Au1d-1       3Au1d0        3Au1d+1       3Au1d+2       3Au2d-2       3Au2d-1       3Au2d0        3Au2d+1       3Au2d+2   
   55    3Au3d-2       3Au3d-1       3Au3d0        3Au3d+1       3Au3d+2       3Au4d-2       3Au4d-1       3Au4d0        3Au4d+1       3Au4d+2   
   56    3Au5d-2       3Au5d-1       3Au5d0        3Au5d+1       3Au5d+2       3Au6d-2       3Au6d-1       3Au6d0        3Au6d+1       3Au6d+2   
   57    3Au7d-2       3Au7d-1       3Au7d0        3Au7d+1       3Au7d+2       3Au8d-2       3Au8d-1       3Au8d0        3Au8d+1       3Au8d+2   
   58    3Au9d-2       3Au9d-1       3Au9d0        3Au9d+1       3Au9d+2       3Au10d-2      3Au10d-1      3Au10d0       3Au10d+1      3Au10d+2  
   59    3Au1f-3       3Au1f-2       3Au1f-1       3Au1f0        3Au1f+1       3Au1f+2       3Au1f+3       3Au2f-3       3Au2f-2       3Au2f-1   
   60    3Au2f0        3Au2f+1       3Au2f+2       3Au2f+3       3Au3f-3       3Au3f-2       3Au3f-1       3Au3f0        3Au3f+1       3Au3f+2   
   61    3Au3f+3       3Au4f-3       3Au4f-2       3Au4f-1       3Au4f0        3Au4f+1       3Au4f+2       3Au4f+3       3Au5f-3       3Au5f-2   
   62    3Au5f-1       3Au5f0        3Au5f+1       3Au5f+2       3Au5f+3       3Au6f-3       3Au6f-2       3Au6f-1       3Au6f0        3Au6f+1   
   63    3Au6f+2       3Au6f+3       3Au7f-3       3Au7f-2       3Au7f-1       3Au7f0        3Au7f+1       3Au7f+2       3Au7f+3       3Au8f-3   
   64    3Au8f-2       3Au8f-1       3Au8f0        3Au8f+1       3Au8f+2       3Au8f+3       3Au1g-4       3Au1g-3       3Au1g-2       3Au1g-1   
   65    3Au1g0        3Au1g+1       3Au1g+2       3Au1g+3       3Au1g+4       3Au2g-4       3Au2g-3       3Au2g-2       3Au2g-1       3Au2g0    
   66    3Au2g+1       3Au2g+2       3Au2g+3       3Au2g+4       3Au3g-4       3Au3g-3       3Au3g-2       3Au3g-1       3Au3g0        3Au3g+1   
   67    3Au3g+2       3Au3g+3       3Au3g+4       3Au4g-4       3Au4g-3       3Au4g-2       3Au4g-1       3Au4g0        3Au4g+1       3Au4g+2   
   68    3Au4g+3       3Au4g+4       3Au1h-5       3Au1h-4       3Au1h-3       3Au1h-2       3Au1h-1       3Au1h0        3Au1h+1       3Au1h+2   
   69    3Au1h+3       3Au1h+4       3Au1h+5       3Au2h-5       3Au2h-4       3Au2h-3       3Au2h-2       3Au2h-1       3Au2h0        3Au2h+1   
   70    3Au2h+2       3Au2h+3       3Au2h+4       3Au2h+5       3Au3h-5       3Au3h-4       3Au3h-3       3Au3h-2       3Au3h-1       3Au3h0    
   71    3Au3h+1       3Au3h+2       3Au3h+3       3Au3h+4       3Au3h+5       3Au1i-6       3Au1i-5       3Au1i-4       3Au1i-3       3Au1i-2   
   72    3Au1i-1       3Au1i0        3Au1i+1       3Au1i+2       3Au1i+3       3Au1i+4       3Au1i+5       3Au1i+6       3Au2i-6       3Au2i-5   
   73    3Au2i-4       3Au2i-3       3Au2i-2       3Au2i-1       3Au2i0        3Au2i+1       3Au2i+2       3Au2i+3       3Au2i+4       3Au2i+5   
   74    3Au2i+6       4Au1s         4Au2s         4Au3s         4Au4s         4Au5s         4Au6s         4Au7s         4Au8s         4Au9s     
   75    4Au10s        4Au11s        4Au12s        4Au13s        4Au1pz        4Au1py        4Au1px        4Au2pz        4Au2py        4Au2px    
   76    4Au3pz        4Au3py        4Au3px        4Au4pz        4Au4py        4Au4px        4Au5pz        4Au5py        4Au5px        4Au6pz    
   77    4Au6py        4Au6px        4Au7pz        4Au7py        4Au7px        4Au8pz        4Au8py        4Au8px        4Au9pz        4Au9py    
   78    4Au9px        4Au10pz       4Au10py       4Au10px       4Au11pz       4Au11py       4Au11px       4Au1d-2       4Au1d-1       4Au1d0    
   79    4Au1d+1       4Au1d+2       4Au2d-2       4Au2d-1       4Au2d0        4Au2d+1       4Au2d+2       4Au3d-2       4Au3d-1       4Au3d0    
   80    4Au3d+1       4Au3d+2       4Au4d-2       4Au4d-1       4Au4d0        4Au4d+1       4Au4d+2       4Au5d-2       4Au5d-1       4Au5d0    
   81    4Au5d+1       4Au5d+2       4Au6d-2       4Au6d-1       4Au6d0        4Au6d+1       4Au6d+2       4Au7d-2       4Au7d-1       4Au7d0    
   82    4Au7d+1       4Au7d+2       4Au8d-2       4Au8d-1       4Au8d0        4Au8d+1       4Au8d+2       4Au9d-2       4Au9d-1       4Au9d0    
   83    4Au9d+1       4Au9d+2       4Au10d-2      4Au10d-1      4Au10d0       4Au10d+1      4Au10d+2      4Au1f-3       4Au1f-2       4Au1f-1   
   84    4Au1f0        4Au1f+1       4Au1f+2       4Au1f+3       4Au2f-3       4Au2f-2       4Au2f-1       4Au2f0        4Au2f+1       4Au2f+2   
   85    4Au2f+3       4Au3f-3       4Au3f-2       4Au3f-1       4Au3f0        4Au3f+1       4Au3f+2       4Au3f+3       4Au4f-3       4Au4f-2   
   86    4Au4f-1       4Au4f0        4Au4f+1       4Au4f+2       4Au4f+3       4Au5f-3       4Au5f-2       4Au5f-1       4Au5f0        4Au5f+1   
   87    4Au5f+2       4Au5f+3       4Au6f-3       4Au6f-2       4Au6f-1       4Au6f0        4Au6f+1       4Au6f+2       4Au6f+3       4Au7f-3   
   88    4Au7f-2       4Au7f-1       4Au7f0        4Au7f+1       4Au7f+2       4Au7f+3       4Au8f-3       4Au8f-2       4Au8f-1       4Au8f0    
   89    4Au8f+1       4Au8f+2       4Au8f+3       4Au1g-4       4Au1g-3       4Au1g-2       4Au1g-1       4Au1g0        4Au1g+1       4Au1g+2   
   90    4Au1g+3       4Au1g+4       4Au2g-4       4Au2g-3       4Au2g-2       4Au2g-1       4Au2g0        4Au2g+1       4Au2g+2       4Au2g+3   
   91    4Au2g+4       4Au3g-4       4Au3g-3       4Au3g-2       4Au3g-1       4Au3g0        4Au3g+1       4Au3g+2       4Au3g+3       4Au3g+4   
   92    4Au4g-4       4Au4g-3       4Au4g-2       4Au4g-1       4Au4g0        4Au4g+1       4Au4g+2       4Au4g+3       4Au4g+4       4Au1h-5   
   93    4Au1h-4       4Au1h-3       4Au1h-2       4Au1h-1       4Au1h0        4Au1h+1       4Au1h+2       4Au1h+3       4Au1h+4       4Au1h+5   
   94    4Au2h-5       4Au2h-4       4Au2h-3       4Au2h-2       4Au2h-1       4Au2h0        4Au2h+1       4Au2h+2       4Au2h+3       4Au2h+4   
   95    4Au2h+5       4Au3h-5       4Au3h-4       4Au3h-3       4Au3h-2       4Au3h-1       4Au3h0        4Au3h+1       4Au3h+2       4Au3h+3   
   96    4Au3h+4       4Au3h+5       4Au1i-6       4Au1i-5       4Au1i-4       4Au1i-3       4Au1i-2       4Au1i-1       4Au1i0        4Au1i+1   
   97    4Au1i+2       4Au1i+3       4Au1i+4       4Au1i+5       4Au1i+6       4Au2i-6       4Au2i-5       4Au2i-4       4Au2i-3       4Au2i-2   
   98    4Au2i-1       4Au2i0        4Au2i+1       4Au2i+2       4Au2i+3       4Au2i+4       4Au2i+5       4Au2i+6   
 
 Maximum number of basis functions per shell:   56
 Total number of basis functions:    988
 
 
 Effective core potentials:
 
   1  Au mcdhf-ecp-60        
   2  Au mcdhf-ecp-60        
   3  Au mcdhf-ecp-60        
   4  Au mcdhf-ecp-60        
 
 Initializing the SAD routines for the initial guess...
 Checking the files required for the initial guess...
 Density files have not been found for the initial guess.
 Generating SCFDENSITIES.Au.def2-svp.0
 CPU time [min]:     0.119                   Wall time [min]:     0.163
 
 Character table for point group C1:
 
          E  
    A     1
 
 Number of basis functions per irrep:
    A     128
 
 
 Calculation of overlap integrals...
 CPU time [min]:     0.120                   Wall time [min]:     0.163
 
 Calculation of the square root of the overlap matrix...
 Minimum eigenvalue of the overlap matrix: 0.339601E-02
 CPU time [min]:     0.139                   Wall time [min]:     0.164
 
 Calculation of kinetic energy integrals...
 CPU time [min]:     0.140                   Wall time [min]:     0.164
 Calculation of dipole moment integrals...
 CPU time [min]:     0.141                   Wall time [min]:     0.164
 Calculation of nuclear attraction integrals...
 CPU time [min]:     0.144                   Wall time [min]:     0.164
 Calculation of core potential integrals...
 CPU time [min]:     0.384                   Wall time [min]:     0.292
 
 Calculation of prescreening integrals...
 CPU time [min]:     0.536                   Wall time [min]:     0.296
 
 Calculation of two-center Coulomb integrals...
   1% done.
  12% done.
  25% done.
  36% done.
  48% done.
  63% done.
  82% done.
  95% done.
 100% done.
 CPU time [min]:     0.556                   Wall time [min]:     0.297
 
 Cholesky decomposition of the two-center matrix...
 Reciprocal of the condition number:  0.170737E-05
 CPU time [min]:     0.595                   Wall time [min]:     0.298
 
 
 Running small-basis SCF...

 ************************ 2023-02-04 10:27:09 *************************
 Executing scf...

 @scfsetup: integrals calculated directly
            mrcc/integ direct run
 @scfsetup: calculating on full matrices
            not using symmetry adapted basis
 @scfsetup: diis switched on
 @scfsetup: number of steps to extrapolate from  10
 @scfsetup: tolerance in energy deviation    0.100000E-05
            tolerance in density deviation    0.100000E-06
 @scfsetup: maximum number of iterations:  50
 @scfsetup: restricted closed shell hf calc
 @scfsetup: starting scf from superposition of atomic densities
 @scfsetup: occupation set:
            from initial orbitals
 @scfsetup: Parameter-set for SCF acceleration: difficult
 @scfsetup: diis runs from iteration:   2
 @scfsetup: diis runs to iteration:  50
 @scfsetup: diis runs in every iteration
 @scfsetup: diiswatch is disabled                   
 @scfsetup: diis dtol criteria to switch on:      0.0000E+00
           (or the iteration number below is reached)
 @scfsetup: damping is turned off.
 @scfsetup: dynamic level shifting
            tolarance in HOMO-LUMO gap:  0.200
            tolarance in density deviation:     0.0000E+00
            iteration step criteria to turn level shifting off: 8
 Allocation of 220.0 Gbytes of memory...
 ======================================================================
 ITERATION STEP   1
 CPU time [min]:     0.029                   Wall time [min]:     0.005
 

 SCF control                  : initial
 Damping factor/level shift   : 0.000/0.200
 DIIS [start/end/frequency]   :   2 / 50 /  1

 Constructing Fock-matrix...
 
 Pipek-Mezey localization...
 Step  Convergence
   1  29.606050242026
   2  14.733975586891
   3   9.711871704652
   4   1.882183385847
   5   0.066813077110
   6   0.000150349279
   7   0.000000315772
 CPU time [min]:     0.055                   Wall time [min]:     0.006
 
 Constructing local fitting domains...
 Maximum number of atoms in fitting domains:    4
 Average number of atoms in fitting domains:    4.0
 
 First step of Coulomb + first step of exchange...
 Exchange contribution is evaluated for MOs 1 to 38.
   1% done.
  14% done.
  25% done.
  38% done.
  49% done.
  64% done.
  75% done.
  89% done.
 100% done.
 CPU time [min]:     0.215                   Wall time [min]:     0.011
 
 Fitting and assembly step of exchange...
 CPU time [min]:     0.228                   Wall time [min]:     0.011
 
 Second step of Coulomb...
   1% done.
  14% done.
  25% done.
  38% done.
  49% done.
  64% done.
  75% done.
  89% done.
 100% done.
 CPU time [min]:     0.273                   Wall time [min]:     0.013
 
 Gradient norm:      3.3773E+00
 RMS of [F,P]:                                         0.04477337137674
 RMS of difference density:                            0.02899869856174
 Gap [au]:  0.14313544
 ALPHA OCC:  38
 BETA  OCC:  38
 
 ***HARTREE-FOCK ENERGY IN STEP   1 IS       -537.7354479289529081 [AU]
 ======================================================================
 ITERATION STEP   2
 CPU time [min]:     0.287                   Wall time [min]:     0.013
 

 SCF control                  : diis
 Damping factor/level shift   : 0.000/0.200
 DIIS [start/end/frequency]   :   2 / 50 /  1

 Constructing Fock-matrix...
 
 Pipek-Mezey localization...
 Step  Convergence
   1   4.969216627729
   2   2.856263416012
   3   0.189144172070
   4   0.055434877113
   5   0.000328065105
   6   0.000002320567
   7   0.000000015763
 CPU time [min]:     0.312                   Wall time [min]:     0.014
 
 Constructing local fitting domains...
 Maximum number of atoms in fitting domains:    4
 Average number of atoms in fitting domains:    4.0
 
 First step of Coulomb + first step of exchange...
 Exchange contribution is evaluated for MOs 1 to 38.
   1% done.
  14% done.
  25% done.
  38% done.
  49% done.
  64% done.
  75% done.
  89% done.
 100% done.
 CPU time [min]:     0.432                   Wall time [min]:     0.017
 
 Fitting and assembly step of exchange...
 CPU time [min]:     0.438                   Wall time [min]:     0.017
 
 Second step of Coulomb...
   1% done.
  14% done.
  25% done.
  38% done.
  49% done.
  64% done.
  75% done.
  89% done.
 100% done.
 CPU time [min]:     0.479                   Wall time [min]:     0.018
 
 Gradient norm:      4.6644E-01
 DIIS is running in this iteration step.
 RMS of [F,P]:                                         0.01354109922124
 RMS of difference density:                            0.01575441959557
 Gap [au]:  0.21942762
 ALPHA OCC:  38
 BETA  OCC:  38
 
 ***HARTREE-FOCK ENERGY IN STEP   2 IS       -538.8713956766457613 [AU]
 
 Step comparison  Energy Drift [au]  DIIS error drift  Gradient drift
        1            1.1359E+00         3.1232E-02       2.9109E+00
        2            5.3887E+02         1.0000E-07       2.9109E+00
 ======================================================================
 ITERATION STEP   3
 CPU time [min]:     0.507                   Wall time [min]:     0.019
 

 SCF control                  : diis
 Damping factor/level shift   : 0.000/0.000
 DIIS [start/end/frequency]   :   2 / 50 /  1

 Constructing Fock-matrix...
 
 Pipek-Mezey localization...
 Step  Convergence
   1  10.161002065845
   2   3.391150239510
   3   0.489340050583
   4   0.243924218195
   5   0.019567308800
   6   0.000426595081
   7   0.000010675262
   8   0.000000241752
 CPU time [min]:     0.532                   Wall time [min]:     0.020
 
 Constructing local fitting domains...
 Local fitting domains are unchanged.
 
 First step of Coulomb + first step of exchange...
 Exchange contribution is evaluated for MOs 1 to 38.
   1% done.
  14% done.
  25% done.
  38% done.
  49% done.
  64% done.
  75% done.
  89% done.
 100% done.
 CPU time [min]:     0.652                   Wall time [min]:     0.023
 
 Fitting and assembly step of exchange...
 CPU time [min]:     0.658                   Wall time [min]:     0.024
 
 Second step of Coulomb...
   1% done.
  14% done.
  25% done.
  38% done.
  49% done.
  64% done.
  75% done.
  89% done.
 100% done.
 CPU time [min]:     0.699                   Wall time [min]:     0.025
 
 Gradient norm:      1.5244E-01
 DIIS is running in this iteration step.
 RMS of [F,P]:                                         0.00481829863446
 RMS of difference density:                            0.00441065501041
 Gap [au]:  0.20335653
 ALPHA OCC:  38
 BETA  OCC:  38
 
 ***HARTREE-FOCK ENERGY IN STEP   3 IS       -539.0956291404852436 [AU]
 
 Step comparison  Energy Drift [au]  DIIS error drift  Gradient drift
        2            2.2423E-01         8.7228E-03       3.1400E-01
 ======================================================================
 ITERATION STEP   4
 CPU time [min]:     0.710                   Wall time [min]:     0.025
 

 SCF control                  : diis
 Damping factor/level shift   : 0.000/0.000
 DIIS [start/end/frequency]   :   2 / 50 /  1

 Constructing Fock-matrix...
 
 Pipek-Mezey localization...
 Step  Convergence
   1   9.979015821963
   2   5.921159014179
   3   1.212050095262
   4   0.374098431708
   5   0.119461683153
   6   0.023290807564
   7   0.001348905020
   8   0.000089159077
   9   0.000011400617
  10   0.000001675478
  11   0.000000216856
 CPU time [min]:     0.736                   Wall time [min]:     0.026
 
 Constructing local fitting domains...
 Local fitting domains are unchanged.
 
 First step of Coulomb + first step of exchange...
 Exchange contribution is evaluated for MOs 1 to 38.
   1% done.
  14% done.
  25% done.
  38% done.
  49% done.
  64% done.
  75% done.
  89% done.
 100% done.
 CPU time [min]:     0.855                   Wall time [min]:     0.029
 
 Fitting and assembly step of exchange...
 CPU time [min]:     0.861                   Wall time [min]:     0.029
 
 Second step of Coulomb...
   1% done.
  14% done.
  25% done.
  38% done.
  49% done.
  64% done.
  75% done.
  89% done.
 100% done.
 CPU time [min]:     0.901                   Wall time [min]:     0.030
 
 Gradient norm:      3.5890E-02
 DIIS is running in this iteration step.
 RMS of [F,P]:                                         0.00070032949772
 RMS of difference density:                            0.00122061826564
 Gap [au]:  0.20924943
 ALPHA OCC:  38
 BETA  OCC:  38
 
 ***HARTREE-FOCK ENERGY IN STEP   4 IS       -539.1334684618766460 [AU]
 
 Step comparison  Energy Drift [au]  DIIS error drift  Gradient drift
        3            3.7839E-02         4.1180E-03       1.1655E-01
 ======================================================================
 ITERATION STEP   5
 CPU time [min]:     0.912                   Wall time [min]:     0.031
 

 SCF control                  : diis
 Damping factor/level shift   : 0.000/0.000
 DIIS [start/end/frequency]   :   2 / 50 /  1

 Constructing Fock-matrix...
 
 Pipek-Mezey localization...
 Step  Convergence
   1  14.759149603170
   2   1.574679506751
   3   0.308189738641
   4   0.031885746028
   5   0.000689086759
   6   0.000085384506
   7   0.000007839767
   8   0.000000980981
 CPU time [min]:     0.938                   Wall time [min]:     0.031
 
 Constructing local fitting domains...
 Local fitting domains are unchanged.
 
 First step of Coulomb + first step of exchange...
 Exchange contribution is evaluated for MOs 1 to 38.
   1% done.
  14% done.
  25% done.
  38% done.
  49% done.
  64% done.
  75% done.
  89% done.
 100% done.
 CPU time [min]:     1.057                   Wall time [min]:     0.035
 
 Fitting and assembly step of exchange...
 CPU time [min]:     1.063                   Wall time [min]:     0.035
 
 Second step of Coulomb...
   1% done.
  14% done.
  25% done.
  38% done.
  49% done.
  64% done.
  75% done.
  89% done.
 100% done.
 CPU time [min]:     1.104                   Wall time [min]:     0.036
 
 Gradient norm:      1.3812E-02
 DIIS is running in this iteration step.
 RMS of [F,P]:                                         0.00040689095254
 RMS of difference density:                            0.00090878463542
 Gap [au]:  0.21175476
 ALPHA OCC:  38
 BETA  OCC:  38
 
 ***HARTREE-FOCK ENERGY IN STEP   5 IS       -539.1351024804644112 [AU]
 
 Step comparison  Energy Drift [au]  DIIS error drift  Gradient drift
        4            1.6340E-03         2.9344E-04       2.2077E-02
 ======================================================================
 ITERATION STEP   6
 CPU time [min]:     1.115                   Wall time [min]:     0.036
 

 SCF control                  : diis
 Damping factor/level shift   : 0.000/0.000
 DIIS [start/end/frequency]   :   2 / 50 /  1

 Constructing Fock-matrix...
 
 Pipek-Mezey localization...
 Step  Convergence
   1  14.995117302451
   2   3.807708538615
   3   0.505422239862
   4   0.034654309207
   5   0.001573524569
   6   0.000122903253
   7   0.000010739053
   8   0.000000980756
 CPU time [min]:     1.140                   Wall time [min]:     0.037
 
 Constructing local fitting domains...
 Local fitting domains are unchanged.
 
 First step of Coulomb + first step of exchange...
 Exchange contribution is evaluated for MOs 1 to 38.
   1% done.
  14% done.
  25% done.
  38% done.
  49% done.
  64% done.
  75% done.
  89% done.
 100% done.
 CPU time [min]:     1.258                   Wall time [min]:     0.040
 
 Fitting and assembly step of exchange...
 CPU time [min]:     1.264                   Wall time [min]:     0.041
 
 Second step of Coulomb...
   1% done.
  14% done.
  25% done.
  38% done.
  49% done.
  64% done.
  75% done.
  89% done.
 100% done.
 CPU time [min]:     1.305                   Wall time [min]:     0.042
 
 Gradient norm:      4.5096E-03
 DIIS is running in this iteration step.
 RMS of [F,P]:                                         0.00008677204659
 RMS of difference density:                            0.00021900664132
 Gap [au]:  0.21167856
 ALPHA OCC:  38
 BETA  OCC:  38
 
 ***HARTREE-FOCK ENERGY IN STEP   6 IS       -539.1356218277362586 [AU]
 
 Step comparison  Energy Drift [au]  DIIS error drift  Gradient drift
        5            5.1935E-04         3.2012E-04       9.3029E-03
 ======================================================================
 ITERATION STEP   7
 CPU time [min]:     1.316                   Wall time [min]:     0.042
 

 SCF control                  : diis
 Damping factor/level shift   : 0.000/0.000
 DIIS [start/end/frequency]   :   2 / 50 /  1

 Constructing Fock-matrix...
 
 Pipek-Mezey localization...
 Step  Convergence
   1  17.208673442687
   2  13.213949256317
   3  10.398524519134
   4   6.688621585357
   5   1.840062054362
   6   0.401701707238
   7   0.015616655154
   8   0.001710562802
   9   0.000127208341
  10   0.000050945722
  11   0.000003871858
  12   0.000001071406
  13   0.000000130490
  14   0.000000044310
  15   0.000000005289
  16   0.000000001313
  17   0.000000000203
  18   0.000000000052
  19   0.000000000009
  20   0.000000000002
  21   0.000000000000
 CPU time [min]:     1.347                   Wall time [min]:     0.043
 
 Constructing local fitting domains...
 Local fitting domains are unchanged.
 
 First step of Coulomb + first step of exchange...
 Exchange contribution is evaluated for MOs 1 to 38.
   1% done.
  14% done.
  25% done.
  38% done.
  49% done.
  64% done.
  75% done.
  89% done.
 100% done.
 CPU time [min]:     1.466                   Wall time [min]:     0.046
 
 Fitting and assembly step of exchange...
 CPU time [min]:     1.472                   Wall time [min]:     0.046
 
 Second step of Coulomb...
   1% done.
  14% done.
  25% done.
  38% done.
  49% done.
  64% done.
  75% done.
  89% done.
 100% done.
 CPU time [min]:     1.513                   Wall time [min]:     0.048
 
 Gradient norm:      2.1461E-03
 DIIS is running in this iteration step.
 RMS of [F,P]:                                         0.00004136930639
 RMS of difference density:                            0.00009856895819
 Gap [au]:  0.21191289
 ALPHA OCC:  38
 BETA  OCC:  38
 
 ***HARTREE-FOCK ENERGY IN STEP   7 IS       -539.1356660685353290 [AU]
 
 Step comparison  Energy Drift [au]  DIIS error drift  Gradient drift
        6            4.4241E-05         4.5403E-05       2.3634E-03
 ======================================================================
 ITERATION STEP   8
 CPU time [min]:     1.524                   Wall time [min]:     0.048
 

 SCF control                  : diis
 Damping factor/level shift   : 0.000/0.000
 DIIS [start/end/frequency]   :   2 / 50 /  1

 Constructing Fock-matrix...
 
 Pipek-Mezey localization...
 Step  Convergence
   1  21.371446696128
   2   9.074971940756
   3   9.192765431142
   4   4.324038053866
   5   1.733309065101
   6   0.208635797220
   7   0.003116999944
   8   0.000141638635
   9   0.000018494840
  10   0.000001776937
  11   0.000000292222
  12   0.000000038342
  13   0.000000006135
  14   0.000000000903
  15   0.000000000142
  16   0.000000000022
  17   0.000000000003
  18   0.000000000001
 CPU time [min]:     1.554                   Wall time [min]:     0.049
 
 Constructing local fitting domains...
 Local fitting domains are unchanged.
 
 First step of Coulomb + first step of exchange...
 Exchange contribution is evaluated for MOs 1 to 38.
   1% done.
  14% done.
  25% done.
  38% done.
  49% done.
  64% done.
  75% done.
  89% done.
 100% done.
 CPU time [min]:     1.673                   Wall time [min]:     0.052
 
 Fitting and assembly step of exchange...
 CPU time [min]:     1.679                   Wall time [min]:     0.052
 
 Second step of Coulomb...
   1% done.
  14% done.
  25% done.
  38% done.
  49% done.
  64% done.
  75% done.
  89% done.
 100% done.
 CPU time [min]:     1.720                   Wall time [min]:     0.053
 
 Gradient norm:      1.0526E-03
 DIIS is running in this iteration step.
 RMS of [F,P]:                                         0.00001139028930
 RMS of difference density:                            0.00004631560230
 Gap [au]:  0.21193323
 ALPHA OCC:  38
 BETA  OCC:  38
 
 ***HARTREE-FOCK ENERGY IN STEP   8 IS       -539.1356767392353504 [AU]
 
 Step comparison  Energy Drift [au]  DIIS error drift  Gradient drift
        7            1.0671E-05         2.9979E-05       1.0936E-03
 ======================================================================
 ITERATION STEP   9
 CPU time [min]:     1.753                   Wall time [min]:     0.054
 

 SCF control                  : diis
 Damping factor/level shift   : 0.000/0.000
 DIIS [start/end/frequency]   :   2 / 50 /  1

 Constructing Fock-matrix...
 
 Pipek-Mezey localization...
 Step  Convergence
   1  20.565135112470
   2   9.686176070079
   3   8.314811399630
   4   4.221719340171
   5   1.923599864917
   6   0.047327897198
   7   0.006079242865
   8   0.000711896231
   9   0.000149933245
  10   0.000028839269
  11   0.000005934315
  12   0.000001200897
  13   0.000000246485
  14   0.000000050363
  15   0.000000010330
  16   0.000000002119
  17   0.000000000435
  18   0.000000000089
  19   0.000000000018
  20   0.000000000004
  21   0.000000000001
 CPU time [min]:     1.786                   Wall time [min]:     0.055
 
 Constructing local fitting domains...
 Local fitting domains are unchanged.
 
 First step of Coulomb + first step of exchange...
 Exchange contribution is evaluated for MOs 1 to 38.
   1% done.
  14% done.
  25% done.
  38% done.
  49% done.
  64% done.
  75% done.
  89% done.
 100% done.
 CPU time [min]:     1.906                   Wall time [min]:     0.059
 
 Fitting and assembly step of exchange...
 CPU time [min]:     1.911                   Wall time [min]:     0.059
 
 Second step of Coulomb...
   1% done.
  14% done.
  25% done.
  38% done.
  49% done.
  64% done.
  75% done.
  89% done.
 100% done.
 CPU time [min]:     1.952                   Wall time [min]:     0.060
 
 Gradient norm:      3.5769E-04
 DIIS is running in this iteration step.
 RMS of [F,P]:                                         0.00000424558971
 RMS of difference density:                            0.00001768965361
 Gap [au]:  0.21189672
 ALPHA OCC:  38
 BETA  OCC:  38
 
 ***HARTREE-FOCK ENERGY IN STEP   9 IS       -539.1356784897195666 [AU]
 
 Step comparison  Energy Drift [au]  DIIS error drift  Gradient drift
        8            1.7505E-06         7.1447E-06       6.9490E-04
 ======================================================================
 ITERATION STEP  10
 CPU time [min]:     1.964                   Wall time [min]:     0.060
 

 SCF control                  : diis
 Damping factor/level shift   : 0.000/0.000
 DIIS [start/end/frequency]   :   2 / 50 /  1

 Constructing Fock-matrix...
 
 Pipek-Mezey localization...
 Step  Convergence
   1  16.376210773302
   2   7.505667928820
   3   7.401523706231
   4   7.469165967629
   5   2.369325173143
   6   1.455698289726
   7   0.518816735791
   8   0.537558246679
   9   0.073899930165
  10   0.005548328046
  11   0.000047964345
  12   0.000003655532
  13   0.000000426484
  14   0.000000064775
  15   0.000000011729
  16   0.000000002250
  17   0.000000000441
  18   0.000000000088
  19   0.000000000017
  20   0.000000000003
  21   0.000000000001
 CPU time [min]:     1.994                   Wall time [min]:     0.061
 
 Constructing local fitting domains...
 Local fitting domains are unchanged.
 
 First step of Coulomb + first step of exchange...
 Exchange contribution is evaluated for MOs 1 to 38.
   1% done.
  14% done.
  25% done.
  38% done.
  49% done.
  64% done.
  75% done.
  89% done.
 100% done.
 CPU time [min]:     2.113                   Wall time [min]:     0.064
 
 Fitting and assembly step of exchange...
 CPU time [min]:     2.119                   Wall time [min]:     0.065
 
 Second step of Coulomb...
   1% done.
  14% done.
  25% done.
  38% done.
  49% done.
  64% done.
  75% done.
  89% done.
 100% done.
 CPU time [min]:     2.160                   Wall time [min]:     0.066
 
 Gradient norm:      8.2268E-05
 DIIS is running in this iteration step.
 RMS of [F,P]:                                         0.00000102515472
 RMS of difference density:                            0.00000407988049
 Gap [au]:  0.21189397
 ALPHA OCC:  38
 BETA  OCC:  38
 
 ***HARTREE-FOCK ENERGY IN STEP  10 IS       -539.1356787061631621 [AU]
 
 Step comparison  Energy Drift [au]  DIIS error drift  Gradient drift
        9            2.1644E-07         3.2204E-06       2.7542E-04
 ======================================================================
 ITERATION STEP  11
 CPU time [min]:     2.171                   Wall time [min]:     0.066
 

 SCF control                  : diis
 Damping factor/level shift   : 0.000/0.000
 DIIS [start/end/frequency]   :   2 / 50 /  1

 Constructing Fock-matrix...
 
 Pipek-Mezey localization...
 Step  Convergence
   1  20.801529869878
   2   6.698730316964
   3   8.433173255169
   4   4.607728276562
   5   1.451390383061
   6   0.241314593370
   7   0.016601878772
   8   0.000945567277
   9   0.000085806711
  10   0.000010072981
  11   0.000001450423
  12   0.000000220494
  13   0.000000037310
  14   0.000000006644
  15   0.000000001245
  16   0.000000000237
  17   0.000000000047
  18   0.000000000009
  19   0.000000000002
  20   0.000000000000
 CPU time [min]:     2.201                   Wall time [min]:     0.067
 
 Constructing local fitting domains...
 Local fitting domains are unchanged.
 
 First step of Coulomb + first step of exchange...
 Exchange contribution is evaluated for MOs 1 to 38.
   1% done.
  14% done.
  25% done.
  38% done.
  49% done.
  64% done.
  75% done.
  89% done.
 100% done.
 CPU time [min]:     2.320                   Wall time [min]:     0.070
 
 Fitting and assembly step of exchange...
 CPU time [min]:     2.326                   Wall time [min]:     0.070
 
 Second step of Coulomb...
   1% done.
  14% done.
  25% done.
  38% done.
  49% done.
  64% done.
  75% done.
  89% done.
 100% done.
 CPU time [min]:     2.366                   Wall time [min]:     0.072
 
 Gradient norm:      2.2311E-05
 DIIS is running in this iteration step.
 RMS of [F,P]:                                         0.00000041529085
 RMS of difference density:                            0.00000145390862
 Gap [au]:  0.21189163
 ALPHA OCC:  38
 BETA  OCC:  38
 
 ***HARTREE-FOCK ENERGY IN STEP  11 IS       -539.1356787171466749 [AU]
 
 Step comparison  Energy Drift [au]  DIIS error drift  Gradient drift
       10            1.0984E-08         6.0986E-07       5.9958E-05
 ======================================================================
 ITERATION STEP  12
 CPU time [min]:     2.378                   Wall time [min]:     0.072
 

 SCF control                  : diis
 Damping factor/level shift   : 0.000/0.000
 DIIS [start/end/frequency]   :   2 / 50 /  1

 Constructing Fock-matrix...
 
 Pipek-Mezey localization...
 Step  Convergence
   1  20.267656221921
   2   7.528526500596
   3   9.535620882959
   4   4.013511136920
   5   1.616317374116
   6   0.176844774313
   7   0.002065643467
   8   0.000288128278
   9   0.000016719933
  10   0.000005040774
  11   0.000000438861
  12   0.000000099485
  13   0.000000010499
  14   0.000000002271
  15   0.000000000269
  16   0.000000000049
  17   0.000000000007
  18   0.000000000001
  19   0.000000000000
 CPU time [min]:     2.408                   Wall time [min]:     0.073
 
 Constructing local fitting domains...
 Local fitting domains are unchanged.
 
 First step of Coulomb + first step of exchange...
 Exchange contribution is evaluated for MOs 1 to 38.
   1% done.
  14% done.
  25% done.
  38% done.
  49% done.
  64% done.
  75% done.
  89% done.
 100% done.
 CPU time [min]:     2.528                   Wall time [min]:     0.076
 
 Fitting and assembly step of exchange...
 CPU time [min]:     2.534                   Wall time [min]:     0.076
 
 Second step of Coulomb...
   1% done.
  14% done.
  25% done.
  38% done.
  49% done.
  64% done.
  75% done.
  89% done.
 100% done.
 CPU time [min]:     2.575                   Wall time [min]:     0.077
 
 Gradient norm:      7.5075E-06
 DIIS is running in this iteration step.
 RMS of [F,P]:                                         0.00000011967792
 RMS of difference density:                            0.00000044742260
 Gap [au]:  0.21189145
 ALPHA OCC:  38
 BETA  OCC:  38
 
 ***HARTREE-FOCK ENERGY IN STEP  12 IS       -539.1356787186639394 [AU]
 
 Step comparison  Energy Drift [au]  DIIS error drift  Gradient drift
       11            1.5173E-09         2.9561E-07       1.4803E-05
 ======================================================================
 ITERATION STEP  13
 CPU time [min]:     2.587                   Wall time [min]:     0.078
 

 SCF control                  : diis
 Damping factor/level shift   : 0.000/0.000
 DIIS [start/end/frequency]   :   2 / 50 /  1

 Constructing Fock-matrix...
 
 Pipek-Mezey localization...
 Step  Convergence
   1  16.851402609741
   2  10.354960292118
   3   8.419728935732
   4   8.867793395355
   5   3.587812219449
   6   0.729015995842
   7   0.010613754988
   8   0.000753424160
   9   0.000070646756
  10   0.000009459683
  11   0.000001213127
  12   0.000000196021
  13   0.000000030445
  14   0.000000005435
  15   0.000000000949
  16   0.000000000180
  17   0.000000000033
  18   0.000000000007
  19   0.000000000001
  20   0.000000000000
 CPU time [min]:     2.617                   Wall time [min]:     0.079
 
 Constructing local fitting domains...
 Local fitting domains are unchanged.
 
 First step of Coulomb + first step of exchange...
 Exchange contribution is evaluated for MOs 1 to 38.
   1% done.
  14% done.
  25% done.
  38% done.
  49% done.
  64% done.
  75% done.
  89% done.
 100% done.
 CPU time [min]:     2.736                   Wall time [min]:     0.082
 
 Fitting and assembly step of exchange...
 CPU time [min]:     2.742                   Wall time [min]:     0.082
 
 Second step of Coulomb...
   1% done.
  14% done.
  25% done.
  38% done.
  49% done.
  64% done.
  75% done.
  89% done.
 100% done.
 CPU time [min]:     2.783                   Wall time [min]:     0.083
 
 Gradient norm:      3.3039E-06
 DIIS is running in this iteration step.
 RMS of [F,P]:                                         0.00000005769514
 RMS of difference density:                            0.00000010586081
 Gap [au]:  0.21189140
 ALPHA OCC:  38
 BETA  OCC:  38
 
 ***HARTREE-FOCK ENERGY IN STEP  13 IS       -539.1356787188433373 [AU]
 
 Step comparison  Energy Drift [au]  DIIS error drift  Gradient drift
       12            1.7940E-10         6.1983E-08       4.2036E-06
 ======================================================================
 ITERATION STEP  14
 CPU time [min]:     2.794                   Wall time [min]:     0.084
 

 SCF control                  : diis
 Damping factor/level shift   : 0.000/0.000
 DIIS [start/end/frequency]   :   2 / 50 /  1

 Constructing Fock-matrix...
 
 Pipek-Mezey localization...
 Step  Convergence
   1  18.136663652096
   2   8.224001132980
   3   8.470696466683
   4   7.165181945935
   5   3.407892187862
   6   1.409809389227
   7   0.089469957119
   8   0.003389790257
   9   0.000466629442
  10   0.000078301707
  11   0.000014467340
  12   0.000002745405
  13   0.000000529881
  14   0.000000102392
  15   0.000000020052
  16   0.000000003899
  17   0.000000000769
  18   0.000000000150
  19   0.000000000030
  20   0.000000000006
  21   0.000000000001
  22   0.000000000000
 CPU time [min]:     2.825                   Wall time [min]:     0.084
 
 Constructing local fitting domains...
 Local fitting domains are unchanged.
 
 First step of Coulomb + first step of exchange...
 Exchange contribution is evaluated for MOs 1 to 38.
   1% done.
  14% done.
  25% done.
  38% done.
  49% done.
  64% done.
  75% done.
  89% done.
 100% done.
 CPU time [min]:     2.945                   Wall time [min]:     0.088
 
 Fitting and assembly step of exchange...
 CPU time [min]:     2.950                   Wall time [min]:     0.088
 
 Second step of Coulomb...
   1% done.
  14% done.
  25% done.
  38% done.
  49% done.
  64% done.
  75% done.
  89% done.
 100% done.
 CPU time [min]:     2.991                   Wall time [min]:     0.089
 
 Gradient norm:      2.0703E-06
 DIIS is running in this iteration step.
 RMS of [F,P]:                                         0.00000003464233
 RMS of difference density:                            0.00000010799192
 Gap [au]:  0.21189123
 ALPHA OCC:  38
 BETA  OCC:  38
 
 ***HARTREE-FOCK ENERGY IN STEP  14 IS       -539.1356787188608450 [AU]
 
 Step comparison  Energy Drift [au]  DIIS error drift  Gradient drift
       13            1.7508E-11         2.3053E-08       1.2336E-06
 ======================================================================
 ITERATION STEP  15
 CPU time [min]:     3.022                   Wall time [min]:     0.090
 

 SCF control                  : diis
 Damping factor/level shift   : 0.000/0.000
 DIIS [start/end/frequency]   :   2 / 50 /  1

 Constructing Fock-matrix...
 
 Pipek-Mezey localization...
 Step  Convergence
   1  15.748057971085
   2   7.002994153108
   3  10.392421555566
   4   6.199635190315
   5   2.199980048044
   6   0.565608637258
   7   0.526135059645
   8   0.001998905256
   9   0.000058348208
  10   0.000003999169
  11   0.000000287485
  12   0.000000022958
  13   0.000000002931
  14   0.000000000288
  15   0.000000000045
  16   0.000000000005
  17   0.000000000001
 CPU time [min]:     3.059                   Wall time [min]:     0.091
 
 Constructing local fitting domains...
 Local fitting domains are unchanged.
 
 First step of Coulomb + first step of exchange...
 Exchange contribution is evaluated for MOs 1 to 38.
   1% done.
  14% done.
  25% done.
  38% done.
  49% done.
  64% done.
  75% done.
  89% done.
 100% done.
 CPU time [min]:     3.179                   Wall time [min]:     0.094
 
 Fitting and assembly step of exchange...
 CPU time [min]:     3.185                   Wall time [min]:     0.095
 
 Second step of Coulomb...
   1% done.
  14% done.
  25% done.
  38% done.
  49% done.
  64% done.
  75% done.
  89% done.
 100% done.
 CPU time [min]:     3.226                   Wall time [min]:     0.096
 
 Gradient norm:      9.4150E-07
 DIIS is running in this iteration step.
 RMS of [F,P]:                                         0.00000001064523
 RMS of difference density:                            0.00000005259722
 Gap [au]:  0.21189114
 ALPHA OCC:  38
 BETA  OCC:  38
 
 ***HARTREE-FOCK ENERGY IN STEP  15 IS       -539.1356787188701674 [AU]
 
 Step comparison  Energy Drift [au]  DIIS error drift  Gradient drift
       14            9.3223E-12         2.3997E-08       1.1288E-06
 ======================================================================
 
 SUCCESS...
 THE SCF ITERATION HAS CONVERGED!
 
                   A   
 FINAL ALPHA OCC:  38
 FINAL BETA  OCC:  38
 
 ***FINAL HARTREE-FOCK ENERGY:       -539.1356787188701674 [AU]
 
 Orbital energies [au]:
      Irrep         Alpha          Beta
    1   A         -4.695177      -4.695177
    2   A         -4.694628      -4.694628
    3   A         -4.660353      -4.660353
    4   A         -4.660346      -4.660346
    5   A         -2.768663      -2.768663
    6   A         -2.760943      -2.760943
    7   A         -2.759425      -2.759425
    8   A         -2.757510      -2.757510
    9   A         -2.756225      -2.756225
   10   A         -2.755373      -2.755373
   11   A         -2.725235      -2.725235
   12   A         -2.724449      -2.724449
   13   A         -2.721432      -2.721432
   14   A         -2.721072      -2.721072
   15   A         -2.718372      -2.718372
   16   A         -2.718343      -2.718343
   17   A         -0.558601      -0.558601
   18   A         -0.551196      -0.551196
   19   A         -0.522763      -0.522763
   20   A         -0.522168      -0.522168
   21   A         -0.512516      -0.512516
   22   A         -0.507625      -0.507625
   23   A         -0.488622      -0.488622
   24   A         -0.487987      -0.487987
   25   A         -0.455658      -0.455658
   26   A         -0.451941      -0.451941
   27   A         -0.448991      -0.448991
   28   A         -0.441747      -0.441747
   29   A         -0.440122      -0.440122
   30   A         -0.437603      -0.437603
   31   A         -0.426789      -0.426789
   32   A         -0.425174      -0.425174
   33   A         -0.420554      -0.420554
   34   A         -0.418254      -0.418254
   35   A         -0.414618      -0.414618
   36   A         -0.386398      -0.386398
   37   A         -0.366252      -0.366252
   38   A         -0.236120      -0.236120
 
   39   A         -0.024229      -0.024229
   40   A          0.017141       0.017141
   41   A          0.040913       0.040913
   42   A          0.074247       0.074247
   43   A          0.078356       0.078356
   44   A          0.105386       0.105386
   45   A          0.106836       0.106836
   46   A          0.133652       0.133652
   47   A          0.159503       0.159503
   48   A          0.171050       0.171050
   49   A          0.189438       0.189438
   50   A          0.206861       0.206861
   51   A          0.224133       0.224133
   52   A          0.236874       0.236874
   53   A          0.269548       0.269548
   54   A          0.313262       0.313262
   55   A          0.337732       0.337732
   56   A          0.354454       0.354454
   57   A          0.578750       0.578750
   58   A          0.596650       0.596650
   59   A          0.611130       0.611130
   60   A          0.648717       0.648717
   61   A          0.648861       0.648861
   62   A          0.651536       0.651536
   63   A          0.656689       0.656689
   64   A          0.674172       0.674172
   65   A          0.681730       0.681730
   66   A          0.700568       0.700568
   67   A          0.709793       0.709793
   68   A          0.711949       0.711949
   69   A          0.735177       0.735177
   70   A          0.775709       0.775709
   71   A          0.781770       0.781770
   72   A          0.803811       0.803811
   73   A          0.822164       0.822164
   74   A          0.826482       0.826482
   75   A          0.837979       0.837979
   76   A          0.935355       0.935355
   77   A          1.044787       1.044787
   78   A          1.050412       1.050412
   79   A          1.061383       1.061383
   80   A          1.072482       1.072482
   81   A          1.103465       1.103465
   82   A          1.111808       1.111808
   83   A          1.124038       1.124038
   84   A          1.261482       1.261482
   85   A          1.271769       1.271769
   86   A          1.376264       1.376264
   87   A          1.442986       1.442986
   88   A          1.555088       1.555088
   89   A          1.760853       1.760853
   90   A          1.789552       1.789552
   91   A          1.789655       1.789655
   92   A          1.793902       1.793902
   93   A          1.812586       1.812586
   94   A          1.812641       1.812641
   95   A          1.817542       1.817542
   96   A          1.825588       1.825588
   97   A          1.826361       1.826361
   98   A          1.835795       1.835795
   99   A          1.856467       1.856467
  100   A          1.878802       1.878802
  101   A          1.885618       1.885618
  102   A          1.886591       1.886591
  103   A          1.891237       1.891237
  104   A          1.925744       1.925744
  105   A          1.953120       1.953120
  106   A          1.955613       1.955613
  107   A          1.956340       1.956340
  108   A          1.959140       1.959140
  109   A          1.959346       1.959346
  110   A          1.962361       1.962361
  111   A          1.967203       1.967203
  112   A          1.992429       1.992429
  113   A          2.004190       2.004190
  114   A          2.015621       2.015621
  115   A          2.117467       2.117467
  116   A          2.164689       2.164689
  117   A          2.288023       2.288023
  118   A          2.380265       2.380265
  119   A          2.494097       2.494097
  120   A          2.526171       2.526171
  121   A         41.895713      41.895713
  122   A         41.931632      41.931632
  123   A         41.972214      41.972214
  124   A         42.009336      42.009336
  125   A        200.234599     200.234599
  126   A        200.264067     200.264067
  127   A        200.267416     200.267416
  128   A        200.296408     200.296408
 
 RETURNING FROM SCF ALGORITHM
 ======================================================================

 ************************ 2023-02-04 10:27:15 *************************
 Executing integ...

 Allocation of 220.0 Gbytes of memory...
 
 
 Number of atoms:                  4
 Charge:                           0
 Number of electrons:             76
 Number of core electrons:         0
 Spin multiplicity:                1
 
                 Cartesian coordinates [bohr]      Atomic mass [AMU]  Z
   1  Au    1.11278133    0.74729254    2.07139597   196.966543      79
   2  Au   -1.12006758   -0.73955547   -2.07053314   196.966543      79
   3  Au   -2.53472044   -2.71487222    2.34019414   196.966543      79
   4  Au    2.53472044    2.71487222   -2.34019414   196.966543      79
 
 This molecule is an asymmetric top.
 
 Point group: C1  
 Computational point group: C1  
 
 Cartesian coordinates in standard orientation [bohr]
   1  Au    0.00058418    2.46732219    0.00266499
   2  Au   -0.00052527   -2.46744293    0.00266473
   3  Au   -4.39000069    0.00037215   -0.00266483
   4  Au    4.38994177   -0.00025141   -0.00266490
 
 Nuclear repulsion energy [au]:        401.014549397316
 
 
 Basis set information:
 
 Maximum angular momentum: k
 Maximum number of contracted Gaussians:   13
 Maximum number of primitive Gaussians:    17
 Spherical harmonic GTOs are used.
 
 
 Conventional basis set:
 
   1  Au bse_acvqz [ 17s 14p 13d 5f 4g 3h | 9s 9p 8d 5f 4g 3h ]
   2  Au bse_acvqz [ 17s 14p 13d 5f 4g 3h | 9s 9p 8d 5f 4g 3h ]
   3  Au bse_acvqz [ 17s 14p 13d 5f 4g 3h | 9s 9p 8d 5f 4g 3h ]
   4  Au bse_acvqz [ 17s 14p 13d 5f 4g 3h | 9s 9p 8d 5f 4g 3h ]
 
 Basis functions:
            1             2             3             4             5             6             7             8             9            10
    0    1Au1s         1Au2s         1Au3s         1Au4s         1Au5s         1Au6s         1Au7s         1Au8s         1Au9s         1Au1pz    
    1    1Au1py        1Au1px        1Au2pz        1Au2py        1Au2px        1Au3pz        1Au3py        1Au3px        1Au4pz        1Au4py    
    2    1Au4px        1Au5pz        1Au5py        1Au5px        1Au6pz        1Au6py        1Au6px        1Au7pz        1Au7py        1Au7px    
    3    1Au8pz        1Au8py        1Au8px        1Au9pz        1Au9py        1Au9px        1Au1d-2       1Au1d-1       1Au1d0        1Au1d+1   
    4    1Au1d+2       1Au2d-2       1Au2d-1       1Au2d0        1Au2d+1       1Au2d+2       1Au3d-2       1Au3d-1       1Au3d0        1Au3d+1   
    5    1Au3d+2       1Au4d-2       1Au4d-1       1Au4d0        1Au4d+1       1Au4d+2       1Au5d-2       1Au5d-1       1Au5d0        1Au5d+1   
    6    1Au5d+2       1Au6d-2       1Au6d-1       1Au6d0        1Au6d+1       1Au6d+2       1Au7d-2       1Au7d-1       1Au7d0        1Au7d+1   
    7    1Au7d+2       1Au8d-2       1Au8d-1       1Au8d0        1Au8d+1       1Au8d+2       1Au1f-3       1Au1f-2       1Au1f-1       1Au1f0    
    8    1Au1f+1       1Au1f+2       1Au1f+3       1Au2f-3       1Au2f-2       1Au2f-1       1Au2f0        1Au2f+1       1Au2f+2       1Au2f+3   
    9    1Au3f-3       1Au3f-2       1Au3f-1       1Au3f0        1Au3f+1       1Au3f+2       1Au3f+3       1Au4f-3       1Au4f-2       1Au4f-1   
   10    1Au4f0        1Au4f+1       1Au4f+2       1Au4f+3       1Au5f-3       1Au5f-2       1Au5f-1       1Au5f0        1Au5f+1       1Au5f+2   
   11    1Au5f+3       1Au1g-4       1Au1g-3       1Au1g-2       1Au1g-1       1Au1g0        1Au1g+1       1Au1g+2       1Au1g+3       1Au1g+4   
   12    1Au2g-4       1Au2g-3       1Au2g-2       1Au2g-1       1Au2g0        1Au2g+1       1Au2g+2       1Au2g+3       1Au2g+4       1Au3g-4   
   13    1Au3g-3       1Au3g-2       1Au3g-1       1Au3g0        1Au3g+1       1Au3g+2       1Au3g+3       1Au3g+4       1Au4g-4       1Au4g-3   
   14    1Au4g-2       1Au4g-1       1Au4g0        1Au4g+1       1Au4g+2       1Au4g+3       1Au4g+4       1Au1h-5       1Au1h-4       1Au1h-3   
   15    1Au1h-2       1Au1h-1       1Au1h0        1Au1h+1       1Au1h+2       1Au1h+3       1Au1h+4       1Au1h+5       1Au2h-5       1Au2h-4   
   16    1Au2h-3       1Au2h-2       1Au2h-1       1Au2h0        1Au2h+1       1Au2h+2       1Au2h+3       1Au2h+4       1Au2h+5       1Au3h-5   
   17    1Au3h-4       1Au3h-3       1Au3h-2       1Au3h-1       1Au3h0        1Au3h+1       1Au3h+2       1Au3h+3       1Au3h+4       1Au3h+5   
   18    2Au1s         2Au2s         2Au3s         2Au4s         2Au5s         2Au6s         2Au7s         2Au8s         2Au9s         2Au1pz    
   19    2Au1py        2Au1px        2Au2pz        2Au2py        2Au2px        2Au3pz        2Au3py        2Au3px        2Au4pz        2Au4py    
   20    2Au4px        2Au5pz        2Au5py        2Au5px        2Au6pz        2Au6py        2Au6px        2Au7pz        2Au7py        2Au7px    
   21    2Au8pz        2Au8py        2Au8px        2Au9pz        2Au9py        2Au9px        2Au1d-2       2Au1d-1       2Au1d0        2Au1d+1   
   22    2Au1d+2       2Au2d-2       2Au2d-1       2Au2d0        2Au2d+1       2Au2d+2       2Au3d-2       2Au3d-1       2Au3d0        2Au3d+1   
   23    2Au3d+2       2Au4d-2       2Au4d-1       2Au4d0        2Au4d+1       2Au4d+2       2Au5d-2       2Au5d-1       2Au5d0        2Au5d+1   
   24    2Au5d+2       2Au6d-2       2Au6d-1       2Au6d0        2Au6d+1       2Au6d+2       2Au7d-2       2Au7d-1       2Au7d0        2Au7d+1   
   25    2Au7d+2       2Au8d-2       2Au8d-1       2Au8d0        2Au8d+1       2Au8d+2       2Au1f-3       2Au1f-2       2Au1f-1       2Au1f0    
   26    2Au1f+1       2Au1f+2       2Au1f+3       2Au2f-3       2Au2f-2       2Au2f-1       2Au2f0        2Au2f+1       2Au2f+2       2Au2f+3   
   27    2Au3f-3       2Au3f-2       2Au3f-1       2Au3f0        2Au3f+1       2Au3f+2       2Au3f+3       2Au4f-3       2Au4f-2       2Au4f-1   
   28    2Au4f0        2Au4f+1       2Au4f+2       2Au4f+3       2Au5f-3       2Au5f-2       2Au5f-1       2Au5f0        2Au5f+1       2Au5f+2   
   29    2Au5f+3       2Au1g-4       2Au1g-3       2Au1g-2       2Au1g-1       2Au1g0        2Au1g+1       2Au1g+2       2Au1g+3       2Au1g+4   
   30    2Au2g-4       2Au2g-3       2Au2g-2       2Au2g-1       2Au2g0        2Au2g+1       2Au2g+2       2Au2g+3       2Au2g+4       2Au3g-4   
   31    2Au3g-3       2Au3g-2       2Au3g-1       2Au3g0        2Au3g+1       2Au3g+2       2Au3g+3       2Au3g+4       2Au4g-4       2Au4g-3   
   32    2Au4g-2       2Au4g-1       2Au4g0        2Au4g+1       2Au4g+2       2Au4g+3       2Au4g+4       2Au1h-5       2Au1h-4       2Au1h-3   
   33    2Au1h-2       2Au1h-1       2Au1h0        2Au1h+1       2Au1h+2       2Au1h+3       2Au1h+4       2Au1h+5       2Au2h-5       2Au2h-4   
   34    2Au2h-3       2Au2h-2       2Au2h-1       2Au2h0        2Au2h+1       2Au2h+2       2Au2h+3       2Au2h+4       2Au2h+5       2Au3h-5   
   35    2Au3h-4       2Au3h-3       2Au3h-2       2Au3h-1       2Au3h0        2Au3h+1       2Au3h+2       2Au3h+3       2Au3h+4       2Au3h+5   
   36    3Au1s         3Au2s         3Au3s         3Au4s         3Au5s         3Au6s         3Au7s         3Au8s         3Au9s         3Au1pz    
   37    3Au1py        3Au1px        3Au2pz        3Au2py        3Au2px        3Au3pz        3Au3py        3Au3px        3Au4pz        3Au4py    
   38    3Au4px        3Au5pz        3Au5py        3Au5px        3Au6pz        3Au6py        3Au6px        3Au7pz        3Au7py        3Au7px    
   39    3Au8pz        3Au8py        3Au8px        3Au9pz        3Au9py        3Au9px        3Au1d-2       3Au1d-1       3Au1d0        3Au1d+1   
   40    3Au1d+2       3Au2d-2       3Au2d-1       3Au2d0        3Au2d+1       3Au2d+2       3Au3d-2       3Au3d-1       3Au3d0        3Au3d+1   
   41    3Au3d+2       3Au4d-2       3Au4d-1       3Au4d0        3Au4d+1       3Au4d+2       3Au5d-2       3Au5d-1       3Au5d0        3Au5d+1   
   42    3Au5d+2       3Au6d-2       3Au6d-1       3Au6d0        3Au6d+1       3Au6d+2       3Au7d-2       3Au7d-1       3Au7d0        3Au7d+1   
   43    3Au7d+2       3Au8d-2       3Au8d-1       3Au8d0        3Au8d+1       3Au8d+2       3Au1f-3       3Au1f-2       3Au1f-1       3Au1f0    
   44    3Au1f+1       3Au1f+2       3Au1f+3       3Au2f-3       3Au2f-2       3Au2f-1       3Au2f0        3Au2f+1       3Au2f+2       3Au2f+3   
   45    3Au3f-3       3Au3f-2       3Au3f-1       3Au3f0        3Au3f+1       3Au3f+2       3Au3f+3       3Au4f-3       3Au4f-2       3Au4f-1   
   46    3Au4f0        3Au4f+1       3Au4f+2       3Au4f+3       3Au5f-3       3Au5f-2       3Au5f-1       3Au5f0        3Au5f+1       3Au5f+2   
   47    3Au5f+3       3Au1g-4       3Au1g-3       3Au1g-2       3Au1g-1       3Au1g0        3Au1g+1       3Au1g+2       3Au1g+3       3Au1g+4   
   48    3Au2g-4       3Au2g-3       3Au2g-2       3Au2g-1       3Au2g0        3Au2g+1       3Au2g+2       3Au2g+3       3Au2g+4       3Au3g-4   
   49    3Au3g-3       3Au3g-2       3Au3g-1       3Au3g0        3Au3g+1       3Au3g+2       3Au3g+3       3Au3g+4       3Au4g-4       3Au4g-3   
   50    3Au4g-2       3Au4g-1       3Au4g0        3Au4g+1       3Au4g+2       3Au4g+3       3Au4g+4       3Au1h-5       3Au1h-4       3Au1h-3   
   51    3Au1h-2       3Au1h-1       3Au1h0        3Au1h+1       3Au1h+2       3Au1h+3       3Au1h+4       3Au1h+5       3Au2h-5       3Au2h-4   
   52    3Au2h-3       3Au2h-2       3Au2h-1       3Au2h0        3Au2h+1       3Au2h+2       3Au2h+3       3Au2h+4       3Au2h+5       3Au3h-5   
   53    3Au3h-4       3Au3h-3       3Au3h-2       3Au3h-1       3Au3h0        3Au3h+1       3Au3h+2       3Au3h+3       3Au3h+4       3Au3h+5   
   54    4Au1s         4Au2s         4Au3s         4Au4s         4Au5s         4Au6s         4Au7s         4Au8s         4Au9s         4Au1pz    
   55    4Au1py        4Au1px        4Au2pz        4Au2py        4Au2px        4Au3pz        4Au3py        4Au3px        4Au4pz        4Au4py    
   56    4Au4px        4Au5pz        4Au5py        4Au5px        4Au6pz        4Au6py        4Au6px        4Au7pz        4Au7py        4Au7px    
   57    4Au8pz        4Au8py        4Au8px        4Au9pz        4Au9py        4Au9px        4Au1d-2       4Au1d-1       4Au1d0        4Au1d+1   
   58    4Au1d+2       4Au2d-2       4Au2d-1       4Au2d0        4Au2d+1       4Au2d+2       4Au3d-2       4Au3d-1       4Au3d0        4Au3d+1   
   59    4Au3d+2       4Au4d-2       4Au4d-1       4Au4d0        4Au4d+1       4Au4d+2       4Au5d-2       4Au5d-1       4Au5d0        4Au5d+1   
   60    4Au5d+2       4Au6d-2       4Au6d-1       4Au6d0        4Au6d+1       4Au6d+2       4Au7d-2       4Au7d-1       4Au7d0        4Au7d+1   
   61    4Au7d+2       4Au8d-2       4Au8d-1       4Au8d0        4Au8d+1       4Au8d+2       4Au1f-3       4Au1f-2       4Au1f-1       4Au1f0    
   62    4Au1f+1       4Au1f+2       4Au1f+3       4Au2f-3       4Au2f-2       4Au2f-1       4Au2f0        4Au2f+1       4Au2f+2       4Au2f+3   
   63    4Au3f-3       4Au3f-2       4Au3f-1       4Au3f0        4Au3f+1       4Au3f+2       4Au3f+3       4Au4f-3       4Au4f-2       4Au4f-1   
   64    4Au4f0        4Au4f+1       4Au4f+2       4Au4f+3       4Au5f-3       4Au5f-2       4Au5f-1       4Au5f0        4Au5f+1       4Au5f+2   
   65    4Au5f+3       4Au1g-4       4Au1g-3       4Au1g-2       4Au1g-1       4Au1g0        4Au1g+1       4Au1g+2       4Au1g+3       4Au1g+4   
   66    4Au2g-4       4Au2g-3       4Au2g-2       4Au2g-1       4Au2g0        4Au2g+1       4Au2g+2       4Au2g+3       4Au2g+4       4Au3g-4   
   67    4Au3g-3       4Au3g-2       4Au3g-1       4Au3g0        4Au3g+1       4Au3g+2       4Au3g+3       4Au3g+4       4Au4g-4       4Au4g-3   
   68    4Au4g-2       4Au4g-1       4Au4g0        4Au4g+1       4Au4g+2       4Au4g+3       4Au4g+4       4Au1h-5       4Au1h-4       4Au1h-3   
   69    4Au1h-2       4Au1h-1       4Au1h0        4Au1h+1       4Au1h+2       4Au1h+3       4Au1h+4       4Au1h+5       4Au2h-5       4Au2h-4   
   70    4Au2h-3       4Au2h-2       4Au2h-1       4Au2h0        4Au2h+1       4Au2h+2       4Au2h+3       4Au2h+4       4Au2h+5       4Au3h-5   
   71    4Au3h-4       4Au3h-3       4Au3h-2       4Au3h-1       4Au3h0        4Au3h+1       4Au3h+2       4Au3h+3       4Au3h+4       4Au3h+5   
 
 Maximum number of basis functions per shell:   40
 Total number of basis functions:    720
 
 
 Fitting basis set for the SCF calculation:
 
   1  Au def2-qzvpp-ri-jk [ 13s 12p 11d 9f 5g 3h 2i | 13s 11p 10d 8f 4g 3h 2i ]
   2  Au def2-qzvpp-ri-jk [ 13s 12p 11d 9f 5g 3h 2i | 13s 11p 10d 8f 4g 3h 2i ]
   3  Au def2-qzvpp-ri-jk [ 13s 12p 11d 9f 5g 3h 2i | 13s 11p 10d 8f 4g 3h 2i ]
   4  Au def2-qzvpp-ri-jk [ 13s 12p 11d 9f 5g 3h 2i | 13s 11p 10d 8f 4g 3h 2i ]
 
 Basis functions:
            1             2             3             4             5             6             7             8             9            10
    0    1Au1s         1Au2s         1Au3s         1Au4s         1Au5s         1Au6s         1Au7s         1Au8s         1Au9s         1Au10s    
    1    1Au11s        1Au12s        1Au13s        1Au1pz        1Au1py        1Au1px        1Au2pz        1Au2py        1Au2px        1Au3pz    
    2    1Au3py        1Au3px        1Au4pz        1Au4py        1Au4px        1Au5pz        1Au5py        1Au5px        1Au6pz        1Au6py    
    3    1Au6px        1Au7pz        1Au7py        1Au7px        1Au8pz        1Au8py        1Au8px        1Au9pz        1Au9py        1Au9px    
    4    1Au10pz       1Au10py       1Au10px       1Au11pz       1Au11py       1Au11px       1Au1d-2       1Au1d-1       1Au1d0        1Au1d+1   
    5    1Au1d+2       1Au2d-2       1Au2d-1       1Au2d0        1Au2d+1       1Au2d+2       1Au3d-2       1Au3d-1       1Au3d0        1Au3d+1   
    6    1Au3d+2       1Au4d-2       1Au4d-1       1Au4d0        1Au4d+1       1Au4d+2       1Au5d-2       1Au5d-1       1Au5d0        1Au5d+1   
    7    1Au5d+2       1Au6d-2       1Au6d-1       1Au6d0        1Au6d+1       1Au6d+2       1Au7d-2       1Au7d-1       1Au7d0        1Au7d+1   
    8    1Au7d+2       1Au8d-2       1Au8d-1       1Au8d0        1Au8d+1       1Au8d+2       1Au9d-2       1Au9d-1       1Au9d0        1Au9d+1   
    9    1Au9d+2       1Au10d-2      1Au10d-1      1Au10d0       1Au10d+1      1Au10d+2      1Au1f-3       1Au1f-2       1Au1f-1       1Au1f0    
   10    1Au1f+1       1Au1f+2       1Au1f+3       1Au2f-3       1Au2f-2       1Au2f-1       1Au2f0        1Au2f+1       1Au2f+2       1Au2f+3   
   11    1Au3f-3       1Au3f-2       1Au3f-1       1Au3f0        1Au3f+1       1Au3f+2       1Au3f+3       1Au4f-3       1Au4f-2       1Au4f-1   
   12    1Au4f0        1Au4f+1       1Au4f+2       1Au4f+3       1Au5f-3       1Au5f-2       1Au5f-1       1Au5f0        1Au5f+1       1Au5f+2   
   13    1Au5f+3       1Au6f-3       1Au6f-2       1Au6f-1       1Au6f0        1Au6f+1       1Au6f+2       1Au6f+3       1Au7f-3       1Au7f-2   
   14    1Au7f-1       1Au7f0        1Au7f+1       1Au7f+2       1Au7f+3       1Au8f-3       1Au8f-2       1Au8f-1       1Au8f0        1Au8f+1   
   15    1Au8f+2       1Au8f+3       1Au1g-4       1Au1g-3       1Au1g-2       1Au1g-1       1Au1g0        1Au1g+1       1Au1g+2       1Au1g+3   
   16    1Au1g+4       1Au2g-4       1Au2g-3       1Au2g-2       1Au2g-1       1Au2g0        1Au2g+1       1Au2g+2       1Au2g+3       1Au2g+4   
   17    1Au3g-4       1Au3g-3       1Au3g-2       1Au3g-1       1Au3g0        1Au3g+1       1Au3g+2       1Au3g+3       1Au3g+4       1Au4g-4   
   18    1Au4g-3       1Au4g-2       1Au4g-1       1Au4g0        1Au4g+1       1Au4g+2       1Au4g+3       1Au4g+4       1Au1h-5       1Au1h-4   
   19    1Au1h-3       1Au1h-2       1Au1h-1       1Au1h0        1Au1h+1       1Au1h+2       1Au1h+3       1Au1h+4       1Au1h+5       1Au2h-5   
   20    1Au2h-4       1Au2h-3       1Au2h-2       1Au2h-1       1Au2h0        1Au2h+1       1Au2h+2       1Au2h+3       1Au2h+4       1Au2h+5   
   21    1Au3h-5       1Au3h-4       1Au3h-3       1Au3h-2       1Au3h-1       1Au3h0        1Au3h+1       1Au3h+2       1Au3h+3       1Au3h+4   
   22    1Au3h+5       1Au1i-6       1Au1i-5       1Au1i-4       1Au1i-3       1Au1i-2       1Au1i-1       1Au1i0        1Au1i+1       1Au1i+2   
   23    1Au1i+3       1Au1i+4       1Au1i+5       1Au1i+6       1Au2i-6       1Au2i-5       1Au2i-4       1Au2i-3       1Au2i-2       1Au2i-1   
   24    1Au2i0        1Au2i+1       1Au2i+2       1Au2i+3       1Au2i+4       1Au2i+5       1Au2i+6       2Au1s         2Au2s         2Au3s     
   25    2Au4s         2Au5s         2Au6s         2Au7s         2Au8s         2Au9s         2Au10s        2Au11s        2Au12s        2Au13s    
   26    2Au1pz        2Au1py        2Au1px        2Au2pz        2Au2py        2Au2px        2Au3pz        2Au3py        2Au3px        2Au4pz    
   27    2Au4py        2Au4px        2Au5pz        2Au5py        2Au5px        2Au6pz        2Au6py        2Au6px        2Au7pz        2Au7py    
   28    2Au7px        2Au8pz        2Au8py        2Au8px        2Au9pz        2Au9py        2Au9px        2Au10pz       2Au10py       2Au10px   
   29    2Au11pz       2Au11py       2Au11px       2Au1d-2       2Au1d-1       2Au1d0        2Au1d+1       2Au1d+2       2Au2d-2       2Au2d-1   
   30    2Au2d0        2Au2d+1       2Au2d+2       2Au3d-2       2Au3d-1       2Au3d0        2Au3d+1       2Au3d+2       2Au4d-2       2Au4d-1   
   31    2Au4d0        2Au4d+1       2Au4d+2       2Au5d-2       2Au5d-1       2Au5d0        2Au5d+1       2Au5d+2       2Au6d-2       2Au6d-1   
   32    2Au6d0        2Au6d+1       2Au6d+2       2Au7d-2       2Au7d-1       2Au7d0        2Au7d+1       2Au7d+2       2Au8d-2       2Au8d-1   
   33    2Au8d0        2Au8d+1       2Au8d+2       2Au9d-2       2Au9d-1       2Au9d0        2Au9d+1       2Au9d+2       2Au10d-2      2Au10d-1  
   34    2Au10d0       2Au10d+1      2Au10d+2      2Au1f-3       2Au1f-2       2Au1f-1       2Au1f0        2Au1f+1       2Au1f+2       2Au1f+3   
   35    2Au2f-3       2Au2f-2       2Au2f-1       2Au2f0        2Au2f+1       2Au2f+2       2Au2f+3       2Au3f-3       2Au3f-2       2Au3f-1   
   36    2Au3f0        2Au3f+1       2Au3f+2       2Au3f+3       2Au4f-3       2Au4f-2       2Au4f-1       2Au4f0        2Au4f+1       2Au4f+2   
[...]
  131    3Au2i-6       3Au2i-5       3Au2i-4       3Au2i-3       3Au2i-2       3Au2i-1       3Au2i0        3Au2i+1       3Au2i+2       3Au2i+3   
  132    3Au2i+4       3Au2i+5       3Au2i+6       3Au3i-6       3Au3i-5       3Au3i-4       3Au3i-3       3Au3i-2       3Au3i-1       3Au3i0    
  133    3Au3i+1       3Au3i+2       3Au3i+3       3Au3i+4       3Au3i+5       3Au3i+6       3Au4i-6       3Au4i-5       3Au4i-4       3Au4i-3   
  134    3Au4i-2       3Au4i-1       3Au4i0        3Au4i+1       3Au4i+2       3Au4i+3       3Au4i+4       3Au4i+5       3Au4i+6       3Au5i-6   
  135    3Au5i-5       3Au5i-4       3Au5i-3       3Au5i-2       3Au5i-1       3Au5i0        3Au5i+1       3Au5i+2       3Au5i+3       3Au5i+4   
  136    3Au5i+5       3Au5i+6       3Au1k-7       3Au1k-6       3Au1k-5       3Au1k-4       3Au1k-3       3Au1k-2       3Au1k-1       3Au1k0    
  137    3Au1k+1       3Au1k+2       3Au1k+3       3Au1k+4       3Au1k+5       3Au1k+6       3Au1k+7       3Au2k-7       3Au2k-6       3Au2k-5   
  138    3Au2k-4       3Au2k-3       3Au2k-2       3Au2k-1       3Au2k0        3Au2k+1       3Au2k+2       3Au2k+3       3Au2k+4       3Au2k+5   
  139    3Au2k+6       3Au2k+7       3Au3k-7       3Au3k-6       3Au3k-5       3Au3k-4       3Au3k-3       3Au3k-2       3Au3k-1       3Au3k0    
  140    3Au3k+1       3Au3k+2       3Au3k+3       3Au3k+4       3Au3k+5       3Au3k+6       3Au3k+7       3Au4k-7       3Au4k-6       3Au4k-5   
  141    3Au4k-4       3Au4k-3       3Au4k-2       3Au4k-1       3Au4k0        3Au4k+1       3Au4k+2       3Au4k+3       3Au4k+4       3Au4k+5   
  142    3Au4k+6       3Au4k+7       4Au1s         4Au2s         4Au3s         4Au4s         4Au5s         4Au6s         4Au7s         4Au8s     
  143    4Au9s         4Au10s        4Au11s        4Au12s        4Au13s        4Au1pz        4Au1py        4Au1px        4Au2pz        4Au2py    
  144    4Au2px        4Au3pz        4Au3py        4Au3px        4Au4pz        4Au4py        4Au4px        4Au5pz        4Au5py        4Au5px    
  145    4Au6pz        4Au6py        4Au6px        4Au7pz        4Au7py        4Au7px        4Au8pz        4Au8py        4Au8px        4Au9pz    
  146    4Au9py        4Au9px        4Au10pz       4Au10py       4Au10px       4Au11pz       4Au11py       4Au11px       4Au12pz       4Au12py   
  147    4Au12px       4Au13pz       4Au13py       4Au13px       4Au1d-2       4Au1d-1       4Au1d0        4Au1d+1       4Au1d+2       4Au2d-2   
  148    4Au2d-1       4Au2d0        4Au2d+1       4Au2d+2       4Au3d-2       4Au3d-1       4Au3d0        4Au3d+1       4Au3d+2       4Au4d-2   
  149    4Au4d-1       4Au4d0        4Au4d+1       4Au4d+2       4Au5d-2       4Au5d-1       4Au5d0        4Au5d+1       4Au5d+2       4Au6d-2   
  150    4Au6d-1       4Au6d0        4Au6d+1       4Au6d+2       4Au7d-2       4Au7d-1       4Au7d0        4Au7d+1       4Au7d+2       4Au8d-2   
  151    4Au8d-1       4Au8d0        4Au8d+1       4Au8d+2       4Au9d-2       4Au9d-1       4Au9d0        4Au9d+1       4Au9d+2       4Au10d-2  
  152    4Au10d-1      4Au10d0       4Au10d+1      4Au10d+2      4Au11d-2      4Au11d-1      4Au11d0       4Au11d+1      4Au11d+2      4Au12d-2  
  153    4Au12d-1      4Au12d0       4Au12d+1      4Au12d+2      4Au1f-3       4Au1f-2       4Au1f-1       4Au1f0        4Au1f+1       4Au1f+2   
  154    4Au1f+3       4Au2f-3       4Au2f-2       4Au2f-1       4Au2f0        4Au2f+1       4Au2f+2       4Au2f+3       4Au3f-3       4Au3f-2   
  155    4Au3f-1       4Au3f0        4Au3f+1       4Au3f+2       4Au3f+3       4Au4f-3       4Au4f-2       4Au4f-1       4Au4f0        4Au4f+1   
  156    4Au4f+2       4Au4f+3       4Au5f-3       4Au5f-2       4Au5f-1       4Au5f0        4Au5f+1       4Au5f+2       4Au5f+3       4Au6f-3   
  157    4Au6f-2       4Au6f-1       4Au6f0        4Au6f+1       4Au6f+2       4Au6f+3       4Au7f-3       4Au7f-2       4Au7f-1       4Au7f0    
  158    4Au7f+1       4Au7f+2       4Au7f+3       4Au8f-3       4Au8f-2       4Au8f-1       4Au8f0        4Au8f+1       4Au8f+2       4Au8f+3   
  159    4Au9f-3       4Au9f-2       4Au9f-1       4Au9f0        4Au9f+1       4Au9f+2       4Au9f+3       4Au10f-3      4Au10f-2      4Au10f-1  
  160    4Au10f0       4Au10f+1      4Au10f+2      4Au10f+3      4Au1g-4       4Au1g-3       4Au1g-2       4Au1g-1       4Au1g0        4Au1g+1   
  161    4Au1g+2       4Au1g+3       4Au1g+4       4Au2g-4       4Au2g-3       4Au2g-2       4Au2g-1       4Au2g0        4Au2g+1       4Au2g+2   
  162    4Au2g+3       4Au2g+4       4Au3g-4       4Au3g-3       4Au3g-2       4Au3g-1       4Au3g0        4Au3g+1       4Au3g+2       4Au3g+3   
  163    4Au3g+4       4Au4g-4       4Au4g-3       4Au4g-2       4Au4g-1       4Au4g0        4Au4g+1       4Au4g+2       4Au4g+3       4Au4g+4   
  164    4Au5g-4       4Au5g-3       4Au5g-2       4Au5g-1       4Au5g0        4Au5g+1       4Au5g+2       4Au5g+3       4Au5g+4       4Au6g-4   
  165    4Au6g-3       4Au6g-2       4Au6g-1       4Au6g0        4Au6g+1       4Au6g+2       4Au6g+3       4Au6g+4       4Au7g-4       4Au7g-3   
  166    4Au7g-2       4Au7g-1       4Au7g0        4Au7g+1       4Au7g+2       4Au7g+3       4Au7g+4       4Au8g-4       4Au8g-3       4Au8g-2   
  167    4Au8g-1       4Au8g0        4Au8g+1       4Au8g+2       4Au8g+3       4Au8g+4       4Au9g-4       4Au9g-3       4Au9g-2       4Au9g-1   
  168    4Au9g0        4Au9g+1       4Au9g+2       4Au9g+3       4Au9g+4       4Au10g-4      4Au10g-3      4Au10g-2      4Au10g-1      4Au10g0   
  169    4Au10g+1      4Au10g+2      4Au10g+3      4Au10g+4      4Au1h-5       4Au1h-4       4Au1h-3       4Au1h-2       4Au1h-1       4Au1h0    
  170    4Au1h+1       4Au1h+2       4Au1h+3       4Au1h+4       4Au1h+5       4Au2h-5       4Au2h-4       4Au2h-3       4Au2h-2       4Au2h-1   
  171    4Au2h0        4Au2h+1       4Au2h+2       4Au2h+3       4Au2h+4       4Au2h+5       4Au3h-5       4Au3h-4       4Au3h-3       4Au3h-2   
  172    4Au3h-1       4Au3h0        4Au3h+1       4Au3h+2       4Au3h+3       4Au3h+4       4Au3h+5       4Au4h-5       4Au4h-4       4Au4h-3   
  173    4Au4h-2       4Au4h-1       4Au4h0        4Au4h+1       4Au4h+2       4Au4h+3       4Au4h+4       4Au4h+5       4Au5h-5       4Au5h-4   
  174    4Au5h-3       4Au5h-2       4Au5h-1       4Au5h0        4Au5h+1       4Au5h+2       4Au5h+3       4Au5h+4       4Au5h+5       4Au6h-5   
  175    4Au6h-4       4Au6h-3       4Au6h-2       4Au6h-1       4Au6h0        4Au6h+1       4Au6h+2       4Au6h+3       4Au6h+4       4Au6h+5   
  176    4Au7h-5       4Au7h-4       4Au7h-3       4Au7h-2       4Au7h-1       4Au7h0        4Au7h+1       4Au7h+2       4Au7h+3       4Au7h+4   
  177    4Au7h+5       4Au1i-6       4Au1i-5       4Au1i-4       4Au1i-3       4Au1i-2       4Au1i-1       4Au1i0        4Au1i+1       4Au1i+2   
  178    4Au1i+3       4Au1i+4       4Au1i+5       4Au1i+6       4Au2i-6       4Au2i-5       4Au2i-4       4Au2i-3       4Au2i-2       4Au2i-1   
  179    4Au2i0        4Au2i+1       4Au2i+2       4Au2i+3       4Au2i+4       4Au2i+5       4Au2i+6       4Au3i-6       4Au3i-5       4Au3i-4   
  180    4Au3i-3       4Au3i-2       4Au3i-1       4Au3i0        4Au3i+1       4Au3i+2       4Au3i+3       4Au3i+4       4Au3i+5       4Au3i+6   
  181    4Au4i-6       4Au4i-5       4Au4i-4       4Au4i-3       4Au4i-2       4Au4i-1       4Au4i0        4Au4i+1       4Au4i+2       4Au4i+3   
  182    4Au4i+4       4Au4i+5       4Au4i+6       4Au5i-6       4Au5i-5       4Au5i-4       4Au5i-3       4Au5i-2       4Au5i-1       4Au5i0    
  183    4Au5i+1       4Au5i+2       4Au5i+3       4Au5i+4       4Au5i+5       4Au5i+6       4Au1k-7       4Au1k-6       4Au1k-5       4Au1k-4   
  184    4Au1k-3       4Au1k-2       4Au1k-1       4Au1k0        4Au1k+1       4Au1k+2       4Au1k+3       4Au1k+4       4Au1k+5       4Au1k+6   
  185    4Au1k+7       4Au2k-7       4Au2k-6       4Au2k-5       4Au2k-4       4Au2k-3       4Au2k-2       4Au2k-1       4Au2k0        4Au2k+1   
  186    4Au2k+2       4Au2k+3       4Au2k+4       4Au2k+5       4Au2k+6       4Au2k+7       4Au3k-7       4Au3k-6       4Au3k-5       4Au3k-4   
  187    4Au3k-3       4Au3k-2       4Au3k-1       4Au3k0        4Au3k+1       4Au3k+2       4Au3k+3       4Au3k+4       4Au3k+5       4Au3k+6   
  188    4Au3k+7       4Au4k-7       4Au4k-6       4Au4k-5       4Au4k-4       4Au4k-3       4Au4k-2       4Au4k-1       4Au4k0        4Au4k+1   
  189    4Au4k+2       4Au4k+3       4Au4k+4       4Au4k+5       4Au4k+6       4Au4k+7   
 
 Maximum number of basis functions per shell:   90
 Total number of basis functions:   1896
 
 
 Old basis set for SCF restart
 
   1  Au def2-svp [ 7s 6p 5d 1f | 6s 3p 2d 1f ]
   2  Au def2-svp [ 7s 6p 5d 1f | 6s 3p 2d 1f ]
   3  Au def2-svp [ 7s 6p 5d 1f | 6s 3p 2d 1f ]
   4  Au def2-svp [ 7s 6p 5d 1f | 6s 3p 2d 1f ]
 
 Basis functions:
            1             2             3             4             5             6             7             8             9            10
    0    1Au1s         1Au2s         1Au3s         1Au4s         1Au5s         1Au6s         1Au1pz        1Au1py        1Au1px        1Au2pz    
    1    1Au2py        1Au2px        1Au3pz        1Au3py        1Au3px        1Au1d-2       1Au1d-1       1Au1d0        1Au1d+1       1Au1d+2   
    2    1Au2d-2       1Au2d-1       1Au2d0        1Au2d+1       1Au2d+2       1Au1f-3       1Au1f-2       1Au1f-1       1Au1f0        1Au1f+1   
    3    1Au1f+2       1Au1f+3       2Au1s         2Au2s         2Au3s         2Au4s         2Au5s         2Au6s         2Au1pz        2Au1py    
    4    2Au1px        2Au2pz        2Au2py        2Au2px        2Au3pz        2Au3py        2Au3px        2Au1d-2       2Au1d-1       2Au1d0    
    5    2Au1d+1       2Au1d+2       2Au2d-2       2Au2d-1       2Au2d0        2Au2d+1       2Au2d+2       2Au1f-3       2Au1f-2       2Au1f-1   
    6    2Au1f0        2Au1f+1       2Au1f+2       2Au1f+3       3Au1s         3Au2s         3Au3s         3Au4s         3Au5s         3Au6s     
    7    3Au1pz        3Au1py        3Au1px        3Au2pz        3Au2py        3Au2px        3Au3pz        3Au3py        3Au3px        3Au1d-2   
    8    3Au1d-1       3Au1d0        3Au1d+1       3Au1d+2       3Au2d-2       3Au2d-1       3Au2d0        3Au2d+1       3Au2d+2       3Au1f-3   
    9    3Au1f-2       3Au1f-1       3Au1f0        3Au1f+1       3Au1f+2       3Au1f+3       4Au1s         4Au2s         4Au3s         4Au4s     
   10    4Au5s         4Au6s         4Au1pz        4Au1py        4Au1px        4Au2pz        4Au2py        4Au2px        4Au3pz        4Au3py    
   11    4Au3px        4Au1d-2       4Au1d-1       4Au1d0        4Au1d+1       4Au1d+2       4Au2d-2       4Au2d-1       4Au2d0        4Au2d+1   
   12    4Au2d+2       4Au1f-3       4Au1f-2       4Au1f-1       4Au1f0        4Au1f+1       4Au1f+2       4Au1f+3   
 
 Maximum number of basis functions per shell:   90
 Total number of basis functions:    128
 
 
 Effective core potentials:
 
   1  Au mcdhf-ecp-60        
   2  Au mcdhf-ecp-60        
   3  Au mcdhf-ecp-60        
   4  Au mcdhf-ecp-60        
 
 Calculation of prescreening integrals...
 CPU time [min]:    22.655                   Wall time [min]:     0.888
 
 Calculation of two-center Coulomb integrals...
   1% done.
  12% done.
  25% done.
  36% done.
  47% done.
  60% done.
  72% done.
  87% done.
 100% done.
 CPU time [min]:    22.716                   Wall time [min]:     0.889
 
 Cholesky decomposition of the inverse of the two-center matrix...
 CPU time [min]:    22.781                   Wall time [min]:     0.891
 
 Calculation of three-center Coulomb integrals...
   1% done.
  13% done.
  25% done.
  37% done.
  50% done.
  64% done.
  82% done.
 100% done.
 CPU time [min]:    35.024                   Wall time [min]:     1.232

 ************************ 2023-02-04 10:41:54 *************************
 Executing drpa...

 Three-index integral transformation
 
 Allocation of 220.0 Gbytes of memory...
 Minimal memory requirement for (ai|P) and (ij|P) integrals:      103.0 MB

 Calculating (ai|P) and (ij|P) integrals...
 Number of integral batches:    1
 Occupied indices per batch:   38
 
 Transforming integrals of batch 1...
 CPU time [min]:    82.988                   Wall time [min]:     2.903
 

 Constructing MP2 natural orbitals...

 Threshold for individual occupations:     1.0000E-05
 Corresponding cummulative occupation threshold:  0.99972290  0.99971569
 Total number of virtual orbitals:     682
 Number of virtual natural orbitals:   532  (78.01%)
 
 Transforming (ai|P) integrals to the NO basis...
 Number of integral batches:    1
 Occupied indices per batch:   38
 
 Transforming integrals of batch 1 to the NO basis...
 CPU time [min]:   117.551                   Wall time [min]:     4.216

 Calculating (ab|P) integrals...
 Minimal memory requirement for (ab|P) integrals:       63.0 MB
 Number of integral batches:    1
 Virtual indices per batch:   532

 Transforming integrals of batch 1...
 CPU time [min]:   146.548                   Wall time [min]:     6.050
 

 Constructing natural auxiliary functions...

 Threshold for eigenvalues:     1.0000E-02
 Total number of auxiliary functions:    1896
 Number of natural auxiliary functions:  1497  (78.96%)

 Transforming (ai|P) and (ij|P) integrals to the NAF basis...
 Number of integral batches:    1
 Occupied indices per batch:   38
 
 Transforming integrals of batch 1 to the NAF basis...
 CPU time [min]:   181.053                   Wall time [min]:     7.339

 Transforming (ab|P) integrals to the NAF basis...
 Number of integral batches:    1
 Virtual indices per batch:   532

 Transforming integrals of batch 1 to the NAF basis...
 CPU time [min]:   182.091                   Wall time [min]:     7.746
 

 Results in full basis:
 
 
 Reference energy [au]:                      -539.193610462296
 DF-MP2 singlet pair energy [au]:              -2.307150595067
 DF-MP2 triplet pair energy [au]:              -1.040819455723
 DF-SCS-MP2 correlation energy [au]:           -3.115520532654
 DF-SCS-MP2 energy [au]:                     -542.309130994951
 DF-SOS-MP2 correlation energy [au]:           -2.999295773587
 DF-SOS-MP2 energy [au]:                     -542.192906235883
 DF-MP2 correlation energy [au]:               -3.347970050790
 DF-MP2 energy [au]:                         -542.541580513086

 Results in FNO basis:
 
 
 Reference energy [au]:                      -539.193610462296
 DF-MP2 singlet pair energy [au]:              -2.302089968664
 DF-MP2 triplet pair energy [au]:              -1.040139625571
 DF-SCS-MP2 correlation energy [au]:           -3.109221170920
 DF-SCS-MP2 energy [au]:                     -542.302831633217
 DF-SOS-MP2 correlation energy [au]:           -2.992716959263
 DF-SOS-MP2 energy [au]:                     -542.186327421560
 DF-MP2 correlation energy [au]:               -3.342229594235
 DF-MP2 energy [au]:                         -542.535840056531

 Results in NAF basis:
 
 
 Reference energy [au]:                      -539.193610462296
 DF-MP2 singlet pair energy [au]:              -2.302051415548
 DF-MP2 triplet pair energy [au]:              -1.040141524425
 DF-SCS-MP2 correlation energy [au]:           -3.109175540133
 DF-SCS-MP2 energy [au]:                     -542.302786002429
 DF-SOS-MP2 correlation energy [au]:           -2.992666840213
 DF-SOS-MP2 energy [au]:                     -542.186277302509
 DF-MP2 correlation energy [au]:               -3.342192939973
 DF-MP2 energy [au]:                         -542.535803402269

 ************************ 2023-02-04 10:49:40 *************************
 Executing ccsd...

 Allocation of 220.0 Gbytes of memory...

 Direct DF-CCSD(T) calculation
 
 Convergence criterion:  1.0E-06
 
 Number of occupied/virtual/auxiliary orbitals:    38   532  1497
  26771.76 MB is the minimal memory requirement for (T)
   8491.97 MB is the minimal memory requirement for CCSD
 
 Reference energy [au]:            -539.193610462296
 T1 contribution [au]:                0.000000000000
 Same spin MP2 energy [au]:          -1.040140570144
 Opposite spin MP2 energy [au]:      -2.302070683613
 MP2 correlation energy [au]:        -3.342211253757
 Total MP2 energy [au]:            -542.535821716053
 MP2 correction [au]:                -0.005758797033
 
 
 CPU time [min]:     8.721                   Wall time [min]:     3.124
 
 Starting CCSD iterations...
 
                     Residual norm          Energy
 Iteration  1        0.569008295285     -542.169441128566
 Iteration  2        0.198390137948     -542.276698808790
 Iteration  3        0.041955652855     -542.296475473022
 Iteration  4        0.023829496120     -542.295794364990
 Iteration  5        0.010459261895     -542.293412506222
 Iteration  6        0.006856003910     -542.293069983806
 Iteration  7        0.003469202193     -542.293805226666
 Iteration  8        0.002220066319     -542.294042634847
 Iteration  9        0.001064399274     -542.293953155860
 Iteration 10        0.000677192934     -542.293952511662
 Iteration 11        0.000310436058     -542.293955832457
 Iteration 12        0.000190576143     -542.293943812867
 Iteration 13        0.000097280480     -542.293947333728
 Iteration 14        0.000058017848     -542.293952413532
 Iteration 15        0.000029230208     -542.293951614024
 Iteration 16        0.000015139418     -542.293950506786
 Iteration 17        0.000007182981     -542.293950749532
 Iteration 18        0.000003467382     -542.293950932582
 
 CCSD iteration has converged in 18 steps.
   225275.44 MB memory was utilized by CCSD
 
 T1 diagnostic:      1.831E-02            D1 diagnostic:      9.116E-02
 
 T1 contribution [au]:                                  0.000000000000
 PPL energy contribution [au]:                          0.500642651310
 Scaled PPL energy contribution [au]:                   0.501466613314

 OS-PPL energy contribution [au]:                       0.379480989378
 Scaled OS-PPL energy contribution [au]:                0.380280122913
 SS-PPL energy contribution [au]:                       0.121161661932
 Scaled SS-PPL energy contribution [au]:                0.121237465934

 Opposite spin CCSD energy [au]:                       -2.218866730271
 Same spin CCSD energy [au]:                           -0.881492700954
 CCSD correlation energy [au]:                         -3.100359431225
 CCSD correlation energy + MP2 correction [au]:        -3.106118228258
 CCSD correlation energy + MP2 + PPL corr. [au]:       -3.105294266254
 Total CCSD energy [au]:                             -542.293969893522
 Total CCSD energy + MP2 correction [au]:            -542.299728690555
 Total CCSD energy + MP2 + PPL corr. [au]:           -542.298904728550
 
 CPU time [min]:  3804.919                   Wall time [min]:   139.822
 
 Calculation of (T) correction...
 
 
    65902.78 MB memory is utilized for (T)

 0%       25%       50%       75%       100%
 |---------|---------|---------|---------| 
 
 (T) correction [au]:                                    -0.147358858111
 (T*) correction [au]:                                   -0.147612764788
 (T+) correction [au]:                                   -0.147587538950
 CCSD(T) correlation energy [au]:                        -3.247718289336
 CCSD(T) correlation energy + MP2 correction [au]:       -3.253477086369
 CCSD(T+) correlation en. + MP2 + PPL corr. [au]:        -3.252881805204
 Total CCSD(T) energy [au]:                            -542.441328751633
 Total CCSD(T) energy + MP2 correction [au]:           -542.447087548666
 Total CCSD(T+) energy + MP2 + PPL corr. [au]:         -542.446492267500
 
 CPU time [min]: 13045.079                   Wall time [min]:   402.136
 
 ************************ 2023-02-04 17:31:50 *************************
                      Normal termination of mrcc.
 **********************************************************************
