 vasp.6.3.0 20Jan22 (build Apr  1 2022 16:44:48) complex                         
 executed on        HPECrayEX_GCC date 2022.11.20  06:48:12
 running 2048 mpi-ranks, with    1 threads/rank
 distrk:  each k-point on 1024 cores,    2 groups
 distr:  one band on NCORE=   4 cores,  256 groups


--------------------------------------------------------------------------------------------------------


 INCAR:
   SYSTEM = MgO-rocksalt
   ISMEAR = 0
   SIGMA = 0.05
   EDIFF = 1E-6
   ALGO = ALL
   ISTART = 0
   IBRION = -1
   NSW = 0
   ISYM = 2
   DIPOL = 0.5 0.5 0.5
   IDIPOL = 3
   LDIPOL = .TRUE.
   LHFCALC = .TRUE.
   HFSCREEN = 0.2
   GGA = PE
   IVDW = 13
   VDW_S8 = 1.19528249
   VDW_A1 = 0.38663183
   VDW_A2 = 5.19133469
   ENCUT = 520
   PREC = Accurate
   LASPH = .TRUE.
   LREAL = Auto
   ISPIN = 1
   NELM = 200
   NELMIN = 8
   NCORE = 4
   KPAR = 2
   LWAVE = .FALSE.
   LCHARG = .FALSE.

 POTCAR:    PAW_PBE Cu 22Jun2005                  
 -----------------------------------------------------------------------------
|                                                                             |
|           W    W    AA    RRRRR   N    N  II  N    N   GGGG   !!!           |
|           W    W   A  A   R    R  NN   N  II  NN   N  G    G  !!!           |
|           W    W  A    A  R    R  N N  N  II  N N  N  G       !!!           |
|           W WW W  AAAAAA  RRRRR   N  N N  II  N  N N  G  GGG   !            |
|           WW  WW  A    A  R   R   N   NN  II  N   NN  G    G                |
|           W    W  A    A  R    R  N    N  II  N    N   GGGG   !!!           |
|                                                                             |
|     You have selected ISYM=2 for a HF type calculation. This will           |
|     symmetrize the charge density but not the exchange potential. I         |
|     suggest to use ISYM=3 instead. This uses symmetry to obtain the         |
|     orbitals at all k-points in the Brillouin zone, but does not apply      |
|     symmetry to the Hartree potential directly. The resultant charge        |
|     might have lower symmetry than the crystal but, at least, Hartree       |
|     and exchange are fully compatible.                                      |
|                                                                             |
 -----------------------------------------------------------------------------

 POTCAR:    PAW_PBE Cu 22Jun2005                  
   SHA256 =  0e71e558f37a4e8407882b4609ceaae59938afaad9ced71dfe8490308a0ab630 Cu/POTCAR             
   COPYR  = (c) Copyright 22Jun2005 Georg Kresse                                                    
   COPYR  = This file is part of the software VASP. Any use, copying, and all other rights are regul
   COPYR  = If you do not have a valid VASP license, you may not use, copy or distribute this file. 
   VRHFIN =Cu: d10 p1                                                                               
   LEXCH  = PE                                                                                      
   EATOM  =  1390.9808 eV,  102.2342 Ry                                                             
                                                                                                    
   TITEL  = PAW_PBE Cu 22Jun2005                                                                    
   LULTRA =        F    use ultrasoft PP ?                                                          
   IUNSCR =        1    unscreen: 0-lin 1-nonlin 2-no                                               
   RPACOR =    2.000    partial core radius                                                         
   POMASS =   63.546; ZVAL   =   11.000    mass and valenz                                          
   RCORE  =    2.300    outmost cutoff radius                                                       
   RWIGS  =    2.200; RWIGS  =    1.164    wigner-seitz radius (au A)                               
   ENMAX  =  295.446; ENMIN  =  221.585 eV                                                          
   ICORE  =        3    local potential                                                             
   LCOR   =        T    correct aug charges                                                         
   LPAW   =        T    paw PP                                                                      
   EAUG   =  586.980                                                                                
   DEXC   =    0.000                                                                                
   RMAX   =    2.344    core radius for proj-oper                                                   
   RAUG   =    1.300    factor for augmentation sphere                                              
   RDEP   =    2.302    radius for radial grids                                                     
   RDEPT  =    1.771    core radius for aug-charge                                                  
                                                                                                    
   Atomic configuration                                                                             
    9 entries                                                                                       
     n  l   j            E        occ.                                                              
     1  0  0.50     -8850.2468   2.0000                                                             
     2  0  0.50     -1062.3498   2.0000                                                             
     2  1  1.50      -916.8226   6.0000                                                             
     3  0  0.50      -114.6929   2.0000                                                             
     3  1  1.50       -72.1325   6.0000                                                             
     3  2  2.50        -5.0394  10.0000                                                             
     4  0  0.50        -4.6097   1.0000                                                             
     4  1  0.50        -4.0817   0.0000                                                             
     4  3  2.50        -1.3606   0.0000                                                             
   Description                                                                                      
     l       E           TYP  RCUT    TYP  RCUT                                                     
     2     -5.0393973     23  2.200                                                                 
     2     10.8846608     23  2.200                                                                 
     0     -4.6097109     23  2.200                                                                 
     0      8.2520465     23  2.200                                                                 
     1     -2.7211652     23  2.200                                                                 
     1     21.7055443     23  2.200                                                                 
     3      2.7211652     23  2.300                                                                 
  local pseudopotential read in
  partial core-charges read in
  partial kinetic energy density read in
  atomic valenz-charges read in
  non local Contribution for L=           2  read in
    real space projection operators read in
  non local Contribution for L=           2  read in
    real space projection operators read in
  non local Contribution for L=           0  read in
    real space projection operators read in
  non local Contribution for L=           0  read in
    real space projection operators read in
  non local Contribution for L=           1  read in
    real space projection operators read in
  non local Contribution for L=           1  read in
    real space projection operators read in
    PAW grid and wavefunctions read in

   number of l-projection  operators is LMAX  =           6
   number of lm-projection operators is LMMAX =          18

 -----------------------------------------------------------------------------
|                                                                             |
|               ----> ADVICE to this user running VASP <----                  |
|                                                                             |
|     You have a (more or less) 'small supercell' and for smaller cells       |
|     it is recommended to use the reciprocal-space projection scheme!        |
|     The real-space optimization is not efficient for small cells and it     |
|     is also less accurate ...                                               |
|     Therefore, set LREAL=.FALSE. in the INCAR file.                         |
|                                                                             |
 -----------------------------------------------------------------------------

 Optimization of the real space projectors (new method)

 maximal supplied QI-value         = 16.25
 optimisation between [QCUT,QGAM] = [ 11.54, 23.24] = [ 37.28,151.24] Ry 
 Optimized for a Real-space Cutoff    1.53 Angstroem

   l    n(q)    QCUT    max X(q) W(low)/X(q) W(high)/X(q)  e(spline) 
   2     10    11.539     4.610    0.96E-04    0.13E-03    0.19E-06
   2     10    11.539     8.522    0.16E-03    0.21E-03    0.28E-06
   0     11    11.539    51.609    0.45E-04    0.31E-04    0.11E-06
   0     11    11.539    27.747    0.39E-04    0.29E-04    0.10E-06
   1     10    11.539    20.408    0.70E-05    0.38E-04    0.18E-06
   1     10    11.539    13.425    0.66E-05    0.34E-04    0.17E-06
  PAW_PBE Cu 22Jun2005                  :
 energy of atom  1       EATOM=-1390.9808
 kinetic energy error for atom=    0.0037 (will be added to EATOM!!)


 POSCAR: Cu
  positions in direct lattice
  No initial velocities read in
 -----------------------------------------------------------------------------
|                                                                             |
|           W    W    AA    RRRRR   N    N  II  N    N   GGGG   !!!           |
|           W    W   A  A   R    R  NN   N  II  NN   N  G    G  !!!           |
|           W    W  A    A  R    R  N N  N  II  N N  N  G       !!!           |
|           W WW W  AAAAAA  RRRRR   N  N N  II  N  N N  G  GGG   !            |
|           WW  WW  A    A  R   R   N   NN  II  N   NN  G    G                |
|           W    W  A    A  R    R  N    N  II  N    N   GGGG   !!!           |
|                                                                             |
|     Specifying the vdW parameters                                           |
|     VDW_S8 = 1.195                                                          |
|     VDW_A1 = 0.387                                                          |
|     VDW_A2 = 5.191                                                          |
|     in the INCAR file will overwrite the defaults for hse06. Please         |
|     make sure that is what you intended.                                    |
|                                                                             |
 -----------------------------------------------------------------------------

 exchange correlation table for  LEXCH =        8
   RHO(1)=    0.500       N(1)  =     2000
   RHO(2)=  100.500       N(2)  =     4000



--------------------------------------------------------------------------------------------------------


 ion  position               nearest neighbor table
   1  0.538  0.562  0.615-   2 2.24
   2  0.462  0.638  0.615-   1 2.24

  LATTYP: Found a simple tetragonal cell.
 ALAT       =    21.1388521970
 C/A-ratio  =     1.0461251639
  
  Lattice vectors:
  
 A1 = (  21.1388521970,   0.0000000000,   0.0000000000)
 A2 = (   0.0000000000,  21.1388521970,   0.0000000000)
 A3 = (   0.0000000000,   0.0000000000,  22.1138852197)


Analysis of symmetry for initial positions (statically):
=====================================================================
 Subroutine PRICEL returns:
 Original cell was already a primitive cell.
 

 Routine SETGRP: Setting up the symmetry group for a 
 simple tetragonal supercell.


 Subroutine GETGRP returns: Found  8 space group operations
 (whereof  1 operations were pure point group operations)
 out of a pool of 16 trial point group operations.


The static configuration has the point symmetry C_1 .
 The point group associated with its full space group is D_2h.


Analysis of symmetry for dynamics (positions and initial velocities):
=====================================================================
 Subroutine PRICEL returns:
 Original cell was already a primitive cell.
 

 Routine SETGRP: Setting up the symmetry group for a 
 simple tetragonal supercell.


 Subroutine GETGRP returns: Found  8 space group operations
 (whereof  1 operations were pure point group operations)
 out of a pool of 16 trial point group operations.


The dynamic configuration has the point symmetry C_1 .
 The point group associated with its full space group is D_2h.


 Subroutine INISYM returns: Found  8 space group operations
 (whereof  1 operations are pure point group operations),
 and found     1 'primitive' translations


----------------------------------------------------------------------------------------

                                     Primitive cell                                     

  volume of cell :    9881.6133

  direct lattice vectors                    reciprocal lattice vectors
    21.138852197  0.000000000  0.000000000     0.047306258  0.000000000  0.000000000
     0.000000000 21.138852197  0.000000000     0.000000000  0.047306258  0.000000000
     0.000000000  0.000000000 22.113885220     0.000000000  0.000000000  0.045220457

  length of vectors
    21.138852197 21.138852197 22.113885220     0.047306258  0.047306258  0.045220457

  position of ions in fractional coordinates (direct lattice)
     0.537531089  0.562468875  0.614848637
     0.462468911  0.637531053  0.614848637

  ion indices of the primitive-cell ions
   primitive index   ion index
                 1           1
                 2           2

----------------------------------------------------------------------------------------



 KPOINTS: KPOINTS created by Atomic Simulation Env

Automatic generation of k-mesh.
 Grid dimensions read from file:
 generate k-points for:    1    1    1

 Generating k-lattice:

  Cartesian coordinates                     Fractional coordinates (reciprocal lattice)
     0.047306258  0.000000000  0.000000000     1.000000000  0.000000000  0.000000000
     0.000000000  0.047306258  0.000000000     0.000000000  1.000000000  0.000000000
     0.000000000  0.000000000  0.045220457     0.000000000  0.000000000  1.000000000

  Length of vectors
     0.047306258  0.047306258  0.045220457

  Shift w.r.t. Gamma in fractional coordinates (k-lattice)
     0.000000000  0.000000000  0.000000000

 
 Subroutine IBZKPT returns following result:
 ===========================================
 
 Found      1 irreducible k-points:
 
 Following reciprocal coordinates:
            Coordinates               Weight
  0.000000  0.000000  0.000000      1.000000
 
 Following cartesian coordinates:
            Coordinates               Weight
  0.000000  0.000000  0.000000      1.000000
 
 
 Subroutine IBZKPT_HF returns following result:
 ==============================================
 
 Found      1 k-points in 1st BZ
 the following      1 k-points will be used (e.g. in the exchange kernel)
 Following reciprocal coordinates:   # in IRBZ
  0.000000  0.000000  0.000000    1.00000000   1 t-inv F


--------------------------------------------------------------------------------------------------------




 Dimension of arrays:
   k-points           NKPTS =      1   k-points in BZ     NKDIM =      1   number of bands    NBANDS=    256
   number of dos      NEDOS =    301   number of ions     NIONS =      2
   non local maximal  LDIM  =      6   non local SUM 2l+1 LMDIM =     18
   total plane-waves  NPLWV = ******
   max r-space proj   IRMAX =   6628   max aug-charges    IRDMAX=  12805
   dimension x,y,z NGX =   160 NGY =  160 NGZ =  168
   dimension x,y,z NGXF=   320 NGYF=  320 NGZF=  336
   support grid    NGXF=   320 NGYF=  320 NGZF=  336
   ions per type =               2
   NGX,Y,Z   is equivalent  to a cutoff of  12.58, 12.58, 12.63 a.u.
   NGXF,Y,Z  is equivalent  to a cutoff of  25.17, 25.17, 25.26 a.u.

 SYSTEM =  MgO-rocksalt                            
 POSCAR =  Cu                                      

 Startparameter for this run:
   NWRITE =      2    write-flag & timer
   PREC   = accura    normal or accurate (medium, high low for compatibility)
   ISTART =      0    job   : 0-new  1-cont  2-samecut
   ICHARG =      2    charge: 1-file 2-atom 10-const
   ISPIN  =      1    spin polarized calculation?
   LNONCOLLINEAR =      F non collinear calculations
   LSORBIT =      F    spin-orbit coupling
   INIWAV =      1    electr: 0-lowe 1-rand  2-diag
   LASPH  =      T    aspherical Exc in radial PAW
 Electronic Relaxation 1
   ENCUT  =  520.0 eV  38.22 Ry    6.18 a.u.  39.30 39.30 41.12*2*pi/ulx,y,z
   ENINI  =  520.0     initial cutoff
   ENAUG  =  587.0 eV  augmentation charge cutoff
   NELM   =    200;   NELMIN=  8; NELMDL= -5     # of ELM steps 
   EDIFF  = 0.1E-05   stopping-criterion for ELM
   LREAL  =      T    real-space projection
   NLSPLINE    = F    spline interpolate recip. space projectors
   LCOMPAT=      F    compatible to vasp.4.4
   GGA_COMPAT  = T    GGA compatible to vasp.4.4-vasp.4.6
   LMAXPAW     = -100 max onsite density
   LMAXMIX     =    2 max onsite mixed and CHGCAR
   VOSKOWN=      0    Vosko Wilk Nusair interpolation
   ROPT   =   -0.00025
 Ionic relaxation
   EDIFFG = 0.1E-04   stopping-criterion for IOM
   NSW    =      0    number of steps for IOM
   NBLOCK =      1;   KBLOCK =      1    inner block; outer block 
   IBRION =     -1    ionic relax: 0-MD 1-quasi-New 2-CG
   NFREE  =      0    steps in history (QN), initial steepest desc. (CG)
   ISIF   =      0    stress and relaxation
   IWAVPR =     10    prediction:  0-non 1-charg 2-wave 3-comb
   ISYM   =      2    0-nonsym 1-usesym 2-fastsym
   LCORR  =      T    Harris-Foulkes like correction to forces

   POTIM  = 0.5000    time-step for ionic-motion
   TEIN   =    0.0    initial temperature
   TEBEG  =    0.0;   TEEND  =   0.0 temperature during run
   SMASS  =  -3.00    Nose mass-parameter (am)
   estimated Nose-frequenzy (Omega)   =  0.10E-29 period in steps = 0.13E+47 mass=  -0.102E-25a.u.
   SCALEE = 1.0000    scale energy and forces
   NPACO  =    256;   APACO  = 10.0  distance and # of slots for P.C.
   PSTRESS=    0.0 pullay stress

  Mass of Ions in am
   POMASS =  63.55
  Ionic Valenz
   ZVAL   =  11.00
  Atomic Wigner-Seitz radii
   RWIGS  =  -1.00
  virtual crystal weights 
   VCA    =   1.00
   NELECT =      22.0000    total number of electrons
   NUPDOWN=      -1.0000    fix difference up-down

 DOS related values:
   EMIN   =  10.00;   EMAX   =-10.00  energy-range for DOS
   EFERMI =   0.00
   ISMEAR =     0;   SIGMA  =   0.05  broadening in eV -4-tet -1-fermi 0-gaus

 Electronic relaxation 2 (details)
   IALGO  =     58    algorithm
   LDIAG  =      T    sub-space diagonalisation (order eigenvalues)
   LSUBROT=      F    optimize rotation matrix (better conditioning)
   TURBO    =      0    0=normal 1=particle mesh
   IRESTART =      0    0=no restart 2=restart with 2 vectors
   NREBOOT  =      0    no. of reboots
   NMIN     =      0    reboot dimension
   EREF     =   0.00    reference energy to select bands
   IMIX   =      4    mixing-type and parameters
     AMIX     =   0.40;   BMIX     =  1.00
     AMIX_MAG =   1.60;   BMIX_MAG =  1.00
     AMIN     =   0.10
     WC   =   100.;   INIMIX=   1;  MIXPRE=   1;  MAXMIX= -45

 Intra band minimization:
   WEIMIN = 0.0000     energy-eigenvalue tresh-hold
   EBREAK =  0.98E-09  absolut break condition
   DEPER  =   0.30     relativ break condition  

   TIME   =   0.40     timestep for ELM

  volume/ion in A,a.u.               =    4940.81     33342.21
  Fermi-wavevector in a.u.,A,eV,Ry     =   0.213767  0.403960  0.621734  0.045696
  Thomas-Fermi vector in A             =   0.985879

 Write flags
   LWAVE        =      F    write WAVECAR
   LDOWNSAMPLE  =      F    k-point downsampling of WAVECAR
   LCHARG       =      F    write CHGCAR
   LVTOT        =      F    write LOCPOT, total local potential
   LVHAR        =      F    write LOCPOT, Hartree potential only
   LELF         =      F    write electronic localiz. function (ELF)
   LORBIT       =      0    0 simple, 1 ext, 2 COOP (PROOUT), +10 PAW based schemes


 Dipole corrections
   LMONO  =      F    monopole corrections only (constant potential shift)
   LDIPOL =      T    correct potential (dipole corrections)
   IDIPOL =      3    1-x, 2-y, 3-z, 4-all directions 
   EPSILON=  1.0000000 bulk dielectric constant

 Exchange correlation treatment:
   GGA     =    PE    GGA type
   LEXCH   =     8    internal setting for exchange type
   LIBXC   =     F    Libxc                    
   VOSKOWN =     0    Vosko Wilk Nusair interpolation
   EXXOEP  =     0    0=HF, 1=EXX-LHF (local Hartree Fock) 2=EXX OEP
   LHFCALC =     T    Hartree Fock is set to
   LSYMGRAD=     F    symmetrize gradient (conserves proper symmetry)
   PRECFOCK=normal    Normal, Fast or Accurate (Low or Medium for compatibility)
   LRHFCALC=     F    long range Hartree Fock
   LRSCOR  =     F    long range correlation only (use DFT for short range part)
   LTHOMAS =     F    Thomas Fermi screening in HF
   LMODELHF=     F    short range full HF, long range fraction AEXX
   LFOCKACE=     T    use Adeptively-Compressed-Exchange operator
   ENCUT4O =  -1.0   cutoff for four orbital integrals eV
   LMAXFOCK=     4    L truncation for augmentation on plane wave grid
   LMAXFOCKAE=  -1    L truncation for all-electron charge restoration on plane wave grid
   NMAXFOCKAE=   1    number of basis functions for all-electron charge restoration
   LFOCKAEDFT=     F  apply the AE augmentation even for DFT
   NKREDX  =     1    reduce k-point grid by
   NKREDY  =     1    reduce k-point grid by
   NKREDZ  =     1    reduce k-point grid by
   SHIFTRED=     F    shift reduced grid of Gamma
   HFKIDENT=     F    idential grid for each k-point
   ODDONLY =     F    use only odd q-grid points
   EVENONLY=     F    use only even q-grid points
   HFALPHA =   -1.0000 decay constant for conv. correction
   MCALPHA =    0.0000 extent of test-charge in conv. correction in multipole expansion
   AEXX    =    0.2500 exact exchange contribution
   HFSCREEN=    0.2000 screening length (either q_TF or 0.3 A-1)
   HFSCREENC=   0.2000 screening length for correlation (either q_TF or 0.3 A-1)
   HFRCUT  =    0.0000 spherical cutoff for potential kernel
   ALDAX   =    0.7500 LDA exchange part
   AGGAX   =    0.7500 GGA exchange part
   ALDAC   =    1.0000 LDA correlation
   AGGAC   =    1.0000 GGA correlation
   ENCUTFOCK=  -1.0 apply spherical cutoff to Coloumb kernel
   NBANDSGWLOW=     1    first orbital included in HF term
   NBLOCK_FOCK=    64    blocking factor in FOCK_ACC

 Linear response parameters
   LEPSILON=     F    determine dielectric tensor
   LRPA    =     F    only Hartree local field effects (RPA)
   LNABLA  =     F    use nabla operator in PAW spheres
   LVEL    =     F    velocity operator in full k-point grid
   CSHIFT  =0.1000    complex shift for real part using Kramers Kronig
   OMEGAMAX=  -1.0    maximum frequency
   DEG_THRESHOLD= 0.2000000E-02 threshold for treating states as degnerate
   RTIME   =   -0.100 relaxation time in fs
  (WPLASMAI=    0.000 imaginary part of plasma frequency in eV, 0.658/RTIME)
   DFIELD  = 0.0000000 0.0000000 0.0000000 field for delta impulse in time

  Optional k-point grid parameters
   LKPOINTS_OPT  =     F    use optional k-point grid
   KPOINTS_OPT_MODE=     1    mode for optional k-point grid

 Orbital magnetization related:
   ORBITALMAG=     F  switch on orbital magnetization
   LCHIMAG   =     F  perturbation theory with respect to B field
   DQ        =  0.001000  dq finite difference perturbation B field
   LLRAUG    =     F  two centre corrections for induced B field



--------------------------------------------------------------------------------------------------------


 Static calculation
 charge density and potential will be updated during run
 non-spin polarized calculation
 Conjugate gradient for all bands (Freysoldt, et al. PRB 79, 241103 (2009))
 preconditioned conjugated gradient                                        
 perform sub-space diagonalisation
    before iterative eigenvector-optimisation
 modified Broyden-mixing scheme, WC =      100.0
 initial mixing is a Kerker type mixing with AMIX =  0.4000 and BMIX =      1.0000
 Hartree-type preconditioning will be used
 using additional bands          245
 real space projection scheme for non local part
 use partial core corrections
 no Harris-corrections to forces 
 use gradient corrections 
 use of overlap-Matrix (Vanderbilt PP)
 Gauss-broadening in eV      SIGMA  =   0.05


--------------------------------------------------------------------------------------------------------


  energy-cutoff  :      520.00
  volume of cell :     9881.61
      direct lattice vectors                 reciprocal lattice vectors
    21.138852197  0.000000000  0.000000000     0.047306258  0.000000000  0.000000000
     0.000000000 21.138852197  0.000000000     0.000000000  0.047306258  0.000000000
     0.000000000  0.000000000 22.113885220     0.000000000  0.000000000  0.045220457

  length of vectors
    21.138852197 21.138852197 22.113885220     0.047306258  0.047306258  0.045220457



 k-points in units of 2pi/SCALE and weight: KPOINTS created by Atomic Simulation Env
   0.00000000  0.00000000  0.00000000       1.000

 k-points in reciprocal lattice and weights: KPOINTS created by Atomic Simulation Env
   0.00000000  0.00000000  0.00000000       1.000

 position of ions in fractional coordinates (direct lattice) 
   0.53753109  0.56246888  0.61484864
   0.46246891  0.63753105  0.61484864

 position of ions in cartesian coordinates  (Angst):
  11.36279024 11.88994642 13.59669218
   9.77606196 13.47667470 13.59669218



--------------------------------------------------------------------------------------------------------


 k-point   1 :   0.0000 0.0000 0.0000  plane waves:  265979

 maximum and minimum number of plane-waves per node :     66495    66494

 maximum number of plane-waves:    265979
 maximum index in each direction: 
   IXMAX=   39   IYMAX=   39   IZMAX=   41
   IXMIN=  -39   IYMIN=  -39   IZMIN=  -41


 real space projection operators:
  total allocation   :       1799.72 KBytes
  max/ min on nodes  :        455.62        442.41


 parallel 3D FFT for wavefunctions:
    minimum data exchange during FFTs selected (reduces bandwidth)
 parallel 3D FFT for charge:
    minimum data exchange during FFTs selected (reduces bandwidth)


 FFT grid for exact exchange (Hartree Fock) 
  NGX =120; NGY =120; NGZ =126


 Radii for the augmentation spheres in the non-local exchange
 for species   1 augmentation radius   1.179 (default was   0.943)
       energy cutoff for augmentation   2080.0

 real space projection operators:
  total allocation   :        498.44 KBytes
  max/ min on nodes  :        128.12        120.70

 Maximum index for augmentation-charges in exchange          328
  SETUP_FOCK is finished

 total amount of memory used by VASP MPI-rank0   144353. kBytes
=======================================================================

   base      :      30000. kBytes
   nonlr-proj:        985. kBytes
   fftplans  :      61791. kBytes
   grid      :      48291. kBytes
   one-center:         15. kBytes
   HF        :         64. kBytes
   wavefun   :       3207. kBytes

     INWAV:  cpu time      0.0000: real time      0.0000
 Broyden mixing: mesh for mixing (old mesh)
   NGX = 79   NGY = 79   NGZ = 83
  (NGX  =320   NGY  =320   NGZ  =336)
  gives a total of 518003 points

 initial charge density was supplied:
 charge density of overlapping atoms calculated
 number of electron      22.0000000 magnetization 
 keeping initial charge density in first step


--------------------------------------------------------------------------------------------------------


 Maximum index for non-local projection operator         1620
 Maximum index for augmentation-charges            0 (set IRDMAX)


--------------------------------------------------------------------------------------------------------


 First call to EWALD:  gamma=   0.083
 Maximum number of real-space cells 3x 3x 3
 Maximum number of reciprocal cells 3x 3x 3

    FEWALD:  cpu time      0.0007: real time      0.0007


--------------------------------------- Iteration      1(   1)  ---------------------------------------


    POTLOK:  cpu time      0.1990: real time      0.1997
    SETDIJ:  cpu time      0.1032: real time      0.1032
    TRIAL :  cpu time      2.7763: real time      2.7766
    CORREC:  cpu time      0.0006: real time      0.0006
    --------------------------------------------
      LOOP:  cpu time      3.0809: real time      3.0826

 eigenvalue-minimisations  :   512
 total energy-change (2. order) :-0.6985348E+03  (-0.5745725E+03)
 number of electron      22.0000000 magnetization 
 augmentation part       22.0000000 magnetization 

 DIPCOR: dipole corrections for dipol
 direction  3 min pos     1,
 dipolmoment           0.000000      0.000000     -0.000040 electrons x Angstroem
 Tr[quadrupol]     -3688.731095

 energy correction for charged system         0.000000 eV
 dipol+quadrupol energy correction           -0.000000 eV
 added-field ion interaction          0.000044 eV  (added to PSCEN)


 Free energy of the ion-electron system (eV)
  ---------------------------------------------------
  alpha Z        PSCENC =         0.29607957
  Ewald energy   TEWEN  =       318.01082684
  -Hartree energ DENC   =     -2860.44585664
  -exchange      EXHF   =         0.00000000
  -V(xc)+E(xc)   XCENC  =        88.13790275
  PAW double counting   =      2456.41331976    -3396.89626064
  entropy T*S    EENTRO =        -0.00000000
  eigenvalues    EBANDS =       -81.09089208
  atomic energy  EATOM  =      2777.04005442
  ---------------------------------------------------
  free energy    TOTEN  =      -698.53482602 eV

  energy without entropy =     -698.53482602  energy(sigma->0) =     -698.53482602
  exchange ACFDT corr.  =         0.00000000  see jH, gK, PRB 81, 115126


--------------------------------------------------------------------------------------------------------




--------------------------------------- Iteration      1(   2)  ---------------------------------------


    TRIAL :  cpu time      3.0050: real time      3.0053
    CORREC:  cpu time      0.0003: real time      0.0003
    --------------------------------------------
      LOOP:  cpu time      3.0104: real time      3.0240

 eigenvalue-minimisations  :   512
 total energy-change (2. order) :-0.1143116E+03  (-0.1143116E+03)
 number of electron      22.0000000 magnetization 
 augmentation part       22.0000000 magnetization 

 DIPCOR: dipole corrections for dipol
 direction  3 min pos     1,
 dipolmoment           0.000000      0.000000     -0.000040 electrons x Angstroem
 Tr[quadrupol]     -3688.731095

 energy correction for charged system         0.000000 eV
 dipol+quadrupol energy correction           -0.000000 eV
 added-field ion interaction          0.000044 eV  (added to PSCEN)


 Free energy of the ion-electron system (eV)
  ---------------------------------------------------
  alpha Z        PSCENC =         0.29607957
  Ewald energy   TEWEN  =       318.01082684
  -Hartree energ DENC   =     -2860.44585664
  -exchange      EXHF   =         0.00000000
  -V(xc)+E(xc)   XCENC  =        88.13790275
  PAW double counting   =      2456.41331976    -3396.89626064
  entropy T*S    EENTRO =        -0.00000000
  eigenvalues    EBANDS =      -195.40249160
  atomic energy  EATOM  =      2777.04005442
  ---------------------------------------------------
  free energy    TOTEN  =      -812.84642553 eV

  energy without entropy =     -812.84642553  energy(sigma->0) =     -812.84642553
  exchange ACFDT corr.  =         0.00000000  see jH, gK, PRB 81, 115126


--------------------------------------------------------------------------------------------------------




--------------------------------------- Iteration      1(   3)  ---------------------------------------


    TRIAL :  cpu time      2.9476: real time      2.9478
    CORREC:  cpu time      0.0003: real time      0.0003
    --------------------------------------------
      LOOP:  cpu time      2.9539: real time      2.9654

 eigenvalue-minimisations  :   512
 total energy-change (2. order) :-0.1982939E+01  (-0.1982939E+01)
 number of electron      22.0000000 magnetization 
 augmentation part       22.0000000 magnetization 

 DIPCOR: dipole corrections for dipol
 direction  3 min pos     1,
 dipolmoment           0.000000      0.000000     -0.000040 electrons x Angstroem
 Tr[quadrupol]     -3688.731095

 energy correction for charged system         0.000000 eV
 dipol+quadrupol energy correction           -0.000000 eV
 added-field ion interaction          0.000044 eV  (added to PSCEN)


 Free energy of the ion-electron system (eV)
  ---------------------------------------------------
  alpha Z        PSCENC =         0.29607957
  Ewald energy   TEWEN  =       318.01082684
  -Hartree energ DENC   =     -2860.44585664
  -exchange      EXHF   =         0.00000000
  -V(xc)+E(xc)   XCENC  =        88.13790275
  PAW double counting   =      2456.41331976    -3396.89626064
  entropy T*S    EENTRO =        -0.00000000
  eigenvalues    EBANDS =      -197.38543027
  atomic energy  EATOM  =      2777.04005442
  ---------------------------------------------------
  free energy    TOTEN  =      -814.82936421 eV

  energy without entropy =     -814.82936421  energy(sigma->0) =     -814.82936421
  exchange ACFDT corr.  =         0.00000000  see jH, gK, PRB 81, 115126


--------------------------------------------------------------------------------------------------------




--------------------------------------- Iteration      1(   4)  ---------------------------------------


    TRIAL :  cpu time      2.9389: real time      2.9391
    CORREC:  cpu time      0.0003: real time      0.0003
    --------------------------------------------
      LOOP:  cpu time      2.9560: real time      2.9567

 eigenvalue-minimisations  :   512
 total energy-change (2. order) :-0.5966470E-02  (-0.5966486E-02)
 number of electron      22.0000000 magnetization 
 augmentation part       22.0000000 magnetization 

 DIPCOR: dipole corrections for dipol
 direction  3 min pos     1,
 dipolmoment           0.000000      0.000000     -0.000040 electrons x Angstroem
 Tr[quadrupol]     -3688.731095

 energy correction for charged system         0.000000 eV
 dipol+quadrupol energy correction           -0.000000 eV
 added-field ion interaction          0.000044 eV  (added to PSCEN)


 Free energy of the ion-electron system (eV)
  ---------------------------------------------------
  alpha Z        PSCENC =         0.29607957
  Ewald energy   TEWEN  =       318.01082684
  -Hartree energ DENC   =     -2860.44585664
  -exchange      EXHF   =         0.00000000
  -V(xc)+E(xc)   XCENC  =        88.13790275
  PAW double counting   =      2456.41331976    -3396.89626064
  entropy T*S    EENTRO =        -0.00000000
  eigenvalues    EBANDS =      -197.39139674
  atomic energy  EATOM  =      2777.04005442
  ---------------------------------------------------
  free energy    TOTEN  =      -814.83533068 eV

  energy without entropy =     -814.83533068  energy(sigma->0) =     -814.83533068
  exchange ACFDT corr.  =         0.00000000  see jH, gK, PRB 81, 115126


--------------------------------------------------------------------------------------------------------




--------------------------------------- Iteration      1(   5)  ---------------------------------------


    POTLOK:  cpu time      0.2093: real time      0.2093
    SETDIJ:  cpu time      0.3121: real time      0.3121
    TRIAL :  cpu time     33.9317: real time     33.9457
    CORREC:  cpu time      0.0005: real time      0.0005
    CHARGE:  cpu time      0.5967: real time      0.5976
    --------------------------------------------
      LOOP:  cpu time     35.0547: real time     35.0864

 eigenvalue-minimisations  :   512
 total energy-change (2. order) : 0.8113488E+03  (-0.1339118E+01)
 number of electron      22.0000023 magnetization 
 augmentation part       14.7015969 magnetization 

 DIPCOR: dipole corrections for dipol
 direction  3 min pos     1,
 dipolmoment           0.000000      0.000000     -0.000040 electrons x Angstroem
 Tr[quadrupol]     -3688.731095

 energy correction for charged system         0.000000 eV
 dipol+quadrupol energy correction           -0.000000 eV
 added-field ion interaction          0.000044 eV  (added to PSCEN)


 Free energy of the ion-electron system (eV)
  ---------------------------------------------------
  alpha Z        PSCENC =         0.29607957
  Ewald energy   TEWEN  =       318.01082684
  -Hartree energ DENC   =     -2860.44585664
  -exchange      EXHF   =        62.46154454
  -V(xc)+E(xc)   XCENC  =        66.45868139
  PAW double counting   =      2477.95002991    -2671.39240103
  entropy T*S    EENTRO =        -0.00000000
  eigenvalues    EBANDS =      -173.86552472
  atomic energy  EATOM  =      2777.04005442
  ---------------------------------------------------
  free energy    TOTEN  =        -3.48656573 eV

  energy without entropy =       -3.48656573  energy(sigma->0) =       -3.48656573
  exchange ACFDT corr.  =        -0.00000000  see jH, gK, PRB 81, 115126


--------------------------------------------------------------------------------------------------------




--------------------------------------- Iteration      1(   6)  ---------------------------------------


    POTLOK:  cpu time      0.1853: real time      0.1854
    SETDIJ:  cpu time      0.3347: real time      0.3347
    TRIAL :  cpu time     57.2955: real time     57.4219
    CORREC:  cpu time     32.1708: real time     32.1920
    CHARGE:  cpu time      0.5895: real time      0.5900
    --------------------------------------------
      LOOP:  cpu time     90.5993: real time     90.7480

 eigenvalue-minimisations  :     0
 total energy-change (2. order) : 0.1654064E+01  (-0.7624749E+00)
 number of electron      22.0000023 magnetization 
 augmentation part       14.3831502 magnetization 

 DIPCOR: dipole corrections for dipol
 direction  3 min pos     1,
 dipolmoment           0.000000      0.000000     -0.005562 electrons x Angstroem
 Tr[quadrupol]     -3688.538628

 energy correction for charged system         0.000000 eV
 dipol+quadrupol energy correction           -0.000000 eV
 added-field ion interaction          0.006150 eV  (added to PSCEN)


 Free energy of the ion-electron system (eV)
  ---------------------------------------------------
  alpha Z        PSCENC =         0.29603628
  Ewald energy   TEWEN  =       318.01082684
  -Hartree energ DENC   =     -2951.91116477
  -exchange      EXHF   =        59.99544943
  -V(xc)+E(xc)   XCENC  =        68.50210344
  PAW double counting   =      2685.16308515    -2893.69434965
  entropy T*S    EENTRO =        -0.00000000
  eigenvalues    EBANDS =       -65.23454247
  atomic energy  EATOM  =      2777.04005442
  ---------------------------------------------------
  free energy    TOTEN  =        -1.83250132 eV

  energy without entropy =       -1.83250132  energy(sigma->0) =       -1.83250132
  exchange ACFDT corr.  =        -0.00000000  see jH, gK, PRB 81, 115126


--------------------------------------------------------------------------------------------------------




--------------------------------------- Iteration      1(   7)  ---------------------------------------


    POTLOK:  cpu time      0.2403: real time      0.2404
    SETDIJ:  cpu time      0.3097: real time      0.3097
    TRIAL :  cpu time     30.6447: real time     30.6682
    CORREC:  cpu time     31.2172: real time     31.2406
    CHARGE:  cpu time      0.5862: real time      0.5869
    --------------------------------------------
      LOOP:  cpu time     63.0117: real time     63.0691

 eigenvalue-minimisations  :     0
 total energy-change (2. order) :-0.7926114E+00  (-0.3044249E+00)
 number of electron      22.0000023 magnetization 
 augmentation part       14.3783445 magnetization 

 DIPCOR: dipole corrections for dipol
 direction  3 min pos     1,
 dipolmoment           0.000000      0.000000     -0.001791 electrons x Angstroem
 Tr[quadrupol]     -3688.910500

 energy correction for charged system         0.000000 eV
 dipol+quadrupol energy correction           -0.000000 eV
 added-field ion interaction          0.001980 eV  (added to PSCEN)


 Free energy of the ion-electron system (eV)
  ---------------------------------------------------
  alpha Z        PSCENC =         0.29667417
  Ewald energy   TEWEN  =       318.01082684
  -Hartree energ DENC   =     -2905.63203321
  -exchange      EXHF   =        58.91283530
  -V(xc)+E(xc)   XCENC  =        67.11043582
  PAW double counting   =      2655.28172738    -2851.16607509
  entropy T*S    EENTRO =        -0.00000000
  eigenvalues    EBANDS =      -122.47955833
  atomic energy  EATOM  =      2777.04005442
  ---------------------------------------------------
  free energy    TOTEN  =        -2.62511271 eV

  energy without entropy =       -2.62511271  energy(sigma->0) =       -2.62511271
  exchange ACFDT corr.  =        -0.00000000  see jH, gK, PRB 81, 115126


--------------------------------------------------------------------------------------------------------




--------------------------------------- Iteration      1(   8)  ---------------------------------------


    POTLOK:  cpu time      0.2413: real time      0.2413
    SETDIJ:  cpu time      0.3046: real time      0.3046
    TRIAL :  cpu time     31.0999: real time     31.1221
    CORREC:  cpu time     31.9560: real time     31.9789
    CHARGE:  cpu time      0.5851: real time      0.5858
    --------------------------------------------
      LOOP:  cpu time     64.2114: real time     64.2577

 eigenvalue-minimisations  :     0
 total energy-change (2. order) :-0.3049753E+00  (-0.5303589E-01)
 number of electron      22.0000023 magnetization 
 augmentation part       14.4522879 magnetization 

 DIPCOR: dipole corrections for dipol
 direction  3 min pos     1,
 dipolmoment           0.000000      0.000000     -0.001408 electrons x Angstroem
 Tr[quadrupol]     -3688.899679

 energy correction for charged system         0.000000 eV
 dipol+quadrupol energy correction           -0.000000 eV
 added-field ion interaction          0.001557 eV  (added to PSCEN)


 Free energy of the ion-electron system (eV)
  ---------------------------------------------------
  alpha Z        PSCENC =         0.29866703
  Ewald energy   TEWEN  =       318.01082684
  -Hartree energ DENC   =     -2886.77189965
  -exchange      EXHF   =        58.58863481
  -V(xc)+E(xc)   XCENC  =        66.79742629
  PAW double counting   =      2627.77755513    -2823.35276793
  entropy T*S    EENTRO =        -0.00000000
  eigenvalues    EBANDS =      -141.31858495
  atomic energy  EATOM  =      2777.04005442
  ---------------------------------------------------
  free energy    TOTEN  =        -2.93008800 eV

  energy without entropy =       -2.93008800  energy(sigma->0) =       -2.93008800
  exchange ACFDT corr.  =        -0.00000000  see jH, gK, PRB 81, 115126


--------------------------------------------------------------------------------------------------------




--------------------------------------- Iteration      1(   9)  ---------------------------------------


    POTLOK:  cpu time      0.2421: real time      0.2421
    SETDIJ:  cpu time      0.3161: real time      0.3161
    TRIAL :  cpu time     31.1576: real time     31.1805
    CORREC:  cpu time     31.7367: real time     31.7611
    CHARGE:  cpu time      0.5862: real time      0.5868
    --------------------------------------------
      LOOP:  cpu time     64.0513: real time     64.1088

 eigenvalue-minimisations  :     0
 total energy-change (2. order) :-0.5256283E-01  (-0.5099397E-01)
 number of electron      22.0000023 magnetization 
 augmentation part       14.4109303 magnetization 

 DIPCOR: dipole corrections for dipol
 direction  3 min pos     1,
 dipolmoment           0.000000      0.000000     -0.000564 electrons x Angstroem
 Tr[quadrupol]     -3688.870258

 energy correction for charged system         0.000000 eV
 dipol+quadrupol energy correction           -0.000000 eV
 added-field ion interaction          0.000624 eV  (added to PSCEN)


 Free energy of the ion-electron system (eV)
  ---------------------------------------------------
  alpha Z        PSCENC =         0.29795781
  Ewald energy   TEWEN  =       318.01082684
  -Hartree energ DENC   =     -2893.85343826
  -exchange      EXHF   =        58.77702189
  -V(xc)+E(xc)   XCENC  =        67.06028983
  PAW double counting   =      2630.05540311    -2828.55606701
  entropy T*S    EENTRO =        -0.00000000
  eigenvalues    EBANDS =      -131.81469947
  atomic energy  EATOM  =      2777.04005442
  ---------------------------------------------------
  free energy    TOTEN  =        -2.98265084 eV

  energy without entropy =       -2.98265084  energy(sigma->0) =       -2.98265084
  exchange ACFDT corr.  =        -0.00000000  see jH, gK, PRB 81, 115126


--------------------------------------------------------------------------------------------------------




--------------------------------------- Iteration      1(  10)  ---------------------------------------


    POTLOK:  cpu time      0.2413: real time      0.2413
    SETDIJ:  cpu time      0.3035: real time      0.3037
    TRIAL :  cpu time     30.4683: real time     30.4923
    CORREC:  cpu time     31.6807: real time     31.7062
    CHARGE:  cpu time      0.5871: real time      0.5874
    --------------------------------------------
      LOOP:  cpu time     63.3055: real time     63.3560

 eigenvalue-minimisations  :     0
 total energy-change (2. order) :-0.5094901E-01  (-0.3202101E-01)
 number of electron      22.0000023 magnetization 
 augmentation part       14.3970996 magnetization 

 DIPCOR: dipole corrections for dipol
 direction  3 min pos     1,
 dipolmoment           0.000000      0.000000     -0.000124 electrons x Angstroem
 Tr[quadrupol]     -3688.859488

 energy correction for charged system         0.000000 eV
 dipol+quadrupol energy correction           -0.000000 eV
 added-field ion interaction          0.000137 eV  (added to PSCEN)


 Free energy of the ion-electron system (eV)
  ---------------------------------------------------
  alpha Z        PSCENC =         0.29672821
  Ewald energy   TEWEN  =       318.01082684
  -Hartree energ DENC   =     -2887.15729686
  -exchange      EXHF   =        58.62098989
  -V(xc)+E(xc)   XCENC  =        66.87104493
  PAW double counting   =      2626.48970776    -2823.55009411
  entropy T*S    EENTRO =        -0.00000000
  eigenvalues    EBANDS =      -139.65556093
  atomic energy  EATOM  =      2777.04005442
  ---------------------------------------------------
  free energy    TOTEN  =        -3.03359985 eV

  energy without entropy =       -3.03359985  energy(sigma->0) =       -3.03359985
  exchange ACFDT corr.  =        -0.00000000  see jH, gK, PRB 81, 115126


--------------------------------------------------------------------------------------------------------




--------------------------------------- Iteration      1(  11)  ---------------------------------------


    POTLOK:  cpu time      0.2244: real time      0.2245
    SETDIJ:  cpu time      0.3022: real time      0.3022
    TRIAL :  cpu time     30.9029: real time     30.9449
    CORREC:  cpu time     31.3684: real time     31.3860
    CHARGE:  cpu time      0.5863: real time      0.5866
    --------------------------------------------
      LOOP:  cpu time     63.3960: real time     63.4667

 eigenvalue-minimisations  :     0
 total energy-change (2. order) :-0.3187892E-01  (-0.4076675E-02)
 number of electron      22.0000023 magnetization 
 augmentation part       14.4191089 magnetization 

 DIPCOR: dipole corrections for dipol
 direction  3 min pos     1,
 dipolmoment           0.000000      0.000000     -0.000020 electrons x Angstroem
 Tr[quadrupol]     -3688.848253

 energy correction for charged system         0.000000 eV
 dipol+quadrupol energy correction           -0.000000 eV
 added-field ion interaction          0.000022 eV  (added to PSCEN)


 Free energy of the ion-electron system (eV)
  ---------------------------------------------------
  alpha Z        PSCENC =         0.29604654
  Ewald energy   TEWEN  =       318.01082684
  -Hartree energ DENC   =     -2884.09003892
  -exchange      EXHF   =        58.56136635
  -V(xc)+E(xc)   XCENC  =        66.79929740
  PAW double counting   =      2624.53881900    -2820.95068762
  entropy T*S    EENTRO =        -0.00000000
  eigenvalues    EBANDS =      -143.27116278
  atomic energy  EATOM  =      2777.04005442
  ---------------------------------------------------
  free energy    TOTEN  =        -3.06547876 eV

  energy without entropy =       -3.06547876  energy(sigma->0) =       -3.06547876
  exchange ACFDT corr.  =        -0.00000000  see jH, gK, PRB 81, 115126


--------------------------------------------------------------------------------------------------------




--------------------------------------- Iteration      1(  12)  ---------------------------------------


    POTLOK:  cpu time      0.2206: real time      0.2206
    SETDIJ:  cpu time      0.3015: real time      0.3015
    TRIAL :  cpu time     30.4933: real time     30.5085
    CORREC:  cpu time     31.7507: real time     31.7657
    CHARGE:  cpu time      0.5851: real time      0.5853
    --------------------------------------------
      LOOP:  cpu time     63.3723: real time     63.4030

 eigenvalue-minimisations  :     0
 total energy-change (2. order) :-0.4061631E-02  (-0.4547460E-02)
 number of electron      22.0000023 magnetization 
 augmentation part       14.4126680 magnetization 

 DIPCOR: dipole corrections for dipol
 direction  3 min pos     1,
 dipolmoment           0.000000      0.000000     -0.000000 electrons x Angstroem
 Tr[quadrupol]     -3688.832047

 energy correction for charged system         0.000000 eV
 dipol+quadrupol energy correction           -0.000000 eV
 added-field ion interaction          0.000000 eV  (added to PSCEN)


 Free energy of the ion-electron system (eV)
  ---------------------------------------------------
  alpha Z        PSCENC =         0.29604119
  Ewald energy   TEWEN  =       318.01082684
  -Hartree energ DENC   =     -2886.48424071
  -exchange      EXHF   =        58.62152187
  -V(xc)+E(xc)   XCENC  =        66.88076423
  PAW double counting   =      2625.63752350    -2822.87875839
  entropy T*S    EENTRO =        -0.00000000
  eigenvalues    EBANDS =      -140.19327335
  atomic energy  EATOM  =      2777.04005442
  ---------------------------------------------------
  free energy    TOTEN  =        -3.06954040 eV

  energy without entropy =       -3.06954040  energy(sigma->0) =       -3.06954040
  exchange ACFDT corr.  =        -0.00000000  see jH, gK, PRB 81, 115126


--------------------------------------------------------------------------------------------------------




--------------------------------------- Iteration      1(  13)  ---------------------------------------


    POTLOK:  cpu time      0.2104: real time      0.2104
    SETDIJ:  cpu time      0.3027: real time      0.3028
    TRIAL :  cpu time     30.8989: real time     30.9126
    CORREC:  cpu time     31.6351: real time     31.6503
    CHARGE:  cpu time      0.5862: real time      0.5865
    --------------------------------------------
      LOOP:  cpu time     63.6458: real time     63.6840

 eigenvalue-minimisations  :     0
 total energy-change (2. order) :-0.4544887E-02  (-0.7176117E-03)
 number of electron      22.0000023 magnetization 
 augmentation part       14.4075553 magnetization 

 DIPCOR: dipole corrections for dipol
 direction  3 min pos     1,
 dipolmoment           0.000000      0.000000      0.000003 electrons x Angstroem
 Tr[quadrupol]     -3688.825402

 energy correction for charged system         0.000000 eV
 dipol+quadrupol energy correction           -0.000000 eV
 added-field ion interaction         -0.000004 eV  (added to PSCEN)


 Free energy of the ion-electron system (eV)
  ---------------------------------------------------
  alpha Z        PSCENC =         0.29603623
  Ewald energy   TEWEN  =       318.01082684
  -Hartree energ DENC   =     -2884.62868525
  -exchange      EXHF   =        58.57911100
  -V(xc)+E(xc)   XCENC  =        66.83339472
  PAW double counting   =      2623.88929877    -2820.87754655
  entropy T*S    EENTRO =        -0.00000000
  eigenvalues    EBANDS =      -142.21657546
  atomic energy  EATOM  =      2777.04005442
  ---------------------------------------------------
  free energy    TOTEN  =        -3.07408528 eV

  energy without entropy =       -3.07408528  energy(sigma->0) =       -3.07408528
  exchange ACFDT corr.  =        -0.00000000  see jH, gK, PRB 81, 115126


--------------------------------------------------------------------------------------------------------




--------------------------------------- Iteration      1(  14)  ---------------------------------------


    POTLOK:  cpu time      0.2037: real time      0.2038
    SETDIJ:  cpu time      0.3073: real time      0.3073
    TRIAL :  cpu time     30.5868: real time     30.6024
    CORREC:  cpu time     31.5565: real time     31.5725
    CHARGE:  cpu time      0.5867: real time      0.5870
    --------------------------------------------
      LOOP:  cpu time     63.2528: real time     63.2955

 eigenvalue-minimisations  :     0
 total energy-change (2. order) :-0.7176292E-03  (-0.2718907E-03)
 number of electron      22.0000023 magnetization 
 augmentation part       14.4124600 magnetization 

 DIPCOR: dipole corrections for dipol
 direction  3 min pos     1,
 dipolmoment           0.000000      0.000000      0.000005 electrons x Angstroem
 Tr[quadrupol]     -3688.829356

 energy correction for charged system         0.000000 eV
 dipol+quadrupol energy correction           -0.000000 eV
 added-field ion interaction         -0.000005 eV  (added to PSCEN)


 Free energy of the ion-electron system (eV)
  ---------------------------------------------------
  alpha Z        PSCENC =         0.29603222
  Ewald energy   TEWEN  =       318.01082684
  -Hartree energ DENC   =     -2883.86795233
  -exchange      EXHF   =        58.55981410
  -V(xc)+E(xc)   XCENC  =        66.80990610
  PAW double counting   =      2623.35528804    -2820.16002863
  entropy T*S    EENTRO =        -0.00000000
  eigenvalues    EBANDS =      -143.11874367
  atomic energy  EATOM  =      2777.04005442
  ---------------------------------------------------
  free energy    TOTEN  =        -3.07480291 eV

  energy without entropy =       -3.07480291  energy(sigma->0) =       -3.07480291
  exchange ACFDT corr.  =        -0.00000000  see jH, gK, PRB 81, 115126


--------------------------------------------------------------------------------------------------------




--------------------------------------- Iteration      1(  15)  ---------------------------------------


    POTLOK:  cpu time      0.2080: real time      0.2080
    SETDIJ:  cpu time      0.2996: real time      0.2996
    TRIAL :  cpu time     30.7228: real time     30.7390
    CORREC:  cpu time     31.7011: real time     31.7160
    CHARGE:  cpu time      0.5868: real time      0.5872
    --------------------------------------------
      LOOP:  cpu time     63.5277: real time     63.5734

 eigenvalue-minimisations  :     0
 total energy-change (2. order) :-0.2713531E-03  (-0.1829883E-03)
 number of electron      22.0000023 magnetization 
 augmentation part       14.4112485 magnetization 

 DIPCOR: dipole corrections for dipol
 direction  3 min pos     1,
 dipolmoment           0.000000      0.000000      0.000005 electrons x Angstroem
 Tr[quadrupol]     -3688.828031

 energy correction for charged system         0.000000 eV
 dipol+quadrupol energy correction           -0.000000 eV
 added-field ion interaction         -0.000006 eV  (added to PSCEN)


 Free energy of the ion-electron system (eV)
  ---------------------------------------------------
  alpha Z        PSCENC =         0.29603081
  Ewald energy   TEWEN  =       318.01082684
  -Hartree energ DENC   =     -2884.52086209
  -exchange      EXHF   =        58.57488297
  -V(xc)+E(xc)   XCENC  =        66.82994333
  PAW double counting   =      2623.72070655    -2820.72062202
  entropy T*S    EENTRO =        -0.00000000
  eigenvalues    EBANDS =      -142.30603509
  atomic energy  EATOM  =      2777.04005442
  ---------------------------------------------------
  free energy    TOTEN  =        -3.07507427 eV

  energy without entropy =       -3.07507427  energy(sigma->0) =       -3.07507427
  exchange ACFDT corr.  =        -0.00000000  see jH, gK, PRB 81, 115126


--------------------------------------------------------------------------------------------------------




--------------------------------------- Iteration      1(  16)  ---------------------------------------


    POTLOK:  cpu time      0.2064: real time      0.2064
    SETDIJ:  cpu time      0.3028: real time      0.3028
    TRIAL :  cpu time     30.5316: real time     30.5468
    CORREC:  cpu time     31.5085: real time     31.5235
    CHARGE:  cpu time      0.5871: real time      0.5874
    --------------------------------------------
      LOOP:  cpu time     63.1557: real time     63.1869

 eigenvalue-minimisations  :     0
 total energy-change (2. order) :-0.1828246E-03  (-0.5353934E-04)
 number of electron      22.0000023 magnetization 
 augmentation part       14.4101669 magnetization 

 DIPCOR: dipole corrections for dipol
 direction  3 min pos     1,
 dipolmoment           0.000000      0.000000      0.000005 electrons x Angstroem
 Tr[quadrupol]     -3688.828702

 energy correction for charged system         0.000000 eV
 dipol+quadrupol energy correction           -0.000000 eV
 added-field ion interaction         -0.000006 eV  (added to PSCEN)


 Free energy of the ion-electron system (eV)
  ---------------------------------------------------
  alpha Z        PSCENC =         0.29603039
  Ewald energy   TEWEN  =       318.01082684
  -Hartree energ DENC   =     -2884.46660513
  -exchange      EXHF   =        58.57282104
  -V(xc)+E(xc)   XCENC  =        66.82702253
  PAW double counting   =      2623.67423998    -2820.63441327
  entropy T*S    EENTRO =        -0.00000000
  eigenvalues    EBANDS =      -142.39523390
  atomic energy  EATOM  =      2777.04005442
  ---------------------------------------------------
  free energy    TOTEN  =        -3.07525709 eV

  energy without entropy =       -3.07525709  energy(sigma->0) =       -3.07525709
  exchange ACFDT corr.  =        -0.00000000  see jH, gK, PRB 81, 115126


--------------------------------------------------------------------------------------------------------




--------------------------------------- Iteration      1(  17)  ---------------------------------------


    POTLOK:  cpu time      0.2026: real time      0.2026
    SETDIJ:  cpu time      0.3095: real time      0.3095
    TRIAL :  cpu time     30.6575: real time     30.6734
    CORREC:  cpu time     31.1858: real time     31.2016
    CHARGE:  cpu time      0.5858: real time      0.5861
    --------------------------------------------
      LOOP:  cpu time     62.9528: real time     62.9956

 eigenvalue-minimisations  :     0
 total energy-change (2. order) :-0.5331425E-04  (-0.1665463E-04)
 number of electron      22.0000023 magnetization 
 augmentation part       14.4113974 magnetization 

 DIPCOR: dipole corrections for dipol
 direction  3 min pos     1,
 dipolmoment           0.000000      0.000000      0.000005 electrons x Angstroem
 Tr[quadrupol]     -3688.830648

 energy correction for charged system         0.000000 eV
 dipol+quadrupol energy correction           -0.000000 eV
 added-field ion interaction         -0.000006 eV  (added to PSCEN)


 Free energy of the ion-electron system (eV)
  ---------------------------------------------------
  alpha Z        PSCENC =         0.29603022
  Ewald energy   TEWEN  =       318.01082684
  -Hartree energ DENC   =     -2884.39637600
  -exchange      EXHF   =        58.57066639
  -V(xc)+E(xc)   XCENC  =        66.82407266
  PAW double counting   =      2623.58792491    -2820.51856766
  entropy T*S    EENTRO =        -0.00000000
  eigenvalues    EBANDS =      -142.48994219
  atomic energy  EATOM  =      2777.04005442
  ---------------------------------------------------
  free energy    TOTEN  =        -3.07531040 eV

  energy without entropy =       -3.07531040  energy(sigma->0) =       -3.07531040
  exchange ACFDT corr.  =        -0.00000000  see jH, gK, PRB 81, 115126


--------------------------------------------------------------------------------------------------------




--------------------------------------- Iteration      1(  18)  ---------------------------------------


    POTLOK:  cpu time      0.2032: real time      0.2032
    SETDIJ:  cpu time      0.3043: real time      0.3043
    TRIAL :  cpu time     30.5765: real time     30.5912
    CORREC:  cpu time     31.5293: real time     31.5462
    CHARGE:  cpu time      0.5874: real time      0.5877
    --------------------------------------------
      LOOP:  cpu time     63.2124: real time     63.2562

 eigenvalue-minimisations  :     0
 total energy-change (2. order) :-0.1663222E-04  (-0.2070192E-04)
 number of electron      22.0000023 magnetization 
 augmentation part       14.4105822 magnetization 

 DIPCOR: dipole corrections for dipol
 direction  3 min pos     1,
 dipolmoment           0.000000      0.000000      0.000005 electrons x Angstroem
 Tr[quadrupol]     -3688.830421

 energy correction for charged system         0.000000 eV
 dipol+quadrupol energy correction           -0.000000 eV
 added-field ion interaction         -0.000006 eV  (added to PSCEN)


 Free energy of the ion-electron system (eV)
  ---------------------------------------------------
  alpha Z        PSCENC =         0.29603015
  Ewald energy   TEWEN  =       318.01082684
  -Hartree energ DENC   =     -2884.58652929
  -exchange      EXHF   =        58.57497307
  -V(xc)+E(xc)   XCENC  =        66.82969050
  PAW double counting   =      2623.67358718    -2820.65820062
  entropy T*S    EENTRO =        -0.00000000
  eigenvalues    EBANDS =      -142.25575929
  atomic energy  EATOM  =      2777.04005442
  ---------------------------------------------------
  free energy    TOTEN  =        -3.07532704 eV

  energy without entropy =       -3.07532704  energy(sigma->0) =       -3.07532704
  exchange ACFDT corr.  =        -0.00000000  see jH, gK, PRB 81, 115126


--------------------------------------------------------------------------------------------------------




--------------------------------------- Iteration      1(  19)  ---------------------------------------


    POTLOK:  cpu time      0.2034: real time      0.2035
    SETDIJ:  cpu time      0.3047: real time      0.3047
    TRIAL :  cpu time     30.4396: real time     30.4550
    CORREC:  cpu time     31.9778: real time     31.9925
    CHARGE:  cpu time      0.5858: real time      0.5861
    --------------------------------------------
      LOOP:  cpu time     63.5201: real time     63.5644

 eigenvalue-minimisations  :     0
 total energy-change (2. order) :-0.2053191E-04  (-0.8254057E-05)
 number of electron      22.0000023 magnetization 
 augmentation part       14.4106530 magnetization 

 DIPCOR: dipole corrections for dipol
 direction  3 min pos     1,
 dipolmoment           0.000000      0.000000      0.000005 electrons x Angstroem
 Tr[quadrupol]     -3688.830825

 energy correction for charged system         0.000000 eV
 dipol+quadrupol energy correction           -0.000000 eV
 added-field ion interaction         -0.000006 eV  (added to PSCEN)


 Free energy of the ion-electron system (eV)
  ---------------------------------------------------
  alpha Z        PSCENC =         0.29602993
  Ewald energy   TEWEN  =       318.01082684
  -Hartree energ DENC   =     -2884.52069929
  -exchange      EXHF   =        58.57288039
  -V(xc)+E(xc)   XCENC  =        66.82710496
  PAW double counting   =      2623.59729168    -2820.56285701
  entropy T*S    EENTRO =        -0.00000000
  eigenvalues    EBANDS =      -142.33597949
  atomic energy  EATOM  =      2777.04005442
  ---------------------------------------------------
  free energy    TOTEN  =        -3.07534757 eV

  energy without entropy =       -3.07534757  energy(sigma->0) =       -3.07534757
  exchange ACFDT corr.  =        -0.00000000  see jH, gK, PRB 81, 115126


--------------------------------------------------------------------------------------------------------




--------------------------------------- Iteration      1(  20)  ---------------------------------------


    POTLOK:  cpu time      0.2033: real time      0.2033
    SETDIJ:  cpu time      0.3062: real time      0.3062
    TRIAL :  cpu time     30.5001: real time     30.5158
    CORREC:  cpu time     31.6371: real time     31.6536
    CHARGE:  cpu time      0.5859: real time      0.5862
    --------------------------------------------
      LOOP:  cpu time     63.2428: real time     63.2882

 eigenvalue-minimisations  :     0
 total energy-change (2. order) :-0.8200883E-05  (-0.2208053E-05)
 number of electron      22.0000023 magnetization 
 augmentation part       14.4103397 magnetization 

 DIPCOR: dipole corrections for dipol
 direction  3 min pos     1,
 dipolmoment           0.000000      0.000000      0.000005 electrons x Angstroem
 Tr[quadrupol]     -3688.831055

 energy correction for charged system         0.000000 eV
 dipol+quadrupol energy correction           -0.000000 eV
 added-field ion interaction         -0.000006 eV  (added to PSCEN)


 Free energy of the ion-electron system (eV)
  ---------------------------------------------------
  alpha Z        PSCENC =         0.29602989
  Ewald energy   TEWEN  =       318.01082684
  -Hartree energ DENC   =     -2884.55229093
  -exchange      EXHF   =        58.57363832
  -V(xc)+E(xc)   XCENC  =        66.82791761
  PAW double counting   =      2623.64576508    -2820.61701742
  entropy T*S    EENTRO =        -0.00000000
  eigenvalues    EBANDS =      -142.30027961
  atomic energy  EATOM  =      2777.04005442
  ---------------------------------------------------
  free energy    TOTEN  =        -3.07535577 eV

  energy without entropy =       -3.07535577  energy(sigma->0) =       -3.07535577
  exchange ACFDT corr.  =        -0.00000000  see jH, gK, PRB 81, 115126


--------------------------------------------------------------------------------------------------------




--------------------------------------- Iteration      1(  21)  ---------------------------------------


    POTLOK:  cpu time      0.2078: real time      0.2078
    SETDIJ:  cpu time      0.2982: real time      0.2982
    TRIAL :  cpu time     30.7086: real time     30.7242
    CORREC:  cpu time     31.4530: real time     31.4692
    CHARGE:  cpu time      0.5883: real time      0.5886
    --------------------------------------------
      LOOP:  cpu time     63.2649: real time     63.3096

 eigenvalue-minimisations  :     0
 total energy-change (2. order) :-0.2169289E-05  (-0.7412185E-06)
 number of electron      22.0000023 magnetization 
 augmentation part       14.4105985 magnetization 

 DIPCOR: dipole corrections for dipol
 direction  3 min pos     1,
 dipolmoment           0.000000      0.000000      0.000005 electrons x Angstroem
 Tr[quadrupol]     -3688.831236

 energy correction for charged system         0.000000 eV
 dipol+quadrupol energy correction           -0.000000 eV
 added-field ion interaction         -0.000006 eV  (added to PSCEN)


 Free energy of the ion-electron system (eV)
  ---------------------------------------------------
  alpha Z        PSCENC =         0.29602989
  Ewald energy   TEWEN  =       318.01082684
  -Hartree energ DENC   =     -2884.52034168
  -exchange      EXHF   =        58.57282827
  -V(xc)+E(xc)   XCENC  =        66.82681109
  PAW double counting   =      2623.66608397    -2820.62678596
  entropy T*S    EENTRO =        -0.00000000
  eigenvalues    EBANDS =      -142.34086477
  atomic energy  EATOM  =      2777.04005442
  ---------------------------------------------------
  free energy    TOTEN  =        -3.07535794 eV

  energy without entropy =       -3.07535794  energy(sigma->0) =       -3.07535794
  exchange ACFDT corr.  =        -0.00000000  see jH, gK, PRB 81, 115126


--------------------------------------------------------------------------------------------------------




--------------------------------------- Iteration      1(  22)  ---------------------------------------


    POTLOK:  cpu time      0.2000: real time      0.2000
    SETDIJ:  cpu time      0.3099: real time      0.3099
    TRIAL :  cpu time     30.9622: real time     30.9780
    CORREC:  cpu time     31.7436: real time     31.7587
    EDDIAG:  cpu time     30.5688: real time     30.5848
    CHARGE:  cpu time      0.5837: real time      0.5843
    --------------------------------------------
      LOOP:  cpu time     94.3788: real time     94.4372

 eigenvalue-minimisations  :     0
 total energy-change (2. order) :-0.7332824E-06  (-0.6087050E-06)
 number of electron      22.0000023 magnetization 
 augmentation part       14.4105643 magnetization 

 DIPCOR: dipole corrections for dipol
 direction  3 min pos     1,
 dipolmoment           0.000000      0.000000      0.000005 electrons x Angstroem
 Tr[quadrupol]     -3688.831065

 energy correction for charged system         0.000000 eV
 dipol+quadrupol energy correction           -0.000000 eV
 added-field ion interaction         -0.000006 eV  (added to PSCEN)


 Free energy of the ion-electron system (eV)
  ---------------------------------------------------
  alpha Z        PSCENC =         0.29602989
  Ewald energy   TEWEN  =       318.01082684
  -Hartree energ DENC   =     -2884.55435905
  -exchange      EXHF   =        58.57341026
  -V(xc)+E(xc)   XCENC  =        66.82788778
  PAW double counting   =      2623.70095664    -2820.67218714
  entropy T*S    EENTRO =        -0.00000000
  eigenvalues    EBANDS =      -142.29821895
  atomic energy  EATOM  =      2777.04005442
  ---------------------------------------------------
  free energy    TOTEN  =        -3.07535867 eV

  energy without entropy =       -3.07535867  energy(sigma->0) =       -3.07535867
  exchange ACFDT corr.  =        -0.00000000  see jH, gK, PRB 81, 115126


--------------------------------------------------------------------------------------------------------


  average scaling for gradient   1.0433


 average (electrostatic) potential at core
  the test charge radii are     0.9430
  (the norm of the test charge is              1.0000)
       1 -65.6299       2 -65.6299



 E-fermi :  -5.2288     XC(G=0):  -0.1229     alpha+bet : -0.0321

 Fermi energy:        -5.2288314614

 k-point     1 :       0.0000    0.0000    0.0000
  band No.  band energies     occupation 
      1      -7.4696      2.00000
      2      -7.0500      2.00000
      3      -7.0500      2.00000
      4      -6.5811      2.00000
      5      -6.5811      2.00000
      6      -6.3674      2.00000
      7      -6.3674      2.00000
      8      -6.0983      2.00000
      9      -6.0983      2.00000
     10      -5.9939      2.00000
     11      -5.4962      2.00000
     12      -2.5284      0.00000
     13      -0.8099      0.00000
     14      -0.8098      0.00000
     15      -0.3034      0.00000
     16       0.0783      0.00000
     17       0.3117      0.00000
     18       0.3142      0.00000
     19       0.3271      0.00000
     20       0.3415      0.00000
     21       0.3771      0.00000
     22       0.4130      0.00000
     23       0.5103      0.00000
     24       0.5918      0.00000
     25       0.6185      0.00000
     26       0.6209      0.00000
     27       0.6311      0.00000
     28       0.6545      0.00000
     29       0.6665      0.00000
     30       0.6732      0.00000
     31       0.6776      0.00000
     32       0.7041      0.00000
     33       0.7212      0.00000
     34       0.7867      0.00000
     35       0.8469      0.00000
     36       0.9182      0.00000
     37       0.9345      0.00000
     38       0.9698      0.00000
     39       0.9708      0.00000
     40       0.9837      0.00000
     41       1.0152      0.00000
     42       1.0214      0.00000
     43       1.0435      0.00000
     44       1.2053      0.00000
     45       1.2299      0.00000
     46       1.2564      0.00000
     47       1.3361      0.00000
     48       1.3370      0.00000
     49       1.3609      0.00000
     50       1.4494      0.00000
     51       1.4511      0.00000
     52       1.4758      0.00000
     53       1.5053      0.00000
     54       1.5473      0.00000
     55       1.5617      0.00000
     56       1.5822      0.00000
     57       1.5941      0.00000
     58       1.6048      0.00000
     59       1.6063      0.00000
     60       1.6183      0.00000
     61       1.6289      0.00000
     62       1.6303      0.00000
     63       1.6618      0.00000
     64       1.6784      0.00000
     65       1.6841      0.00000
     66       1.6845      0.00000
     67       1.6907      0.00000
     68       1.6907      0.00000
     69       1.7069      0.00000
     70       1.7070      0.00000
     71       1.7415      0.00000
     72       1.7541      0.00000
     73       1.7661      0.00000
     74       1.8013      0.00000
     75       1.8306      0.00000
     76       1.8699      0.00000
     77       1.8825      0.00000
     78       1.8831      0.00000
     79       1.9047      0.00000
     80       1.9216      0.00000
     81       1.9416      0.00000
     82       1.9436      0.00000
     83       1.9484      0.00000
     84       1.9620      0.00000
     85       1.9637      0.00000
     86       1.9666      0.00000
     87       1.9670      0.00000
     88       1.9815      0.00000
     89       1.9858      0.00000
     90       1.9970      0.00000
     91       2.0020      0.00000
     92       2.0103      0.00000
     93       2.0571      0.00000
     94       2.0794      0.00000
     95       2.1476      0.00000
     96       2.2185      0.00000
     97       2.2331      0.00000
     98       2.2467      0.00000
     99       2.4529      0.00000
    100       2.4818      0.00000
    101       2.4924      0.00000
    102       2.5190      0.00000
    103       2.5459      0.00000
    104       2.5833      0.00000
    105       2.6101      0.00000
    106       2.6162      0.00000
    107       2.6589      0.00000
    108       2.6831      0.00000
    109       2.6894      0.00000
    110       2.6948      0.00000
    111       2.7124      0.00000
    112       2.7418      0.00000
    113       2.7667      0.00000
    114       2.7675      0.00000
    115       2.7956      0.00000
    116       2.8127      0.00000
    117       2.8413      0.00000
    118       2.8597      0.00000
    119       2.8708      0.00000
    120       2.8865      0.00000
    121       2.9007      0.00000
    122       2.9029      0.00000
    123       2.9123      0.00000
    124       2.9149      0.00000
    125       2.9192      0.00000
    126       2.9250      0.00000
    127       2.9291      0.00000
    128       2.9494      0.00000
    129       2.9496      0.00000
    130       2.9510      0.00000
    131       2.9672      0.00000
    132       2.9817      0.00000
    133       2.9861      0.00000
    134       2.9905      0.00000
    135       2.9908      0.00000
    136       3.0246      0.00000
    137       3.0273      0.00000
    138       3.0592      0.00000
    139       3.0711      0.00000
    140       3.0780      0.00000
    141       3.1045      0.00000
    142       3.1083      0.00000
    143       3.1087      0.00000
    144       3.1209      0.00000
    145       3.1269      0.00000
    146       3.2074      0.00000
    147       3.2086      0.00000
    148       3.2223      0.00000
    149       3.2514      0.00000
    150       3.2655      0.00000
    151       3.2774      0.00000
    152       3.2866      0.00000
    153       3.2974      0.00000
    154       3.3181      0.00000
    155       3.3277      0.00000
    156       3.3408      0.00000
    157       3.3439      0.00000
    158       3.3511      0.00000
    159       3.3577      0.00000
    160       3.3594      0.00000
    161       3.3624      0.00000
    162       3.3639      0.00000
    163       3.3781      0.00000
    164       3.3839      0.00000
    165       3.4089      0.00000
    166       3.4264      0.00000
    167       3.4642      0.00000
    168       3.4853      0.00000
    169       3.5006      0.00000
    170       3.5276      0.00000
    171       3.5280      0.00000
    172       3.5427      0.00000
    173       3.5859      0.00000
    174       3.6007      0.00000
    175       3.6058      0.00000
    176       3.6066      0.00000
    177       3.6138      0.00000
    178       3.6218      0.00000
    179       3.6451      0.00000
    180       3.6535      0.00000
    181       3.6611      0.00000
    182       3.7083      0.00000
    183       3.7119      0.00000
    184       3.7305      0.00000
    185       3.7363      0.00000
    186       3.7421      0.00000
    187       3.7685      0.00000
    188       3.8191      0.00000
    189       3.8248      0.00000
    190       3.8923      0.00000
    191       3.9193      0.00000
    192       3.9197      0.00000
    193       3.9252      0.00000
    194       3.9281      0.00000
    195       3.9442      0.00000
    196       3.9614      0.00000
    197       3.9691      0.00000
    198       3.9980      0.00000
    199       4.0089      0.00000
    200       4.0749      0.00000
    201       4.1172      0.00000
    202       4.1252      0.00000
    203       4.1547      0.00000
    204       4.1716      0.00000
    205       4.1756      0.00000
    206       4.1831      0.00000
    207       4.1858      0.00000
    208       4.1882      0.00000
    209       4.2044      0.00000
    210       4.2415      0.00000
    211       4.2836      0.00000
    212       4.3007      0.00000
    213       4.3086      0.00000
    214       4.3109      0.00000
    215       4.3163      0.00000
    216       4.3202      0.00000
    217       4.3219      0.00000
    218       4.3233      0.00000
    219       4.3264      0.00000
    220       4.3337      0.00000
    221       4.3445      0.00000
    222       4.4002      0.00000
    223       4.4059      0.00000
    224       4.4168      0.00000
    225       4.4208      0.00000
    226       4.4274      0.00000
    227       4.4393      0.00000
    228       4.4398      0.00000
    229       4.4455      0.00000
    230       4.4476      0.00000
    231       4.4635      0.00000
    232       4.4694      0.00000
    233       4.4723      0.00000
    234       4.4833      0.00000
    235       4.4886      0.00000
    236       4.5138      0.00000
    237       4.5213      0.00000
    238       4.5250      0.00000
    239       4.5258      0.00000
    240       4.5269      0.00000
    241       4.5340      0.00000
    242       4.5404      0.00000
    243       4.5472      0.00000
    244       4.5509      0.00000
    245       4.5595      0.00000
    246       4.5967      0.00000
    247       4.6048      0.00000
    248       4.6054      0.00000
    249       4.6106      0.00000
    250       4.6156      0.00000
    251       4.6472      0.00000
    252       4.6513      0.00000
    253       4.6525      0.00000
    254       4.6628      0.00000
    255       4.6669      0.00000
    256       4.6852      0.00000


--------------------------------------------------------------------------------------------------------


 soft charge-density along one line, spin component           1
         0         1         2         3         4         5         6         7         8         9
 total charge-density along one line

 pseudopotential strength for first ion, spin component:           1
 -6.713  -0.000  -0.033   0.000   0.000  -2.139   0.000   0.023
 -0.000  -6.681   0.000   0.026   0.000   0.000  -2.161  -0.000
 -0.033   0.000  -6.674  -0.000   0.000   0.023  -0.000  -2.166
  0.000   0.026  -0.000  -6.681   0.000  -0.000  -0.019   0.000
  0.000   0.000   0.000   0.000  -6.706   0.000  -0.000  -0.000
 -2.139   0.000   0.023  -0.000   0.000   8.675  -0.000  -0.014
  0.000  -2.161  -0.000  -0.019  -0.000  -0.000   8.687   0.000
  0.023  -0.000  -2.166   0.000  -0.000  -0.014   0.000   8.691
 -0.000  -0.019   0.000  -2.161  -0.000   0.000   0.012  -0.000
  0.000  -0.000  -0.000  -0.000  -2.142   0.000   0.000   0.000
 -0.014  -0.000  -0.008   0.000  -0.000   0.003  -0.000   0.002
 -0.027  -0.000  -0.015   0.000  -0.000   0.004  -0.000   0.003
  0.025  -0.000   0.015  -0.000   0.023  -0.010  -0.000  -0.006
 -0.000  -0.023  -0.000   0.023  -0.000  -0.000   0.009   0.000
 -0.025  -0.000  -0.015  -0.000   0.023   0.010  -0.000   0.006
  0.028  -0.000   0.016   0.000   0.025  -0.007  -0.000  -0.004
  0.000  -0.025  -0.000   0.025   0.000  -0.000   0.005   0.000
 -0.028   0.000  -0.016  -0.000   0.025   0.007  -0.000   0.004
 total augmentation occupancy for first ion, spin component:           1
  1.996  -0.000  -0.003   0.000   0.000   0.007   0.000   0.013  -0.000  -0.000   0.062   0.012  -0.072   0.000   0.072   0.034
 -0.000   1.999   0.000   0.002   0.000   0.000  -0.009   0.000  -0.006  -0.000   0.000   0.000   0.000   0.039  -0.000   0.000
 -0.003   0.000   1.999   0.000  -0.000   0.013   0.000  -0.008   0.000   0.000   0.036   0.007  -0.042   0.000   0.042   0.020
  0.000   0.002   0.000   1.999  -0.000   0.000  -0.006   0.000  -0.009  -0.000   0.000   0.000  -0.000  -0.039   0.000  -0.000
  0.000   0.000  -0.000  -0.000   1.997  -0.000  -0.000   0.000   0.000  -0.002  -0.000  -0.000  -0.039   0.000  -0.039   0.033
  0.007   0.000   0.013   0.000  -0.000   0.006   0.000   0.004   0.000  -0.000  -0.082   0.011  -0.014   0.000   0.014   0.002
 -0.000  -0.009   0.000  -0.006  -0.000   0.000   0.002   0.000  -0.001   0.000   0.000   0.000   0.000   0.004   0.000   0.000
  0.013   0.000  -0.008   0.000   0.000   0.004   0.000   0.002   0.000  -0.000  -0.047   0.006  -0.008   0.000   0.008   0.001
  0.000  -0.006   0.000  -0.009   0.000   0.000  -0.001   0.000   0.002   0.000   0.000   0.000   0.000  -0.004   0.000   0.000
 -0.000  -0.000   0.000  -0.000  -0.002  -0.000   0.000  -0.000   0.000   0.003   0.000  -0.000  -0.004   0.000  -0.004   0.000
  0.062   0.000   0.036   0.000  -0.000  -0.082   0.000  -0.047   0.000   0.000   1.897  -0.232   0.224   0.000  -0.224  -0.024
  0.012   0.000   0.007   0.000  -0.000   0.011   0.000   0.006   0.000  -0.000  -0.232   0.029  -0.029   0.000   0.029   0.004
 -0.072   0.000  -0.042  -0.000  -0.039  -0.014   0.000  -0.008   0.000  -0.004   0.224  -0.029   0.042  -0.000  -0.031  -0.006
  0.000   0.039   0.000  -0.039   0.000   0.000   0.004   0.000  -0.004   0.000   0.000   0.000  -0.000   0.011   0.000   0.000
  0.072  -0.000   0.042   0.000  -0.039   0.014   0.000   0.008   0.000  -0.004  -0.224   0.029  -0.031   0.000   0.042   0.004
  0.034   0.000   0.020  -0.000   0.033   0.002   0.000   0.001   0.000   0.000  -0.024   0.004  -0.006   0.000   0.004   0.002
  0.000  -0.033   0.000   0.033   0.000   0.000  -0.000   0.000   0.000   0.000   0.000   0.000   0.000  -0.002  -0.000   0.000
 -0.034   0.000  -0.020   0.000   0.033  -0.002   0.000  -0.001   0.000   0.000   0.024  -0.004   0.004   0.000  -0.006  -0.001


------------------------ aborting loop because EDIFF is reached ----------------------------------------


    FORLOC:  cpu time      0.0008: real time      0.0008
    FORHF :  cpu time      1.6075: real time      1.6081
    FORNL :  cpu time      0.1209: real time      0.1211
    FORCOR:  cpu time      0.4513: real time      0.4513
    OFIELD:  cpu time      0.0001: real time      0.0001
    FORVDW:  cpu time      0.0050: real time      0.1855

 VOLUME and BASIS-vectors are now :
 -----------------------------------------------------------------------------
  energy-cutoff  :      520.00
  volume of cell :     9881.61
      direct lattice vectors                 reciprocal lattice vectors
    21.138852197  0.000000000  0.000000000     0.047306258  0.000000000  0.000000000
     0.000000000 21.138852197  0.000000000     0.000000000  0.047306258  0.000000000
     0.000000000  0.000000000 22.113885220     0.000000000  0.000000000  0.045220457

  length of vectors
    21.138852197 21.138852197 22.113885220     0.047306258  0.047306258  0.045220457


 FORCES acting on ions:
    Electron-Ion                     Ewald-Force                    Non-Local-Force
 -----------------------------------------------------------------------------------------------
   -.253E+03 0.253E+03 0.284E-04   0.243E+03 -.243E+03 -.530E-16   0.947E+01 -.947E+01 0.133E-19
   0.253E+03 -.253E+03 0.284E-04   -.243E+03 0.243E+03 -.111E-17   -.947E+01 0.947E+01 -.735E-20
 -----------------------------------------------------------------------------------------------
   0.464E-06 0.644E-07 0.524E-04   0.000E+00 0.000E+00 -.541E-16   0.000E+00 -.178E-14 0.598E-20


 POSITION                                       TOTAL-FORCE (eV/Angst)
 -----------------------------------------------------------------------------------
     11.36279     11.88995     13.59669        -0.028115      0.028115     -0.000000
      9.77606     13.47667     13.59669         0.028115     -0.028115      0.000000
 -----------------------------------------------------------------------------------
    total drift:                                0.000000      0.000000      0.000052


--------------------------------------------------------------------------------------------------------



  FREE ENERGIE OF THE ION-ELECTRON SYSTEM (eV)
  ---------------------------------------------------
  free  energy   TOTEN  =        -3.10005697 eV

  energy  without entropy=       -3.10005697  energy(sigma->0) =       -3.10005697



--------------------------------------------------------------------------------------------------------


    POTLOK:  cpu time      0.5150: real time      0.5151


--------------------------------------------------------------------------------------------------------


     LOOP+:  cpu time   1185.8812: real time   1187.0247
    4ORBIT:  cpu time      0.0000: real time      0.0000

 total amount of memory used by VASP MPI-rank0  1210297. kBytes
=======================================================================

   base      :      30000. kBytes
   nonlr-proj:       1117. kBytes
   fftplans  :      61791. kBytes
   grid      :      48291. kBytes
   one-center:         15. kBytes
   HF        :         64. kBytes
   wavefun   :       3207. kBytes
   fock_wrk  :    1065812. kBytes

  
  
 General timing and accounting informations for this job:
 ========================================================
  
                  Total CPU time used (sec):     1278.170
                            User time (sec):     1247.510
                          System time (sec):       30.660
                         Elapsed time (sec):     1287.736
  
                   Maximum memory used (kb):     2670700.
                   Average memory used (kb):          N/A
  
                          Minor page faults:      3565298
                          Major page faults:           50
                 Voluntary context switches:        46212
