 vasp.6.3.0 20Jan22 (build Apr  1 2022 16:44:48) complex                         
 executed on        HPECrayEX_GCC date 2022.12.06  08:29:52
 running   64 mpi-ranks, with    1 threads/rank
 distrk:  each k-point on   32 cores,    2 groups
 distr:  one band on NCORE=   4 cores,    8 groups


--------------------------------------------------------------------------------------------------------


 INCAR:
   SYSTEM = MgO-rocksalt
   ISMEAR = 0
   SIGMA = 0.05
   EDIFF = 1E-6
   ALGO = ALL
   ISTART = 0
   IBRION = -1
   NSW = 0
   ISYM = 2
   GGA = RE
   LUSE_VDW = .TRUE.
   AGGAC = 0.0
   ENCUT = 520
   PREC = Accurate
   LASPH = .TRUE.
   LREAL = Auto
   NELM = 200
   NELMIN = 8
   NCORE = 4
   KPAR = 2
   LWAVE = .FALSE.
   LCHARG = .FALSE.
   ISPIN = 2

 POTCAR:    PAW_PBE Cu 22Jun2005                  
 -----------------------------------------------------------------------------
|                                                                             |
|           W    W    AA    RRRRR   N    N  II  N    N   GGGG   !!!           |
|           W    W   A  A   R    R  NN   N  II  NN   N  G    G  !!!           |
|           W    W  A    A  R    R  N N  N  II  N N  N  G       !!!           |
|           W WW W  AAAAAA  RRRRR   N  N N  II  N  N N  G  GGG   !            |
|           WW  WW  A    A  R   R   N   NN  II  N   NN  G    G                |
|           W    W  A    A  R    R  N    N  II  N    N   GGGG   !!!           |
|                                                                             |
|     You use a magnetic or noncollinear calculation, but did not specify     |
|     the initial magnetic moment with the MAGMOM tag. Note that a            |
|     default of 1 will be used for all atoms. This ferromagnetic setup       |
|     may break the symmetry of the crystal, in particular it may rule        |
|     out finding an antiferromagnetic solution. Thence, we recommend         |
|     setting the initial magnetic moment manually or verifying carefully     |
|     that this magnetic setup is desired.                                    |
|                                                                             |
 -----------------------------------------------------------------------------

 -----------------------------------------------------------------------------
|                                                                             |
|               ----> ADVICE to this user running VASP <----                  |
|                                                                             |
|     You have switched on vdW-DFT.                                           |
|     This routine was written and supplied by Jiri Klimes. We recommend      |
|     that you carefully read and cite the following publications:            |
|       J. Klimes, D.R. Bowler, A. Michelides                                 |
|          J. Phys.: Cond Matt. 22 022201 (2010)                              |
|       J. Klimes, D.R. Bowler, A. Michelides                                 |
|          Phys. Rev. B. 83, 195131 (2011)                                    |
|     and references therein.                                                 |
|                                                                             |
 -----------------------------------------------------------------------------

 POTCAR:    PAW_PBE Cu 22Jun2005                  
   SHA256 =  0e71e558f37a4e8407882b4609ceaae59938afaad9ced71dfe8490308a0ab630 Cu/POTCAR             
   COPYR  = (c) Copyright 22Jun2005 Georg Kresse                                                    
   COPYR  = This file is part of the software VASP. Any use, copying, and all other rights are regul
   COPYR  = If you do not have a valid VASP license, you may not use, copy or distribute this file. 
   VRHFIN =Cu: d10 p1                                                                               
   LEXCH  = PE                                                                                      
   EATOM  =  1390.9808 eV,  102.2342 Ry                                                             
                                                                                                    
   TITEL  = PAW_PBE Cu 22Jun2005                                                                    
   LULTRA =        F    use ultrasoft PP ?                                                          
   IUNSCR =        1    unscreen: 0-lin 1-nonlin 2-no                                               
   RPACOR =    2.000    partial core radius                                                         
   POMASS =   63.546; ZVAL   =   11.000    mass and valenz                                          
   RCORE  =    2.300    outmost cutoff radius                                                       
   RWIGS  =    2.200; RWIGS  =    1.164    wigner-seitz radius (au A)                               
   ENMAX  =  295.446; ENMIN  =  221.585 eV                                                          
   ICORE  =        3    local potential                                                             
   LCOR   =        T    correct aug charges                                                         
   LPAW   =        T    paw PP                                                                      
   EAUG   =  586.980                                                                                
   DEXC   =    0.000                                                                                
   RMAX   =    2.344    core radius for proj-oper                                                   
   RAUG   =    1.300    factor for augmentation sphere                                              
   RDEP   =    2.302    radius for radial grids                                                     
   RDEPT  =    1.771    core radius for aug-charge                                                  
                                                                                                    
   Atomic configuration                                                                             
    9 entries                                                                                       
     n  l   j            E        occ.                                                              
     1  0  0.50     -8850.2468   2.0000                                                             
     2  0  0.50     -1062.3498   2.0000                                                             
     2  1  1.50      -916.8226   6.0000                                                             
     3  0  0.50      -114.6929   2.0000                                                             
     3  1  1.50       -72.1325   6.0000                                                             
     3  2  2.50        -5.0394  10.0000                                                             
     4  0  0.50        -4.6097   1.0000                                                             
     4  1  0.50        -4.0817   0.0000                                                             
     4  3  2.50        -1.3606   0.0000                                                             
   Description                                                                                      
     l       E           TYP  RCUT    TYP  RCUT                                                     
     2     -5.0393973     23  2.200                                                                 
     2     10.8846608     23  2.200                                                                 
     0     -4.6097109     23  2.200                                                                 
     0      8.2520465     23  2.200                                                                 
     1     -2.7211652     23  2.200                                                                 
     1     21.7055443     23  2.200                                                                 
     3      2.7211652     23  2.300                                                                 
  local pseudopotential read in
  partial core-charges read in
  partial kinetic energy density read in
  atomic valenz-charges read in
  non local Contribution for L=           2  read in
    real space projection operators read in
  non local Contribution for L=           2  read in
    real space projection operators read in
  non local Contribution for L=           0  read in
    real space projection operators read in
  non local Contribution for L=           0  read in
    real space projection operators read in
  non local Contribution for L=           1  read in
    real space projection operators read in
  non local Contribution for L=           1  read in
    real space projection operators read in
    PAW grid and wavefunctions read in

   number of l-projection  operators is LMAX  =           6
   number of lm-projection operators is LMMAX =          18

 -----------------------------------------------------------------------------
|                                                                             |
|               ----> ADVICE to this user running VASP <----                  |
|                                                                             |
|     You have a (more or less) 'small supercell' and for smaller cells       |
|     it is recommended to use the reciprocal-space projection scheme!        |
|     The real-space optimization is not efficient for small cells and it     |
|     is also less accurate ...                                               |
|     Therefore, set LREAL=.FALSE. in the INCAR file.                         |
|                                                                             |
 -----------------------------------------------------------------------------

 Optimization of the real space projectors (new method)

 maximal supplied QI-value         = 16.25
 optimisation between [QCUT,QGAM] = [ 11.54, 23.24] = [ 37.28,151.24] Ry 
 Optimized for a Real-space Cutoff    1.53 Angstroem

   l    n(q)    QCUT    max X(q) W(low)/X(q) W(high)/X(q)  e(spline) 
   2     10    11.539     4.610    0.96E-04    0.13E-03    0.19E-06
   2     10    11.539     8.522    0.16E-03    0.21E-03    0.28E-06
   0     11    11.539    51.609    0.45E-04    0.31E-04    0.11E-06
   0     11    11.539    27.747    0.39E-04    0.29E-04    0.10E-06
   1     10    11.539    20.408    0.70E-05    0.38E-04    0.18E-06
   1     10    11.539    13.425    0.66E-05    0.34E-04    0.17E-06
 -----------------------------------------------------------------------------
|                                                                             |
|               ----> ADVICE to this user running VASP <----                  |
|                                                                             |
|     You enforced a specific xc type in the INCAR file but a different       |
|     type was found in the POTCAR file.                                      |
|     I HOPE YOU KNOW WHAT YOU ARE DOING!                                     |
|                                                                             |
 -----------------------------------------------------------------------------

  PAW_PBE Cu 22Jun2005                  :
 energy of atom  1       EATOM=-1390.9808
 kinetic energy error for atom=    0.0037 (will be added to EATOM!!)


 POSCAR: au4
  positions in direct lattice
  No initial velocities read in
 exchange correlation table for  LEXCH =       40
   RHO(1)=    0.500       N(1)  =     2000
   RHO(2)=  100.500       N(2)  =     4000



--------------------------------------------------------------------------------------------------------


 ion  position               nearest neighbor table
   1  0.450  0.460  0.600-

  LATTYP: Found a simple cubic cell.
 ALAT       =    20.0000000000
  
  Lattice vectors:
  
 A1 = (  20.0000000000,   0.0000000000,   0.0000000000)
 A2 = (   0.0000000000,  20.0000000000,   0.0000000000)
 A3 = (   0.0000000000,   0.0000000000,  20.0000000000)


Analysis of symmetry for initial positions (statically):
=====================================================================
 Subroutine PRICEL returns:
 Original cell was already a primitive cell.
 

 Routine SETGRP: Setting up the symmetry group for a 
 simple cubic supercell.


 Subroutine GETGRP returns: Found 48 space group operations
 (whereof  1 operations were pure point group operations)
 out of a pool of 48 trial point group operations.


The static configuration has the point symmetry C_1 .
 The point group associated with its full space group is O_h .


Analysis of symmetry for dynamics (positions and initial velocities):
=====================================================================
 Subroutine PRICEL returns:
 Original cell was already a primitive cell.
 

 Routine SETGRP: Setting up the symmetry group for a 
 simple cubic supercell.


 Subroutine GETGRP returns: Found 48 space group operations
 (whereof  1 operations were pure point group operations)
 out of a pool of 48 trial point group operations.


The dynamic configuration has the point symmetry C_1 .
 The point group associated with its full space group is O_h .


Analysis of structural, dynamic, and magnetic symmetry:
=====================================================================
 Subroutine PRICEL returns:
 Original cell was already a primitive cell.
 

 Routine SETGRP: Setting up the symmetry group for a 
 simple cubic supercell.


 Subroutine GETGRP returns: Found 48 space group operations
 (whereof  1 operations were pure point group operations)
 out of a pool of 48 trial point group operations.


The overall configuration has the point symmetry C_1 .
 The point group associated with its full space group is O_h .


 Subroutine INISYM returns: Found 48 space group operations
 (whereof  1 operations are pure point group operations),
 and found     1 'primitive' translations


----------------------------------------------------------------------------------------

                                     Primitive cell                                     

  volume of cell :    8000.0000

  direct lattice vectors                    reciprocal lattice vectors
    20.000000000  0.000000000  0.000000000     0.050000000  0.000000000  0.000000000
     0.000000000 20.000000000  0.000000000     0.000000000  0.050000000  0.000000000
     0.000000000  0.000000000 20.000000000     0.000000000  0.000000000  0.050000000

  length of vectors
    20.000000000 20.000000000 20.000000000     0.050000000  0.050000000  0.050000000

  position of ions in fractional coordinates (direct lattice)
     0.450000000  0.460000000  0.600000000

  ion indices of the primitive-cell ions
   primitive index   ion index
                 1           1

----------------------------------------------------------------------------------------



 KPOINTS: KPOINTS created by Atomic Simulation Env

Automatic generation of k-mesh.
 Grid dimensions read from file:
 generate k-points for:    1    1    1

 Generating k-lattice:

  Cartesian coordinates                     Fractional coordinates (reciprocal lattice)
     0.050000000  0.000000000  0.000000000     1.000000000  0.000000000  0.000000000
     0.000000000  0.050000000  0.000000000     0.000000000  1.000000000  0.000000000
     0.000000000  0.000000000  0.050000000     0.000000000  0.000000000  1.000000000

  Length of vectors
     0.050000000  0.050000000  0.050000000

  Shift w.r.t. Gamma in fractional coordinates (k-lattice)
     0.000000000  0.000000000  0.000000000

 
 Subroutine IBZKPT returns following result:
 ===========================================
 
 Found      1 irreducible k-points:
 
 Following reciprocal coordinates:
            Coordinates               Weight
  0.000000  0.000000  0.000000      1.000000
 
 Following cartesian coordinates:
            Coordinates               Weight
  0.000000  0.000000  0.000000      1.000000
 


--------------------------------------------------------------------------------------------------------




 Dimension of arrays:
   k-points           NKPTS =      1   k-points in BZ     NKDIM =      1   number of bands    NBANDS=     16
   number of dos      NEDOS =    301   number of ions     NIONS =      1
   non local maximal  LDIM  =      6   non local SUM 2l+1 LMDIM =     18
   total plane-waves  NPLWV = ******
   max r-space proj   IRMAX =   6426   max aug-charges    IRDMAX=  12418
   dimension x,y,z NGX =   150 NGY =  150 NGZ =  150
   dimension x,y,z NGXF=   300 NGYF=  300 NGZF=  300
   support grid    NGXF=   300 NGYF=  300 NGZF=  300
   ions per type =               1
   NGX,Y,Z   is equivalent  to a cutoff of  12.47, 12.47, 12.47 a.u.
   NGXF,Y,Z  is equivalent  to a cutoff of  24.94, 24.94, 24.94 a.u.

 SYSTEM =  MgO-rocksalt                            
 POSCAR =  au4                                     

 Startparameter for this run:
   NWRITE =      2    write-flag & timer
   PREC   = accura    normal or accurate (medium, high low for compatibility)
   ISTART =      0    job   : 0-new  1-cont  2-samecut
   ICHARG =      2    charge: 1-file 2-atom 10-const
   ISPIN  =      2    spin polarized calculation?
   LNONCOLLINEAR =      F non collinear calculations
   LSORBIT =      F    spin-orbit coupling
   INIWAV =      1    electr: 0-lowe 1-rand  2-diag
   LASPH  =      T    aspherical Exc in radial PAW
 Electronic Relaxation 1
   ENCUT  =  520.0 eV  38.22 Ry    6.18 a.u.  37.19 37.19 37.19*2*pi/ulx,y,z
   ENINI  =  520.0     initial cutoff
   ENAUG  =  587.0 eV  augmentation charge cutoff
   NELM   =    200;   NELMIN=  8; NELMDL= -5     # of ELM steps 
   EDIFF  = 0.1E-05   stopping-criterion for ELM
   LREAL  =      T    real-space projection
   NLSPLINE    = F    spline interpolate recip. space projectors
   LCOMPAT=      F    compatible to vasp.4.4
   GGA_COMPAT  = T    GGA compatible to vasp.4.4-vasp.4.6
   LMAXPAW     = -100 max onsite density
   LMAXMIX     =    2 max onsite mixed and CHGCAR
   VOSKOWN=      0    Vosko Wilk Nusair interpolation
   ROPT   =   -0.00025
 Ionic relaxation
   EDIFFG = 0.1E-04   stopping-criterion for IOM
   NSW    =      0    number of steps for IOM
   NBLOCK =      1;   KBLOCK =      1    inner block; outer block 
   IBRION =     -1    ionic relax: 0-MD 1-quasi-New 2-CG
   NFREE  =      0    steps in history (QN), initial steepest desc. (CG)
   ISIF   =      2    stress and relaxation
   IWAVPR =     10    prediction:  0-non 1-charg 2-wave 3-comb
   ISYM   =      2    0-nonsym 1-usesym 2-fastsym
   LCORR  =      T    Harris-Foulkes like correction to forces

   POTIM  = 0.5000    time-step for ionic-motion
   TEIN   =    0.0    initial temperature
   TEBEG  =    0.0;   TEEND  =   0.0 temperature during run
   SMASS  =  -3.00    Nose mass-parameter (am)
   estimated Nose-frequenzy (Omega)   =  0.10E-29 period in steps = 0.13E+47 mass=  -0.914E-26a.u.
   SCALEE = 1.0000    scale energy and forces
   NPACO  =    256;   APACO  = 10.0  distance and # of slots for P.C.
   PSTRESS=    0.0 pullay stress

  Mass of Ions in am
   POMASS =  63.55
  Ionic Valenz
   ZVAL   =  11.00
  Atomic Wigner-Seitz radii
   RWIGS  =  -1.00
  virtual crystal weights 
   VCA    =   1.00
   NELECT =      11.0000    total number of electrons
   NUPDOWN=      -1.0000    fix difference up-down

 DOS related values:
   EMIN   =  10.00;   EMAX   =-10.00  energy-range for DOS
   EFERMI =   0.00
   ISMEAR =     0;   SIGMA  =   0.05  broadening in eV -4-tet -1-fermi 0-gaus

 Electronic relaxation 2 (details)
   IALGO  =     58    algorithm
   LDIAG  =      T    sub-space diagonalisation (order eigenvalues)
   LSUBROT=      F    optimize rotation matrix (better conditioning)
   TURBO    =      0    0=normal 1=particle mesh
   IRESTART =      0    0=no restart 2=restart with 2 vectors
   NREBOOT  =      0    no. of reboots
   NMIN     =      0    reboot dimension
   EREF     =   0.00    reference energy to select bands
   IMIX   =      4    mixing-type and parameters
     AMIX     =   0.40;   BMIX     =  1.00
     AMIX_MAG =   1.60;   BMIX_MAG =  1.00
     AMIN     =   0.10
     WC   =   100.;   INIMIX=   1;  MIXPRE=   1;  MAXMIX= -45

 Intra band minimization:
   WEIMIN = 0.0000     energy-eigenvalue tresh-hold
   EBREAK =  0.16E-07  absolut break condition
   DEPER  =   0.30     relativ break condition  

   TIME   =   0.40     timestep for ELM

  volume/ion in A,a.u.               =    8000.00     53986.66
  Fermi-wavevector in a.u.,A,eV,Ry     =   0.182044  0.344013  0.450896  0.033140
  Thomas-Fermi vector in A             =   0.909791

 Write flags
   LWAVE        =      F    write WAVECAR
   LDOWNSAMPLE  =      F    k-point downsampling of WAVECAR
   LCHARG       =      F    write CHGCAR
   LVTOT        =      F    write LOCPOT, total local potential
   LVHAR        =      F    write LOCPOT, Hartree potential only
   LELF         =      F    write electronic localiz. function (ELF)
   LORBIT       =      0    0 simple, 1 ext, 2 COOP (PROOUT), +10 PAW based schemes


 Dipole corrections
   LMONO  =      F    monopole corrections only (constant potential shift)
   LDIPOL =      F    correct potential (dipole corrections)
   IDIPOL =      0    1-x, 2-y, 3-z, 4-all directions 
   EPSILON=  1.0000000 bulk dielectric constant

 Exchange correlation treatment:
   GGA     =    RE    GGA type
   LEXCH   =    40    internal setting for exchange type
   LIBXC   =     F    Libxc                    
   VOSKOWN =     0    Vosko Wilk Nusair interpolation
   LHFCALC =     F    Hartree Fock is set to
   LHFONE  =     F    Hartree Fock one center treatment
   AEXX    =    0.0000 exact exchange contribution

 vdW DFT:
   LUSE_VDW   =     T    switch on vdW DFT
   Zab_VDW    =-.8491    correlation parameter
   PARAM1     =0.1234
   PARAM2     =1.0000
   PARAM3     =0.0000
   -- rVV10 --
   BPARAM     = 6.3000
   CPARAM     = 0.0093

 Linear response parameters
   LEPSILON=     F    determine dielectric tensor
   LRPA    =     F    only Hartree local field effects (RPA)
   LNABLA  =     F    use nabla operator in PAW spheres
   LVEL    =     F    velocity operator in full k-point grid
   CSHIFT  =0.1000    complex shift for real part using Kramers Kronig
   OMEGAMAX=  -1.0    maximum frequency
   DEG_THRESHOLD= 0.2000000E-02 threshold for treating states as degnerate
   RTIME   =   -0.100 relaxation time in fs
  (WPLASMAI=    0.000 imaginary part of plasma frequency in eV, 0.658/RTIME)
   DFIELD  = 0.0000000 0.0000000 0.0000000 field for delta impulse in time

  Optional k-point grid parameters
   LKPOINTS_OPT  =     F    use optional k-point grid
   KPOINTS_OPT_MODE=     1    mode for optional k-point grid

 Orbital magnetization related:
   ORBITALMAG=     F  switch on orbital magnetization
   LCHIMAG   =     F  perturbation theory with respect to B field
   DQ        =  0.001000  dq finite difference perturbation B field
   LLRAUG    =     F  two centre corrections for induced B field



--------------------------------------------------------------------------------------------------------


 Static calculation
 charge density and potential will be updated during run
 spin polarized calculation
 Conjugate gradient for all bands (Freysoldt, et al. PRB 79, 241103 (2009))
 preconditioned conjugated gradient                                        
 perform sub-space diagonalisation
    before iterative eigenvector-optimisation
 modified Broyden-mixing scheme, WC =      100.0
 initial mixing is a Kerker type mixing with AMIX =  0.4000 and BMIX =      1.0000
 Hartree-type preconditioning will be used
 using additional bands           10
 real space projection scheme for non local part
 use partial core corrections
 no Harris-corrections to forces 
 use gradient corrections 
 use of overlap-Matrix (Vanderbilt PP)
 Gauss-broadening in eV      SIGMA  =   0.05


--------------------------------------------------------------------------------------------------------


  energy-cutoff  :      520.00
  volume of cell :     8000.00
      direct lattice vectors                 reciprocal lattice vectors
    20.000000000  0.000000000  0.000000000     0.050000000  0.000000000  0.000000000
     0.000000000 20.000000000  0.000000000     0.000000000  0.050000000  0.000000000
     0.000000000  0.000000000 20.000000000     0.000000000  0.000000000  0.050000000

  length of vectors
    20.000000000 20.000000000 20.000000000     0.050000000  0.050000000  0.050000000



 k-points in units of 2pi/SCALE and weight: KPOINTS created by Atomic Simulation Env
   0.00000000  0.00000000  0.00000000       1.000

 k-points in reciprocal lattice and weights: KPOINTS created by Atomic Simulation Env
   0.00000000  0.00000000  0.00000000       1.000

 position of ions in fractional coordinates (direct lattice) 
   0.45000000  0.46000000  0.60000000

 position of ions in cartesian coordinates  (Angst):
   9.00000000  9.20000000 12.00000000



--------------------------------------------------------------------------------------------------------


 k-point   1 :   0.0000 0.0000 0.0000  plane waves:  215503

 maximum and minimum number of plane-waves per node :     53900    53857

 maximum number of plane-waves:    215503
 maximum index in each direction: 
   IXMAX=   37   IYMAX=   37   IZMAX=   37
   IXMIN=  -37   IYMIN=  -37   IZMIN=  -37


 real space projection operators:
  total allocation   :        868.22 KBytes
  max/ min on nodes  :        217.97        216.14


 parallel 3D FFT for wavefunctions:
    minimum data exchange during FFTs selected (reduces bandwidth)
 parallel 3D FFT for charge:
    minimum data exchange during FFTs selected (reduces bandwidth)


 total amount of memory used by VASP MPI-rank0   229639. kBytes
=======================================================================

   base      :      30000. kBytes
   nonlr-proj:        373. kBytes
   fftplans  :      55167. kBytes
   grid      :     133718. kBytes
   one-center:         31. kBytes
   wavefun   :      10350. kBytes

     INWAV:  cpu time      0.0000: real time      0.0000
 Broyden mixing: mesh for mixing (old mesh)
   NGX = 75   NGY = 75   NGZ = 75
  (NGX  =300   NGY  =300   NGZ  =300)
  gives a total of 421875 points

 initial charge density was supplied:
 charge density of overlapping atoms calculated
 number of electron      11.0000000 magnetization       1.0000000
 keeping initial charge density in first step


--------------------------------------------------------------------------------------------------------


 Maximum index for non-local projection operator         1537
 Maximum index for augmentation-charges          481 (set IRDMAX)


--------------------------------------------------------------------------------------------------------


 First call to EWALD:  gamma=   0.089
 Maximum number of real-space cells 3x 3x 3
 Maximum number of reciprocal cells 3x 3x 3

    FEWALD:  cpu time      0.0015: real time      0.0015


--------------------------------------- Iteration      1(   1)  ---------------------------------------


vdW kernel read from vdw_kernel.bindat
  0.0000  0.2424  0.5071  0.7962  1.1119  1.4567  1.8333  2.2446  2.6937  3.1842
  3.7199  4.3049  4.9438  5.6415  6.4036  7.2358  8.1446  9.1372 10.2212 11.4050
 12.6979 14.1099 15.6519 17.3360 19.1751 21.1837 23.3773 25.7729 28.3892 31.2465
 34.3669 37.7748 41.4965 45.5611 50.0000

    POTLOK:  cpu time     12.8296: real time     12.8318
    SETDIJ:  cpu time      0.3890: real time      0.3891
    TRIAL :  cpu time      1.0631: real time      1.3505
    CORREC:  cpu time      0.0005: real time      0.0005
    --------------------------------------------
      LOOP:  cpu time     14.2955: real time     14.5855

 eigenvalue-minimisations  :    64
 total energy-change (2. order) : 0.5988571E+02  (-0.1318426E+03)
 number of electron      11.0000000 magnetization       1.0000000
 augmentation part       11.0000000 magnetization       1.0000000

 Free energy of the ion-electron system (eV)
  ---------------------------------------------------
  alpha Z        PSCENC =         0.09141600
  Ewald energy   TEWEN  =      -123.59085203
  -Hartree energ DENC   =     -1150.60996194
  -exchange      EXHF   =         0.00000000
  -V(xc)+E(xc)   XCENC  =        42.63978803
  PAW double counting   =      1230.15148625    -1334.59801673
  entropy T*S    EENTRO =        -0.03021100
  eigenvalues    EBANDS =        -1.08556525
  atomic energy  EATOM  =      1396.91762502
  ---------------------------------------------------
  free energy    TOTEN  =        59.88570833 eV

  energy without entropy =       59.91591934  energy(sigma->0) =       59.90081383


--------------------------------------------------------------------------------------------------------




--------------------------------------- Iteration      1(   2)  ---------------------------------------


    TRIAL :  cpu time      1.3895: real time      1.3896
    CORREC:  cpu time      0.0002: real time      0.0002
    --------------------------------------------
      LOOP:  cpu time      1.3935: real time      1.4029

 eigenvalue-minimisations  :    96
 total energy-change (2. order) :-0.2430410E+02  (-0.1081395E+02)
 number of electron      11.0000000 magnetization       1.0000000
 augmentation part       11.0000000 magnetization       1.0000000

 Free energy of the ion-electron system (eV)
  ---------------------------------------------------
  alpha Z        PSCENC =         0.09141600
  Ewald energy   TEWEN  =      -123.59085203
  -Hartree energ DENC   =     -1150.60996194
  -exchange      EXHF   =         0.00000000
  -V(xc)+E(xc)   XCENC  =        42.63978803
  PAW double counting   =      1230.15148625    -1334.59801673
  entropy T*S    EENTRO =        -0.03291060
  eigenvalues    EBANDS =       -25.38696148
  atomic energy  EATOM  =      1396.91762502
  ---------------------------------------------------
  free energy    TOTEN  =        35.58161251 eV

  energy without entropy =       35.61452311  energy(sigma->0) =       35.59806781


--------------------------------------------------------------------------------------------------------




--------------------------------------- Iteration      1(   3)  ---------------------------------------


    TRIAL :  cpu time      1.5751: real time      1.5753
    CORREC:  cpu time      0.0001: real time      0.0001
    --------------------------------------------
      LOOP:  cpu time      1.5786: real time      1.5856

 eigenvalue-minimisations  :   112
 total energy-change (2. order) :-0.3017790E+02  (-0.2397727E+02)
 number of electron      11.0000000 magnetization       1.0000000
 augmentation part       11.0000000 magnetization       1.0000000

 Free energy of the ion-electron system (eV)
  ---------------------------------------------------
  alpha Z        PSCENC =         0.09141600
  Ewald energy   TEWEN  =      -123.59085203
  -Hartree energ DENC   =     -1150.60996194
  -exchange      EXHF   =         0.00000000
  -V(xc)+E(xc)   XCENC  =        42.63978803
  PAW double counting   =      1230.15148625    -1334.59801673
  entropy T*S    EENTRO =        -0.00000000
  eigenvalues    EBANDS =       -55.59777707
  atomic energy  EATOM  =      1396.91762502
  ---------------------------------------------------
  free energy    TOTEN  =         5.40370752 eV

  energy without entropy =        5.40370752  energy(sigma->0) =        5.40370752


--------------------------------------------------------------------------------------------------------




--------------------------------------- Iteration      1(   4)  ---------------------------------------


    TRIAL :  cpu time      1.2015: real time      1.2016
    CORREC:  cpu time      0.0002: real time      0.0002
    --------------------------------------------
      LOOP:  cpu time      1.2114: real time      1.2117

 eigenvalue-minimisations  :    80
 total energy-change (2. order) :-0.2173694E+01  (-0.2155027E+01)
 number of electron      11.0000000 magnetization       1.0000000
 augmentation part       11.0000000 magnetization       1.0000000

 Free energy of the ion-electron system (eV)
  ---------------------------------------------------
  alpha Z        PSCENC =         0.09141600
  Ewald energy   TEWEN  =      -123.59085203
  -Hartree energ DENC   =     -1150.60996194
  -exchange      EXHF   =         0.00000000
  -V(xc)+E(xc)   XCENC  =        42.63978803
  PAW double counting   =      1230.15148625    -1334.59801673
  entropy T*S    EENTRO =        -0.00069148
  eigenvalues    EBANDS =       -57.77077942
  atomic energy  EATOM  =      1396.91762502
  ---------------------------------------------------
  free energy    TOTEN  =         3.23001369 eV

  energy without entropy =        3.23070517  energy(sigma->0) =        3.23035943


--------------------------------------------------------------------------------------------------------




--------------------------------------- Iteration      1(   5)  ---------------------------------------


    TRIAL :  cpu time      1.2924: real time      1.2925
    CORREC:  cpu time      0.0002: real time      0.0002
    CHARGE:  cpu time      1.0762: real time      1.0764
    --------------------------------------------
      LOOP:  cpu time      2.3723: real time      2.3789

 eigenvalue-minimisations  :    88
 total energy-change (2. order) :-0.1255920E+00  (-0.1253859E+00)
 number of electron      11.0000023 magnetization       0.9985268
 augmentation part        7.2241621 magnetization      -0.0273121

 Free energy of the ion-electron system (eV)
  ---------------------------------------------------
  alpha Z        PSCENC =         0.09141600
  Ewald energy   TEWEN  =      -123.59085203
  -Hartree energ DENC   =     -1150.60996194
  -exchange      EXHF   =         0.00000000
  -V(xc)+E(xc)   XCENC  =        42.63978803
  PAW double counting   =      1230.15148625    -1334.59801673
  entropy T*S    EENTRO =        -0.00018187
  eigenvalues    EBANDS =       -57.89688098
  atomic energy  EATOM  =      1396.91762502
  ---------------------------------------------------
  free energy    TOTEN  =         3.10442174 eV

  energy without entropy =        3.10460361  energy(sigma->0) =        3.10451267


--------------------------------------------------------------------------------------------------------




--------------------------------------- Iteration      1(   6)  ---------------------------------------


    POTLOK:  cpu time     12.4186: real time     12.4206
    SETDIJ:  cpu time      0.4443: real time      0.4443
    TRIAL :  cpu time      0.6136: real time      0.6143
    CORREC:  cpu time     13.9870: real time     13.9883
    CHARGE:  cpu time      0.9883: real time      0.9884
    --------------------------------------------
      LOOP:  cpu time     28.4563: real time     28.4689

 eigenvalue-minimisations  :     0
 total energy-change (2. order) :-0.1730277E+00  (-0.2428055E-01)
 number of electron      11.0000023 magnetization       0.9994297
 augmentation part        7.1850566 magnetization      -0.0572030

 Free energy of the ion-electron system (eV)
  ---------------------------------------------------
  alpha Z        PSCENC =         0.09141600
  Ewald energy   TEWEN  =      -123.59085203
  -Hartree energ DENC   =     -1155.19764343
  -exchange      EXHF   =         0.00000000
  -V(xc)+E(xc)   XCENC  =        42.85045743
  PAW double counting   =      1231.00839946    -1336.93235080
  entropy T*S    EENTRO =        -0.00008882
  eigenvalues    EBANDS =       -52.21547579
  atomic energy  EATOM  =      1396.91762502
  ---------------------------------------------------
  free energy    TOTEN  =         2.93139400 eV

  energy without entropy =        2.93148282  energy(sigma->0) =        2.93143841


--------------------------------------------------------------------------------------------------------




--------------------------------------- Iteration      1(   7)  ---------------------------------------


    POTLOK:  cpu time     12.4167: real time     12.4181
    SETDIJ:  cpu time      0.4339: real time      0.4340
    TRIAL :  cpu time      0.6106: real time      0.6107
    CORREC:  cpu time     13.9990: real time     14.0008
    CHARGE:  cpu time      0.9883: real time      0.9884
    --------------------------------------------
      LOOP:  cpu time     28.4601: real time     28.4637

 eigenvalue-minimisations  :     0
 total energy-change (2. order) :-0.2456944E-01  (-0.1914768E-01)
 number of electron      11.0000023 magnetization       0.9999739
 augmentation part        7.1974247 magnetization      -0.1288678

 Free energy of the ion-electron system (eV)
  ---------------------------------------------------
  alpha Z        PSCENC =         0.09141600
  Ewald energy   TEWEN  =      -123.59085203
  -Hartree energ DENC   =     -1149.89010827
  -exchange      EXHF   =         0.00000000
  -V(xc)+E(xc)   XCENC  =        42.62829088
  PAW double counting   =      1227.53128777    -1331.86992777
  entropy T*S    EENTRO =        -0.00000423
  eigenvalues    EBANDS =       -58.91081822
  atomic energy  EATOM  =      1396.91762502
  ---------------------------------------------------
  free energy    TOTEN  =         2.90682455 eV

  energy without entropy =        2.90682878  energy(sigma->0) =        2.90682667


--------------------------------------------------------------------------------------------------------




--------------------------------------- Iteration      1(   8)  ---------------------------------------


    POTLOK:  cpu time     12.4224: real time     12.4240
    SETDIJ:  cpu time      0.4430: real time      0.4430
    TRIAL :  cpu time      0.6092: real time      0.6093
    CORREC:  cpu time     14.0075: real time     14.0086
    CHARGE:  cpu time      0.9900: real time      0.9900
    --------------------------------------------
      LOOP:  cpu time     28.4756: real time     28.4876

 eigenvalue-minimisations  :     0
 total energy-change (2. order) :-0.1912140E-01  (-0.3845639E-02)
 number of electron      11.0000023 magnetization       0.9999999
 augmentation part        7.2031578 magnetization      -0.1296959

 Free energy of the ion-electron system (eV)
  ---------------------------------------------------
  alpha Z        PSCENC =         0.09141600
  Ewald energy   TEWEN  =      -123.59085203
  -Hartree energ DENC   =     -1151.60968815
  -exchange      EXHF   =         0.00000000
  -V(xc)+E(xc)   XCENC  =        42.72087165
  PAW double counting   =      1230.22689074    -1335.04472276
  entropy T*S    EENTRO =        -0.00000001
  eigenvalues    EBANDS =       -56.82383307
  atomic energy  EATOM  =      1396.91762502
  ---------------------------------------------------
  free energy    TOTEN  =         2.88770316 eV

  energy without entropy =        2.88770317  energy(sigma->0) =        2.88770316


--------------------------------------------------------------------------------------------------------




--------------------------------------- Iteration      1(   9)  ---------------------------------------


    POTLOK:  cpu time     12.4321: real time     12.4336
    SETDIJ:  cpu time      0.4510: real time      0.4510
    TRIAL :  cpu time      0.6109: real time      0.6109
    CORREC:  cpu time     14.0176: real time     14.0196
    CHARGE:  cpu time      0.9873: real time      0.9873
    --------------------------------------------
      LOOP:  cpu time     28.5025: real time     28.5155

 eigenvalue-minimisations  :     0
 total energy-change (2. order) :-0.3861752E-02  (-0.4648533E-03)
 number of electron      11.0000023 magnetization       0.9999999
 augmentation part        7.1977607 magnetization      -0.1297137

 Free energy of the ion-electron system (eV)
  ---------------------------------------------------
  alpha Z        PSCENC =         0.09141600
  Ewald energy   TEWEN  =      -123.59085203
  -Hartree energ DENC   =     -1152.41734079
  -exchange      EXHF   =         0.00000000
  -V(xc)+E(xc)   XCENC  =        42.75749090
  PAW double counting   =      1232.21175588    -1337.25482874
  entropy T*S    EENTRO =        -0.00000000
  eigenvalues    EBANDS =       -55.83142482
  atomic energy  EATOM  =      1396.91762502
  ---------------------------------------------------
  free energy    TOTEN  =         2.88384141 eV

  energy without entropy =        2.88384141  energy(sigma->0) =        2.88384141


--------------------------------------------------------------------------------------------------------




--------------------------------------- Iteration      1(  10)  ---------------------------------------


    POTLOK:  cpu time     12.4372: real time     12.4389
    SETDIJ:  cpu time      0.4504: real time      0.4504
    TRIAL :  cpu time      0.6100: real time      0.6101
    CORREC:  cpu time     14.0086: real time     14.0092
    CHARGE:  cpu time      0.9877: real time      0.9882
    --------------------------------------------
      LOOP:  cpu time     28.4976: real time     28.5095

 eigenvalue-minimisations  :     0
 total energy-change (2. order) :-0.4658514E-03  (-0.1576103E-03)
 number of electron      11.0000023 magnetization       1.0000000
 augmentation part        7.1979439 magnetization      -0.1302725

 Free energy of the ion-electron system (eV)
  ---------------------------------------------------
  alpha Z        PSCENC =         0.09141600
  Ewald energy   TEWEN  =      -123.59085203
  -Hartree energ DENC   =     -1151.68169936
  -exchange      EXHF   =         0.00000000
  -V(xc)+E(xc)   XCENC  =        42.72600576
  PAW double counting   =      1231.89650943    -1336.72137429
  entropy T*S    EENTRO =        -0.00000000
  eigenvalues    EBANDS =       -56.75425497
  atomic energy  EATOM  =      1396.91762502
  ---------------------------------------------------
  free energy    TOTEN  =         2.88337555 eV

  energy without entropy =        2.88337555  energy(sigma->0) =        2.88337555


--------------------------------------------------------------------------------------------------------




--------------------------------------- Iteration      1(  11)  ---------------------------------------


    POTLOK:  cpu time     12.4245: real time     12.4255
    SETDIJ:  cpu time      0.4384: real time      0.4384
    TRIAL :  cpu time      0.6091: real time      0.6092
    CORREC:  cpu time     13.9870: real time     13.9877
    CHARGE:  cpu time      0.9882: real time      0.9883
    --------------------------------------------
      LOOP:  cpu time     28.4506: real time     28.4615

 eigenvalue-minimisations  :     0
 total energy-change (2. order) :-0.1574744E-03  (-0.2590970E-04)
 number of electron      11.0000023 magnetization       1.0000000
 augmentation part        7.1987503 magnetization      -0.1304191

 Free energy of the ion-electron system (eV)
  ---------------------------------------------------
  alpha Z        PSCENC =         0.09141600
  Ewald energy   TEWEN  =      -123.59085203
  -Hartree energ DENC   =     -1151.71733212
  -exchange      EXHF   =         0.00000000
  -V(xc)+E(xc)   XCENC  =        42.72735009
  PAW double counting   =      1232.24059657    -1337.06760129
  entropy T*S    EENTRO =        -0.00000000
  eigenvalues    EBANDS =       -56.71798416
  atomic energy  EATOM  =      1396.91762502
  ---------------------------------------------------
  free energy    TOTEN  =         2.88321808 eV

  energy without entropy =        2.88321808  energy(sigma->0) =        2.88321808


--------------------------------------------------------------------------------------------------------




--------------------------------------- Iteration      1(  12)  ---------------------------------------


    POTLOK:  cpu time     12.4006: real time     12.4016
    SETDIJ:  cpu time      0.4519: real time      0.4519
    TRIAL :  cpu time      0.6104: real time      0.6104
    CORREC:  cpu time     13.9635: real time     13.9647
    CHARGE:  cpu time      0.9884: real time      0.9884
    --------------------------------------------
      LOOP:  cpu time     28.4268: real time     28.4296

 eigenvalue-minimisations  :     0
 total energy-change (2. order) :-0.2585974E-04  (-0.1403769E-04)
 number of electron      11.0000023 magnetization       1.0000000
 augmentation part        7.1979235 magnetization      -0.1305076

 Free energy of the ion-electron system (eV)
  ---------------------------------------------------
  alpha Z        PSCENC =         0.09141600
  Ewald energy   TEWEN  =      -123.59085203
  -Hartree energ DENC   =     -1151.85277800
  -exchange      EXHF   =         0.00000000
  -V(xc)+E(xc)   XCENC  =        42.73290008
  PAW double counting   =      1232.45143481    -1337.31334903
  entropy T*S    EENTRO =        -0.00000000
  eigenvalues    EBANDS =       -56.55320463
  atomic energy  EATOM  =      1396.91762502
  ---------------------------------------------------
  free energy    TOTEN  =         2.88319222 eV

  energy without entropy =        2.88319222  energy(sigma->0) =        2.88319222


--------------------------------------------------------------------------------------------------------




--------------------------------------- Iteration      1(  13)  ---------------------------------------


    POTLOK:  cpu time     12.4005: real time     12.4022
    SETDIJ:  cpu time      0.4379: real time      0.4380
    TRIAL :  cpu time      0.6107: real time      0.6107
    CORREC:  cpu time     13.9705: real time     13.9721
    CHARGE:  cpu time      0.9890: real time      0.9890
    --------------------------------------------
      LOOP:  cpu time     28.4207: real time     28.4247

 eigenvalue-minimisations  :     0
 total energy-change (2. order) :-0.1410174E-04  (-0.1127858E-04)
 number of electron      11.0000023 magnetization       1.0000000
 augmentation part        7.1978468 magnetization      -0.1303400

 Free energy of the ion-electron system (eV)
  ---------------------------------------------------
  alpha Z        PSCENC =         0.09141600
  Ewald energy   TEWEN  =      -123.59085203
  -Hartree energ DENC   =     -1151.75973111
  -exchange      EXHF   =         0.00000000
  -V(xc)+E(xc)   XCENC  =        42.72867469
  PAW double counting   =      1232.45081379    -1337.28223440
  entropy T*S    EENTRO =        -0.00000000
  eigenvalues    EBANDS =       -56.67253385
  atomic energy  EATOM  =      1396.91762502
  ---------------------------------------------------
  free energy    TOTEN  =         2.88317812 eV

  energy without entropy =        2.88317812  energy(sigma->0) =        2.88317812


--------------------------------------------------------------------------------------------------------




--------------------------------------- Iteration      1(  14)  ---------------------------------------


    POTLOK:  cpu time     12.3862: real time     12.3880
    SETDIJ:  cpu time      0.4440: real time      0.4441
    TRIAL :  cpu time      0.6093: real time      0.6093
    CORREC:  cpu time     13.9638: real time     13.9649
    CHARGE:  cpu time      0.9898: real time      0.9898
    --------------------------------------------
      LOOP:  cpu time     28.3968: real time     28.4081

 eigenvalue-minimisations  :     0
 total energy-change (2. order) :-0.1104328E-04  (-0.1052634E-05)
 number of electron      11.0000023 magnetization       1.0000000
 augmentation part        7.1980542 magnetization      -0.1303760

 Free energy of the ion-electron system (eV)
  ---------------------------------------------------
  alpha Z        PSCENC =         0.09141600
  Ewald energy   TEWEN  =      -123.59085203
  -Hartree energ DENC   =     -1151.77861687
  -exchange      EXHF   =         0.00000000
  -V(xc)+E(xc)   XCENC  =        42.72913212
  PAW double counting   =      1232.51367651    -1337.34795651
  entropy T*S    EENTRO =        -0.00000000
  eigenvalues    EBANDS =       -56.65125717
  atomic energy  EATOM  =      1396.91762502
  ---------------------------------------------------
  free energy    TOTEN  =         2.88316708 eV

  energy without entropy =        2.88316708  energy(sigma->0) =        2.88316708


--------------------------------------------------------------------------------------------------------




--------------------------------------- Iteration      1(  15)  ---------------------------------------


    POTLOK:  cpu time     12.3837: real time     12.3849
    SETDIJ:  cpu time      0.4336: real time      0.4336
    TRIAL :  cpu time      0.6096: real time      0.6097
    CORREC:  cpu time     13.9666: real time     13.9682
    CHARGE:  cpu time      0.9885: real time      0.9886
    --------------------------------------------
      LOOP:  cpu time     28.3950: real time     28.3983

 eigenvalue-minimisations  :     0
 total energy-change (2. order) :-0.1051675E-05  (-0.8587572E-06)
 number of electron      11.0000023 magnetization       1.0000000
 augmentation part        7.1978927 magnetization      -0.1304329

 Free energy of the ion-electron system (eV)
  ---------------------------------------------------
  alpha Z        PSCENC =         0.09141600
  Ewald energy   TEWEN  =      -123.59085203
  -Hartree energ DENC   =     -1151.80838521
  -exchange      EXHF   =         0.00000000
  -V(xc)+E(xc)   XCENC  =        42.73040520
  PAW double counting   =      1232.52701669    -1337.37027415
  entropy T*S    EENTRO =        -0.00000000
  eigenvalues    EBANDS =       -56.61378549
  atomic energy  EATOM  =      1396.91762502
  ---------------------------------------------------
  free energy    TOTEN  =         2.88316602 eV

  energy without entropy =        2.88316602  energy(sigma->0) =        2.88316602


--------------------------------------------------------------------------------------------------------




--------------------------------------- Iteration      1(  16)  ---------------------------------------


    POTLOK:  cpu time     12.3862: real time     12.3878
    SETDIJ:  cpu time      0.4443: real time      0.4444
    TRIAL :  cpu time      0.6086: real time      0.6086
    CORREC:  cpu time     13.9594: real time     13.9614
    EDDIAG:  cpu time      0.2406: real time      0.2407
    CHARGE:  cpu time      0.9871: real time      0.9872
    --------------------------------------------
      LOOP:  cpu time     28.6295: real time     28.6424

 eigenvalue-minimisations  :     0
 total energy-change (2. order) :-0.8620486E-06  (-0.1630087E-06)
 number of electron      11.0000023 magnetization       1.0000000
 augmentation part        7.1978835 magnetization      -0.1303925

 Free energy of the ion-electron system (eV)
  ---------------------------------------------------
  alpha Z        PSCENC =         0.09141600
  Ewald energy   TEWEN  =      -123.59085203
  -Hartree energ DENC   =     -1151.78692374
  -exchange      EXHF   =         0.00000000
  -V(xc)+E(xc)   XCENC  =        42.72948479
  PAW double counting   =      1232.49815849    -1337.33541852
  entropy T*S    EENTRO =        -0.00000000
  eigenvalues    EBANDS =       -56.64032484
  atomic energy  EATOM  =      1396.91762502
  ---------------------------------------------------
  free energy    TOTEN  =         2.88316516 eV

  energy without entropy =        2.88316516  energy(sigma->0) =        2.88316516


--------------------------------------------------------------------------------------------------------


  average scaling for gradient   1.2657


 average (electrostatic) potential at core
  the test charge radii are     0.9430
  (the norm of the test charge is              1.0000)
       1 -73.8166



 E-fermi :  -4.8027     XC(G=0):  -0.1644     alpha+bet : -0.0198

 Fermi energy:        -4.8026800640

 spin component 1

 k-point     1 :       0.0000    0.0000    0.0000
  band No.  band energies     occupation 
      1      -5.2315      1.00000
      2      -5.2315      1.00000
      3      -5.2315      1.00000
      4      -5.2314      1.00000
      5      -5.2314      1.00000
      6      -5.0462      1.00000
      7      -1.0639      0.00000
      8      -1.0639      0.00000
      9      -1.0638      0.00000
     10      -0.2423      0.00000
     11       0.1755      0.00000
     12       0.3190      0.00000
     13       0.3190      0.00000
     14       0.3572      0.00000
     15       0.3572      0.00000
     16       0.3572      0.00000
 Fermi energy:        -4.8026800640

 spin component 2

 k-point     1 :       0.0000    0.0000    0.0000
  band No.  band energies     occupation 
      1      -5.0874      1.00000
      2      -5.0874      1.00000
      3      -5.0874      1.00000
      4      -5.0874      1.00000
      5      -5.0874      1.00000
      6      -4.4725      0.00000
      7      -0.8430      0.00000
      8      -0.8430      0.00000
      9      -0.8430      0.00000
     10      -0.1134      0.00000
     11       0.2318      0.00000
     12       0.3485      0.00000
     13       0.3492      0.00000
     14       0.3977      0.00000
     15       0.3983      0.00000
     16       0.3984      0.00000


--------------------------------------------------------------------------------------------------------


 soft charge-density along one line, spin component           1
         0         1         2         3         4         5         6         7         8         9
 total charge-density along one line

 soft charge-density along one line, spin component           2
         0         1         2         3         4         5         6         7         8         9
 total charge-density along one line

 pseudopotential strength for first ion, spin component:           1
-10.061   0.000   0.000   0.000  -0.000   0.638  -0.000  -0.000
  0.000 -10.061  -0.000  -0.000   0.000  -0.000   0.638   0.000
  0.000  -0.000 -10.061   0.000  -0.000  -0.000   0.000   0.638
  0.000  -0.000   0.000 -10.061   0.000  -0.000  -0.000  -0.000
 -0.000   0.000  -0.000   0.000 -10.061   0.000  -0.000   0.000
  0.638  -0.000  -0.000  -0.000   0.000   6.597   0.000  -0.000
 -0.000   0.638   0.000  -0.000  -0.000   0.000   6.597  -0.000
 -0.000   0.000   0.638  -0.000   0.000  -0.000  -0.000   6.597
 -0.000  -0.000  -0.000   0.638  -0.000  -0.000   0.000   0.000
  0.000  -0.000   0.000  -0.000   0.638  -0.000   0.000  -0.000
 -0.000   0.000   0.000  -0.000  -0.000   0.000   0.000  -0.000
 -0.000   0.000   0.000  -0.000  -0.000   0.000   0.000  -0.000
  0.000   0.000   0.000   0.000   0.000  -0.000   0.000  -0.000
  0.000  -0.000   0.000   0.000  -0.000   0.000   0.000  -0.000
 -0.000   0.000  -0.000   0.000   0.000   0.000   0.000  -0.000
  0.000   0.000   0.000   0.000   0.000  -0.000   0.000   0.000
  0.000  -0.000   0.000   0.000  -0.000   0.000  -0.000  -0.000
 -0.000   0.000  -0.000   0.000  -0.000  -0.000   0.000  -0.000
 pseudopotential strength for first ion, spin component:           2
-10.080   0.000   0.000   0.000  -0.000   0.644  -0.000  -0.000
  0.000 -10.080  -0.000  -0.000   0.000  -0.000   0.644   0.000
  0.000  -0.000 -10.080   0.000  -0.000  -0.000   0.000   0.644
  0.000  -0.000   0.000 -10.080   0.000   0.000  -0.000  -0.000
 -0.000   0.000  -0.000   0.000 -10.080   0.000  -0.000   0.000
  0.644  -0.000  -0.000   0.000   0.000   6.559   0.000  -0.000
 -0.000   0.644   0.000  -0.000  -0.000   0.000   6.559  -0.000
 -0.000   0.000   0.644  -0.000   0.000  -0.000  -0.000   6.559
  0.000  -0.000  -0.000   0.644  -0.000  -0.000   0.000   0.000
  0.000  -0.000   0.000  -0.000   0.644  -0.000   0.000  -0.000
 -0.000   0.000   0.000  -0.000  -0.000   0.000   0.000   0.000
 -0.000   0.000   0.000  -0.000  -0.000   0.000   0.000   0.000
  0.000   0.000   0.000   0.000   0.000  -0.000   0.000  -0.000
  0.000  -0.000   0.000   0.000  -0.000   0.000   0.000  -0.000
 -0.000   0.000  -0.000   0.000   0.000   0.000   0.000  -0.000
  0.000   0.000   0.000  -0.000   0.000  -0.000   0.000   0.000
 -0.000  -0.000   0.000   0.000   0.000   0.000  -0.000  -0.000
 -0.000  -0.000  -0.000   0.000  -0.000  -0.000   0.000  -0.000
 total augmentation occupancy for first ion, spin component:           1
  1.996  -0.000  -0.000  -0.000   0.000  -0.004  -0.000  -0.000   0.000   0.000   0.000   0.000   0.000   0.000   0.000   0.000
 -0.000   1.996  -0.000  -0.000  -0.000   0.000  -0.004   0.000   0.000   0.000   0.000   0.000   0.000   0.000   0.000   0.000
  0.000  -0.000   1.996  -0.000   0.000   0.000   0.000  -0.004   0.000  -0.000   0.000   0.000   0.000   0.000   0.000   0.000
 -0.000  -0.000  -0.000   1.996  -0.000   0.000  -0.000   0.000  -0.004   0.000  -0.000   0.000   0.000   0.000   0.000   0.000
  0.000  -0.000   0.000  -0.000   1.996   0.000  -0.000  -0.000   0.000  -0.004   0.000  -0.000   0.000   0.000   0.000   0.000
 -0.004   0.000   0.000   0.000   0.000   0.000   0.000   0.000  -0.000   0.000  -0.000   0.000   0.000   0.000   0.000   0.000
 -0.000  -0.004  -0.000   0.000  -0.000   0.000   0.000   0.000   0.000  -0.000  -0.000  -0.000   0.000   0.000   0.000   0.000
 -0.000   0.000  -0.004   0.000  -0.000   0.000   0.000   0.000   0.000   0.000   0.000   0.000   0.000   0.000   0.000   0.000
 -0.000   0.000   0.000  -0.004   0.000  -0.000   0.000   0.000   0.000  -0.000   0.000  -0.000   0.000   0.000   0.000   0.000
  0.000   0.000  -0.000   0.000  -0.004   0.000  -0.000   0.000  -0.000   0.000   0.000   0.000   0.000   0.000   0.000   0.000
  0.000  -0.000  -0.000   0.000   0.000  -0.000  -0.000   0.000   0.000   0.000   1.034  -0.005   0.000   0.000   0.000   0.000
  0.000   0.000   0.000   0.000   0.000   0.000  -0.000  -0.000  -0.000   0.000  -0.005   0.000   0.000   0.000   0.000   0.000
  0.000   0.000   0.000   0.000   0.000   0.000   0.000   0.000   0.000   0.000   0.000   0.000   0.000   0.000  -0.000  -0.000
  0.000   0.000   0.000   0.000   0.000   0.000   0.000   0.000   0.000   0.000   0.000   0.000  -0.000   0.000  -0.000   0.000
  0.000   0.000   0.000   0.000   0.000   0.000   0.000   0.000   0.000   0.000   0.000   0.000   0.000   0.000   0.000   0.000
  0.000   0.000   0.000   0.000   0.000   0.000   0.000   0.000   0.000   0.000   0.000   0.000  -0.000   0.000   0.000   0.000
  0.000   0.000   0.000   0.000   0.000   0.000   0.000   0.000   0.000   0.000   0.000   0.000  -0.000  -0.000  -0.000  -0.000
  0.000   0.000   0.000   0.000   0.000   0.000   0.000   0.000   0.000   0.000   0.000   0.000   0.000  -0.000  -0.000  -0.000
 total augmentation occupancy for first ion, spin component:           2
  0.007   0.000   0.000  -0.000   0.000   0.014   0.000  -0.000  -0.000   0.000   0.000   0.000   0.000   0.000   0.000   0.000
  0.000   0.007  -0.000   0.000   0.000  -0.000   0.014   0.000   0.000   0.000   0.000   0.000   0.000   0.000   0.000   0.000
  0.000  -0.000   0.007  -0.000   0.000  -0.000   0.000   0.014   0.000   0.000   0.000   0.000   0.000   0.000   0.000   0.000
 -0.000   0.000  -0.000   0.007  -0.000  -0.000   0.000   0.000   0.014  -0.000   0.000   0.000   0.000   0.000   0.000   0.000
 -0.000  -0.000   0.000   0.000   0.007  -0.000  -0.000   0.000   0.000   0.014   0.000   0.000   0.000   0.000   0.000   0.000
  0.014   0.000  -0.000  -0.000  -0.000  -0.000   0.000  -0.000  -0.000   0.000   0.000   0.000   0.000   0.000   0.000   0.000
 -0.000   0.014   0.000   0.000   0.000   0.000  -0.000  -0.000   0.000  -0.000  -0.000   0.000   0.000   0.000   0.000   0.000
  0.000   0.000   0.014   0.000   0.000  -0.000  -0.000  -0.000   0.000  -0.000  -0.000  -0.000   0.000   0.000   0.000   0.000
 -0.000   0.000   0.000   0.014   0.000  -0.000   0.000   0.000  -0.000  -0.000   0.000  -0.000   0.000   0.000   0.000   0.000
  0.000   0.000   0.000  -0.000   0.014   0.000  -0.000  -0.000  -0.000  -0.000  -0.000   0.000   0.000   0.000   0.000   0.000
  0.000   0.000   0.000  -0.000   0.000   0.000  -0.000  -0.000   0.000  -0.000   1.034  -0.005   0.000   0.000   0.000   0.000
  0.000   0.000   0.000   0.000  -0.000   0.000   0.000   0.000  -0.000   0.000  -0.005   0.000   0.000   0.000   0.000   0.000
  0.000   0.000   0.000   0.000   0.000   0.000   0.000   0.000   0.000   0.000   0.000   0.000  -0.000   0.000  -0.000   0.000
  0.000   0.000   0.000   0.000   0.000   0.000   0.000   0.000   0.000   0.000   0.000   0.000  -0.000  -0.000   0.000  -0.000
  0.000   0.000   0.000   0.000   0.000   0.000   0.000   0.000   0.000   0.000   0.000   0.000   0.000   0.000  -0.000  -0.000
  0.000   0.000   0.000   0.000   0.000   0.000   0.000   0.000   0.000   0.000   0.000   0.000   0.000  -0.000   0.000  -0.000
  0.000   0.000   0.000   0.000   0.000   0.000   0.000   0.000   0.000   0.000   0.000   0.000   0.000   0.000   0.000   0.000
  0.000   0.000   0.000   0.000   0.000   0.000   0.000   0.000   0.000   0.000   0.000   0.000   0.000  -0.000   0.000   0.000


------------------------ aborting loop because EDIFF is reached ----------------------------------------


    FORLOC:  cpu time      0.0097: real time      0.0097
    FORNL :  cpu time      0.4113: real time      0.4113
    STRESS:  cpu time      1.2577: real time      1.2579
    FORCOR:  cpu time     12.3044: real time     12.3054
    OFIELD:  cpu time      0.0072: real time      0.0072

  FORCE on cell =-STRESS in cart. coord.  units (eV):
  Direction    XX          YY          ZZ          XY          YZ          ZX
  --------------------------------------------------------------------------------------
  Alpha Z     0.09142     0.09142     0.09142
  Ewald     -41.19695   -41.19695   -41.19695     0.00000    -0.00000    -0.00000
  Hartree   383.92904   383.92904   383.92904    -0.00000    -0.00000    -0.00000
  E(xc)     -65.67703   -65.67703   -65.67703    -0.00000    -0.00000     0.00000
  Local    -432.23380  -432.23380  -432.23380    -0.00000    -0.00000     0.00000
  n-local   -30.06084   -30.06125   -30.06078    -0.00006     0.00009     0.00018
  augment    93.17772    93.17772    93.17772    -0.00000     0.00000    -0.00000
  Kinetic    91.96157    91.96158    91.96139     0.00003    -0.00005    -0.00007
  Fock        0.00000     0.00000     0.00000     0.00000     0.00000     0.00000
  -------------------------------------------------------------------------------------
  Total      -0.00905    -0.00905    -0.00905     0.00000     0.00000    -0.00000
  in kB      -0.00181    -0.00181    -0.00181     0.00000     0.00000    -0.00000
  external pressure =       -0.00 kB  Pullay stress =        0.00 kB


 VOLUME and BASIS-vectors are now :
 -----------------------------------------------------------------------------
  energy-cutoff  :      520.00
  volume of cell :     8000.00
      direct lattice vectors                 reciprocal lattice vectors
    20.000000000  0.000000000  0.000000000     0.050000000  0.000000000  0.000000000
     0.000000000 20.000000000  0.000000000     0.000000000  0.050000000  0.000000000
     0.000000000  0.000000000 20.000000000     0.000000000  0.000000000  0.050000000

  length of vectors
    20.000000000 20.000000000 20.000000000     0.050000000  0.050000000  0.050000000


 FORCES acting on ions:
    Electron-Ion                     Ewald-Force                    Non-Local-Force
 -----------------------------------------------------------------------------------------------
   0.254E-12 0.475E-10 -.214E-10   0.106E-16 -.303E-16 -.392E-16   0.000E+00 0.000E+00 -.635E-21
 -----------------------------------------------------------------------------------------------
   0.260E-12 0.481E-10 -.218E-10   0.106E-16 -.303E-16 -.392E-16   0.000E+00 0.000E+00 -.635E-21


 POSITION                                       TOTAL-FORCE (eV/Angst)
 -----------------------------------------------------------------------------------
      9.00000      9.20000     12.00000         0.000000      0.000000      0.000000
 -----------------------------------------------------------------------------------
    total drift:                                0.000000      0.000000     -0.000000


--------------------------------------------------------------------------------------------------------



  FREE ENERGIE OF THE ION-ELECTRON SYSTEM (eV)
  ---------------------------------------------------
  free  energy   TOTEN  =         2.88316516 eV

  energy  without entropy=        2.88316516  energy(sigma->0) =        2.88316516



--------------------------------------------------------------------------------------------------------


    POTLOK:  cpu time     12.8272: real time     12.8284


--------------------------------------------------------------------------------------------------------


     LOOP+:  cpu time    361.2167: real time    361.6343
    4ORBIT:  cpu time      0.0000: real time      0.0000

 total amount of memory used by VASP MPI-rank0   229639. kBytes
=======================================================================

   base      :      30000. kBytes
   nonlr-proj:        373. kBytes
   fftplans  :      55167. kBytes
   grid      :     133718. kBytes
   one-center:         31. kBytes
   wavefun   :      10350. kBytes

  
  
 General timing and accounting informations for this job:
 ========================================================
  
                  Total CPU time used (sec):      368.421
                            User time (sec):      361.926
                          System time (sec):        6.495
                         Elapsed time (sec):      369.935
  
                   Maximum memory used (kb):      943416.
                   Average memory used (kb):          N/A
  
                          Minor page faults:       298689
                          Major page faults:           52
                 Voluntary context switches:         2097
