 vasp.6.3.0 20Jan22 (build Apr  1 2022 16:44:48) complex                         
 executed on        HPECrayEX_GCC date 2023.01.10  01:57:15
 running  768 mpi-ranks, with    1 threads/rank
 distrk:  each k-point on  384 cores,    2 groups
 distr:  one band on NCORE=   4 cores,   96 groups


--------------------------------------------------------------------------------------------------------


 INCAR:
   SYSTEM = MgO-rocksalt
   ISMEAR = 0
   SIGMA = 0.05
   EDIFF = 1E-6
   ALGO = ALL
   ISTART = 0
   IBRION = -1
   NSW = 0
   ISYM = 2
   METAGGA = SCAN
   LUSE_VDW = .TRUE.
   BPARAM = 15.7
   CPARAM = 0.0093
   ENCUT = 520
   PREC = Accurate
   LASPH = .TRUE.
   LREAL = Auto
   ISPIN = 1
   NELM = 200
   NELMIN = 8
   NCORE = 4
   KPAR = 2
   LWAVE = .FALSE.
   LCHARG = .FALSE.

 POTCAR:    PAW_PBE Cu 22Jun2005                  
 -----------------------------------------------------------------------------
|                                                                             |
|               ----> ADVICE to this user running VASP <----                  |
|                                                                             |
|     You have switched on vdW-DFT.                                           |
|     This routine was written and supplied by Jiri Klimes. We recommend      |
|     that you carefully read and cite the following publications:            |
|       J. Klimes, D.R. Bowler, A. Michelides                                 |
|          J. Phys.: Cond Matt. 22 022201 (2010)                              |
|       J. Klimes, D.R. Bowler, A. Michelides                                 |
|          Phys. Rev. B. 83, 195131 (2011)                                    |
|     and references therein.                                                 |
|                                                                             |
 -----------------------------------------------------------------------------

 POTCAR:    PAW_PBE Cu 22Jun2005                  
   SHA256 =  0e71e558f37a4e8407882b4609ceaae59938afaad9ced71dfe8490308a0ab630 Cu/POTCAR             
   COPYR  = (c) Copyright 22Jun2005 Georg Kresse                                                    
   COPYR  = This file is part of the software VASP. Any use, copying, and all other rights are regul
   COPYR  = If you do not have a valid VASP license, you may not use, copy or distribute this file. 
   VRHFIN =Cu: d10 p1                                                                               
   LEXCH  = PE                                                                                      
   EATOM  =  1390.9808 eV,  102.2342 Ry                                                             
                                                                                                    
   TITEL  = PAW_PBE Cu 22Jun2005                                                                    
   LULTRA =        F    use ultrasoft PP ?                                                          
   IUNSCR =        1    unscreen: 0-lin 1-nonlin 2-no                                               
   RPACOR =    2.000    partial core radius                                                         
   POMASS =   63.546; ZVAL   =   11.000    mass and valenz                                          
   RCORE  =    2.300    outmost cutoff radius                                                       
   RWIGS  =    2.200; RWIGS  =    1.164    wigner-seitz radius (au A)                               
   ENMAX  =  295.446; ENMIN  =  221.585 eV                                                          
   ICORE  =        3    local potential                                                             
   LCOR   =        T    correct aug charges                                                         
   LPAW   =        T    paw PP                                                                      
   EAUG   =  586.980                                                                                
   DEXC   =    0.000                                                                                
   RMAX   =    2.344    core radius for proj-oper                                                   
   RAUG   =    1.300    factor for augmentation sphere                                              
   RDEP   =    2.302    radius for radial grids                                                     
   RDEPT  =    1.771    core radius for aug-charge                                                  
                                                                                                    
   Atomic configuration                                                                             
    9 entries                                                                                       
     n  l   j            E        occ.                                                              
     1  0  0.50     -8850.2468   2.0000                                                             
     2  0  0.50     -1062.3498   2.0000                                                             
     2  1  1.50      -916.8226   6.0000                                                             
     3  0  0.50      -114.6929   2.0000                                                             
     3  1  1.50       -72.1325   6.0000                                                             
     3  2  2.50        -5.0394  10.0000                                                             
     4  0  0.50        -4.6097   1.0000                                                             
     4  1  0.50        -4.0817   0.0000                                                             
     4  3  2.50        -1.3606   0.0000                                                             
   Description                                                                                      
     l       E           TYP  RCUT    TYP  RCUT                                                     
     2     -5.0393973     23  2.200                                                                 
     2     10.8846608     23  2.200                                                                 
     0     -4.6097109     23  2.200                                                                 
     0      8.2520465     23  2.200                                                                 
     1     -2.7211652     23  2.200                                                                 
     1     21.7055443     23  2.200                                                                 
     3      2.7211652     23  2.300                                                                 
  local pseudopotential read in
  partial core-charges read in
  partial kinetic energy density read in
  atomic valenz-charges read in
  non local Contribution for L=           2  read in
    real space projection operators read in
  non local Contribution for L=           2  read in
    real space projection operators read in
  non local Contribution for L=           0  read in
    real space projection operators read in
  non local Contribution for L=           0  read in
    real space projection operators read in
  non local Contribution for L=           1  read in
    real space projection operators read in
  non local Contribution for L=           1  read in
    real space projection operators read in
    PAW grid and wavefunctions read in

   number of l-projection  operators is LMAX  =           6
   number of lm-projection operators is LMMAX =          18

 -----------------------------------------------------------------------------
|                                                                             |
|               ----> ADVICE to this user running VASP <----                  |
|                                                                             |
|     You have a (more or less) 'small supercell' and for smaller cells       |
|     it is recommended to use the reciprocal-space projection scheme!        |
|     The real-space optimization is not efficient for small cells and it     |
|     is also less accurate ...                                               |
|     Therefore, set LREAL=.FALSE. in the INCAR file.                         |
|                                                                             |
 -----------------------------------------------------------------------------

 Optimization of the real space projectors (new method)

 maximal supplied QI-value         = 16.25
 optimisation between [QCUT,QGAM] = [ 11.54, 23.24] = [ 37.28,151.24] Ry 
 Optimized for a Real-space Cutoff    1.53 Angstroem

   l    n(q)    QCUT    max X(q) W(low)/X(q) W(high)/X(q)  e(spline) 
   2     10    11.539     4.610    0.96E-04    0.13E-03    0.19E-06
   2     10    11.539     8.522    0.16E-03    0.21E-03    0.28E-06
   0     11    11.539    51.609    0.45E-04    0.31E-04    0.11E-06
   0     11    11.539    27.747    0.39E-04    0.29E-04    0.10E-06
   1     10    11.539    20.408    0.70E-05    0.38E-04    0.18E-06
   1     10    11.539    13.425    0.66E-05    0.34E-04    0.17E-06
  PAW_PBE Cu 22Jun2005                  :
 energy of atom  1       EATOM=-1390.9808
 kinetic energy error for atom=    0.0037 (will be added to EATOM!!)


 POSCAR: Cu Mg  O
  positions in direct lattice
  No initial velocities read in

 METAGGA = SCAN     LMAXTAU =  6    LMIXTAU =  F

 exchange correlation table for  LEXCH =        8
   RHO(1)=    0.500       N(1)  =     2000
   RHO(2)=  100.500       N(2)  =     4000



--------------------------------------------------------------------------------------------------------


 ion  position               nearest neighbor table
   1  0.400  0.421  0.593-   2 2.27
   2  0.401  0.506  0.657-   1 2.27   4 2.38   3 2.40
   3  0.401  0.614  0.691-   4 2.27   2 2.40
   4  0.400  0.594  0.590-   3 2.27   2 2.38

  LATTYP: Found a simple tetragonal cell.
 ALAT       =    21.1388521970
 C/A-ratio  =     1.0461251639
  
  Lattice vectors:
  
 A1 = (  21.1388521970,   0.0000000000,   0.0000000000)
 A2 = (   0.0000000000,  21.1388521970,   0.0000000000)
 A3 = (   0.0000000000,   0.0000000000,  22.1138852197)


Analysis of symmetry for initial positions (statically):
=====================================================================
 Subroutine PRICEL returns:
 Original cell was already a primitive cell.
 

 Routine SETGRP: Setting up the symmetry group for a 
 simple tetragonal supercell.


 Subroutine GETGRP returns: Found  1 space group operations
 (whereof  1 operations were pure point group operations)
 out of a pool of 16 trial point group operations.


The static configuration has the point symmetry C_1 .


Analysis of symmetry for dynamics (positions and initial velocities):
=====================================================================
 Subroutine PRICEL returns:
 Original cell was already a primitive cell.
 

 Routine SETGRP: Setting up the symmetry group for a 
 simple tetragonal supercell.


 Subroutine GETGRP returns: Found  1 space group operations
 (whereof  1 operations were pure point group operations)
 out of a pool of 16 trial point group operations.


The dynamic configuration has the point symmetry C_1 .


Analysis of constrained symmetry for selective dynamics:
=====================================================================
 Subroutine PRICEL returns:
 Original cell was already a primitive cell.
 

 Routine SETGRP: Setting up the symmetry group for a 
 simple tetragonal supercell.


 Subroutine GETGRP returns: Found  1 space group operations
 (whereof  1 operations were pure point group operations)
 out of a pool of 16 trial point group operations.


The constrained configuration has the point symmetry C_1 .


 Subroutine INISYM returns: Found  1 space group operations
 (whereof  1 operations are pure point group operations),
 and found     1 'primitive' translations


----------------------------------------------------------------------------------------

                                     Primitive cell                                     

  volume of cell :    9881.6133

  direct lattice vectors                    reciprocal lattice vectors
    21.138852197  0.000000000  0.000000000     0.047306258  0.000000000  0.000000000
     0.000000000 21.138852197  0.000000000     0.000000000  0.047306258  0.000000000
     0.000000000  0.000000000 22.113885220     0.000000000  0.000000000  0.045220457

  length of vectors
    21.138852197 21.138852197 22.113885220     0.047306258  0.047306258  0.045220457

  position of ions in fractional coordinates (direct lattice)
     0.400229282  0.421328702  0.592894010
     0.400626265  0.505728649  0.656597495
     0.400850837  0.613577871  0.691210184
     0.400248991  0.594204282  0.590315895

  ion indices of the primitive-cell ions
   primitive index   ion index
                 1           1
                 2           2
                 3           3
                 4           4

----------------------------------------------------------------------------------------



 KPOINTS: KPOINTS created by Atomic Simulation Env

Automatic generation of k-mesh.
 Grid dimensions read from file:
 generate k-points for:    1    1    1

 Generating k-lattice:

  Cartesian coordinates                     Fractional coordinates (reciprocal lattice)
     0.047306258  0.000000000  0.000000000     1.000000000  0.000000000  0.000000000
     0.000000000  0.047306258  0.000000000     0.000000000  1.000000000  0.000000000
     0.000000000  0.000000000  0.045220457     0.000000000  0.000000000  1.000000000

  Length of vectors
     0.047306258  0.047306258  0.045220457

  Shift w.r.t. Gamma in fractional coordinates (k-lattice)
     0.000000000  0.000000000  0.000000000

 
 Subroutine IBZKPT returns following result:
 ===========================================
 
 Found      1 irreducible k-points:
 
 Following reciprocal coordinates:
            Coordinates               Weight
  0.000000  0.000000  0.000000      1.000000
 
 Following cartesian coordinates:
            Coordinates               Weight
  0.000000  0.000000  0.000000      1.000000
 


--------------------------------------------------------------------------------------------------------




 Dimension of arrays:
   k-points           NKPTS =      1   k-points in BZ     NKDIM =      1   number of bands    NBANDS=     96
   number of dos      NEDOS =    301   number of ions     NIONS =      4
   non local maximal  LDIM  =      6   non local SUM 2l+1 LMDIM =     18
   total plane-waves  NPLWV = ******
   max r-space proj   IRMAX =   6628   max aug-charges    IRDMAX=  12805
   dimension x,y,z NGX =   160 NGY =  160 NGZ =  168
   dimension x,y,z NGXF=   320 NGYF=  320 NGZF=  336
   support grid    NGXF=   320 NGYF=  320 NGZF=  336
   ions per type =               4
   NGX,Y,Z   is equivalent  to a cutoff of  12.58, 12.58, 12.63 a.u.
   NGXF,Y,Z  is equivalent  to a cutoff of  25.17, 25.17, 25.26 a.u.

 SYSTEM =  MgO-rocksalt                            
 POSCAR =  Cu Mg  O                                

 Startparameter for this run:
   NWRITE =      2    write-flag & timer
   PREC   = accura    normal or accurate (medium, high low for compatibility)
   ISTART =      0    job   : 0-new  1-cont  2-samecut
   ICHARG =      2    charge: 1-file 2-atom 10-const
   ISPIN  =      1    spin polarized calculation?
   LNONCOLLINEAR =      F non collinear calculations
   LSORBIT =      F    spin-orbit coupling
   INIWAV =      1    electr: 0-lowe 1-rand  2-diag
   LASPH  =      T    aspherical Exc in radial PAW
 Electronic Relaxation 1
   ENCUT  =  520.0 eV  38.22 Ry    6.18 a.u.  39.30 39.30 41.12*2*pi/ulx,y,z
   ENINI  =  520.0     initial cutoff
   ENAUG  =  587.0 eV  augmentation charge cutoff
   NELM   =    200;   NELMIN=  8; NELMDL= -5     # of ELM steps 
   EDIFF  = 0.1E-05   stopping-criterion for ELM
   LREAL  =      T    real-space projection
   NLSPLINE    = F    spline interpolate recip. space projectors
   LCOMPAT=      F    compatible to vasp.4.4
   GGA_COMPAT  = T    GGA compatible to vasp.4.4-vasp.4.6
   LMAXPAW     = -100 max onsite density
   LMAXMIX     =    2 max onsite mixed and CHGCAR
   VOSKOWN=      0    Vosko Wilk Nusair interpolation
   ROPT   =   -0.00025
 Ionic relaxation
   EDIFFG = 0.1E-04   stopping-criterion for IOM
   NSW    =      0    number of steps for IOM
   NBLOCK =      1;   KBLOCK =      1    inner block; outer block 
   IBRION =     -1    ionic relax: 0-MD 1-quasi-New 2-CG
   NFREE  =      0    steps in history (QN), initial steepest desc. (CG)
   ISIF   =      2    stress and relaxation
   IWAVPR =     10    prediction:  0-non 1-charg 2-wave 3-comb
   ISYM   =      2    0-nonsym 1-usesym 2-fastsym
   LCORR  =      T    Harris-Foulkes like correction to forces

   POTIM  = 0.5000    time-step for ionic-motion
   TEIN   =    0.0    initial temperature
   TEBEG  =    0.0;   TEEND  =   0.0 temperature during run
   SMASS  =  -3.00    Nose mass-parameter (am)
   estimated Nose-frequenzy (Omega)   =  0.10E-29 period in steps = 0.13E+47 mass=  -0.102E-25a.u.
   SCALEE = 1.0000    scale energy and forces
   NPACO  =    256;   APACO  = 10.0  distance and # of slots for P.C.
   PSTRESS=    0.0 pullay stress

  Mass of Ions in am
   POMASS =  63.55
  Ionic Valenz
   ZVAL   =  11.00
  Atomic Wigner-Seitz radii
   RWIGS  =  -1.00
  virtual crystal weights 
   VCA    =   1.00
   NELECT =      44.0000    total number of electrons
   NUPDOWN=      -1.0000    fix difference up-down

 DOS related values:
   EMIN   =  10.00;   EMAX   =-10.00  energy-range for DOS
   EFERMI =   0.00
   ISMEAR =     0;   SIGMA  =   0.05  broadening in eV -4-tet -1-fermi 0-gaus

 Electronic relaxation 2 (details)
   IALGO  =     58    algorithm
   LDIAG  =      T    sub-space diagonalisation (order eigenvalues)
   LSUBROT=      F    optimize rotation matrix (better conditioning)
   TURBO    =      0    0=normal 1=particle mesh
   IRESTART =      0    0=no restart 2=restart with 2 vectors
   NREBOOT  =      0    no. of reboots
   NMIN     =      0    reboot dimension
   EREF     =   0.00    reference energy to select bands
   IMIX   =      4    mixing-type and parameters
     AMIX     =   0.40;   BMIX     =  1.00
     AMIX_MAG =   1.60;   BMIX_MAG =  1.00
     AMIN     =   0.10
     WC   =   100.;   INIMIX=   1;  MIXPRE=   1;  MAXMIX= -45

 Intra band minimization:
   WEIMIN = 0.0000     energy-eigenvalue tresh-hold
   EBREAK =  0.26E-08  absolut break condition
   DEPER  =   0.30     relativ break condition  

   TIME   =   0.40     timestep for ELM

  volume/ion in A,a.u.               =    2470.40     16671.10
  Fermi-wavevector in a.u.,A,eV,Ry     =   0.269329  0.508958  0.986941  0.072538
  Thomas-Fermi vector in A             =   1.106612

 Write flags
   LWAVE        =      F    write WAVECAR
   LDOWNSAMPLE  =      F    k-point downsampling of WAVECAR
   LCHARG       =      F    write CHGCAR
   LVTOT        =      F    write LOCPOT, total local potential
   LVHAR        =      F    write LOCPOT, Hartree potential only
   LELF         =      F    write electronic localiz. function (ELF)
   LORBIT       =      0    0 simple, 1 ext, 2 COOP (PROOUT), +10 PAW based schemes


 Dipole corrections
   LMONO  =      F    monopole corrections only (constant potential shift)
   LDIPOL =      F    correct potential (dipole corrections)
   IDIPOL =      0    1-x, 2-y, 3-z, 4-all directions 
   EPSILON=  1.0000000 bulk dielectric constant

 Exchange correlation treatment:
   GGA     =    --    GGA type
   LEXCH   =     8    internal setting for exchange type
   LIBXC   =     F    Libxc                    
   VOSKOWN =     0    Vosko Wilk Nusair interpolation
   LHFCALC =     F    Hartree Fock is set to
   LHFONE  =     F    Hartree Fock one center treatment
   AEXX    =    0.0000 exact exchange contribution

 vdW DFT:
   LUSE_VDW   =     T    switch on vdW DFT
   Zab_VDW    =-.8491    correlation parameter
   PARAM1     =0.1234
   PARAM2     =1.0000
   PARAM3     =0.0000
   -- rVV10 --
   BPARAM     =15.7000
   CPARAM     = 0.0093

 Linear response parameters
   LEPSILON=     F    determine dielectric tensor
   LRPA    =     F    only Hartree local field effects (RPA)
   LNABLA  =     F    use nabla operator in PAW spheres
   LVEL    =     F    velocity operator in full k-point grid
   CSHIFT  =0.1000    complex shift for real part using Kramers Kronig
   OMEGAMAX=  -1.0    maximum frequency
   DEG_THRESHOLD= 0.2000000E-02 threshold for treating states as degnerate
   RTIME   =   -0.100 relaxation time in fs
  (WPLASMAI=    0.000 imaginary part of plasma frequency in eV, 0.658/RTIME)
   DFIELD  = 0.0000000 0.0000000 0.0000000 field for delta impulse in time

  Optional k-point grid parameters
   LKPOINTS_OPT  =     F    use optional k-point grid
   KPOINTS_OPT_MODE=     1    mode for optional k-point grid

 Orbital magnetization related:
   ORBITALMAG=     F  switch on orbital magnetization
   LCHIMAG   =     F  perturbation theory with respect to B field
   DQ        =  0.001000  dq finite difference perturbation B field
   LLRAUG    =     F  two centre corrections for induced B field



--------------------------------------------------------------------------------------------------------


 Static calculation
 charge density and potential will be updated during run
 non-spin polarized calculation
 Conjugate gradient for all bands (Freysoldt, et al. PRB 79, 241103 (2009))
 preconditioned conjugated gradient                                        
 perform sub-space diagonalisation
    before iterative eigenvector-optimisation
 modified Broyden-mixing scheme, WC =      100.0
 initial mixing is a Kerker type mixing with AMIX =  0.4000 and BMIX =      1.0000
 Hartree-type preconditioning will be used
 using additional bands           74
 real space projection scheme for non local part
 use partial core corrections
 no Harris-corrections to forces 
 use gradient corrections 
 use of overlap-Matrix (Vanderbilt PP)
 Gauss-broadening in eV      SIGMA  =   0.05


--------------------------------------------------------------------------------------------------------


  energy-cutoff  :      520.00
  volume of cell :     9881.61
      direct lattice vectors                 reciprocal lattice vectors
    21.138852197  0.000000000  0.000000000     0.047306258  0.000000000  0.000000000
     0.000000000 21.138852197  0.000000000     0.000000000  0.047306258  0.000000000
     0.000000000  0.000000000 22.113885220     0.000000000  0.000000000  0.045220457

  length of vectors
    21.138852197 21.138852197 22.113885220     0.047306258  0.047306258  0.045220457



 k-points in units of 2pi/SCALE and weight: KPOINTS created by Atomic Simulation Env
   0.00000000  0.00000000  0.00000000       1.000

 k-points in reciprocal lattice and weights: KPOINTS created by Atomic Simulation Env
   0.00000000  0.00000000  0.00000000       1.000

 position of ions in fractional coordinates (direct lattice) 
   0.40022928  0.42132870  0.59289401
   0.40062627  0.50572865  0.65659749
   0.40085084  0.61357787  0.69121018
   0.40024899  0.59420428  0.59031589

 position of ions in cartesian coordinates  (Angst):
   8.46038764  8.90640515 13.11119008
   8.46877940 10.69052316 14.51992163
   8.47352660 12.97033192 15.28534267
   8.46080425 12.56079650 13.05417794



--------------------------------------------------------------------------------------------------------


 k-point   1 :   0.0000 0.0000 0.0000  plane waves:  265979

 maximum and minimum number of plane-waves per node :     66495    66494

 maximum number of plane-waves:    265979
 maximum index in each direction: 
   IXMAX=   39   IYMAX=   39   IZMAX=   41
   IXMIN=  -39   IYMIN=  -39   IZMIN=  -41


 real space projection operators:
  total allocation   :       3593.11 KBytes
  max/ min on nodes  :        908.30        888.05


 parallel 3D FFT for wavefunctions:
    minimum data exchange during FFTs selected (reduces bandwidth)
 parallel 3D FFT for charge:
    minimum data exchange during FFTs selected (reduces bandwidth)


 total amount of memory used by VASP MPI-rank0   153787. kBytes
=======================================================================

   base      :      30000. kBytes
   nonlr-proj:       1541. kBytes
   fftplans  :      35474. kBytes
   grid      :      83562. kBytes
   one-center:         15. kBytes
   wavefun   :       3195. kBytes

     INWAV:  cpu time      0.0002: real time      0.0003
 Broyden mixing: mesh for mixing (old mesh)
   NGX = 79   NGY = 79   NGZ = 83
  (NGX  =320   NGY  =320   NGZ  =336)
  gives a total of 518003 points

 initial charge density was supplied:
 charge density of overlapping atoms calculated
 number of electron      44.0000000 magnetization 
 keeping initial charge density in first step


--------------------------------------------------------------------------------------------------------


 Maximum index for non-local projection operator         1580
 Maximum index for augmentation-charges            0 (set IRDMAX)


--------------------------------------------------------------------------------------------------------


 First call to EWALD:  gamma=   0.083
 Maximum number of real-space cells 3x 3x 3
 Maximum number of reciprocal cells 3x 3x 3

    FEWALD:  cpu time      0.0018: real time      0.0018


--------------------------------------- Iteration      1(   1)  ---------------------------------------


    POTLOK:  cpu time      2.7696: real time      2.7699
    SETDIJ:  cpu time      0.7427: real time      0.7428
    TRIAL :  cpu time      1.5701: real time      1.5715
    CORREC:  cpu time      0.0011: real time      0.0011
    --------------------------------------------
      LOOP:  cpu time      5.0848: real time      5.0868

 eigenvalue-minimisations  :   192
 total energy-change (2. order) : 0.2130646E+03  (-0.8617746E+03)
 number of electron      44.0000000 magnetization 
 augmentation part       44.0000000 magnetization 

 Free energy of the ion-electron system (eV)
  ---------------------------------------------------
  alpha Z        PSCENC =         1.18414354
  Ewald energy   TEWEN  =      2026.83575057
  -Hartree energ DENC   =     -7105.62583309
  -exchange      EXHF   =         0.00000000
  -V(xc)+E(xc)   XCENC  =       217.47131520
  PAW double counting   =      4870.76391618    -5353.47226142
  entropy T*S    EENTRO =        -0.09436188
  eigenvalues    EBANDS =        -7.90631613
  atomic energy  EATOM  =      5563.90821598
  ---------------------------------------------------
  free energy    TOTEN  =       213.06456894 eV

  energy without entropy =      213.15893082  energy(sigma->0) =      213.11174988


--------------------------------------------------------------------------------------------------------




--------------------------------------- Iteration      1(   2)  ---------------------------------------


    TRIAL :  cpu time      1.5328: real time      1.5329
    CORREC:  cpu time      0.0003: real time      0.0003
    --------------------------------------------
      LOOP:  cpu time      1.5351: real time      1.5402

 eigenvalue-minimisations  :   192
 total energy-change (2. order) :-0.2656116E+03  (-0.2639963E+03)
 number of electron      44.0000000 magnetization 
 augmentation part       44.0000000 magnetization 

 Free energy of the ion-electron system (eV)
  ---------------------------------------------------
  alpha Z        PSCENC =         1.18414354
  Ewald energy   TEWEN  =      2026.83575057
  -Hartree energ DENC   =     -7105.62583309
  -exchange      EXHF   =         0.00000000
  -V(xc)+E(xc)   XCENC  =       217.47131520
  PAW double counting   =      4870.76391618    -5353.47226142
  entropy T*S    EENTRO =        -0.00000000
  eigenvalues    EBANDS =      -273.61223377
  atomic energy  EATOM  =      5563.90821598
  ---------------------------------------------------
  free energy    TOTEN  =       -52.54698681 eV

  energy without entropy =      -52.54698681  energy(sigma->0) =      -52.54698681


--------------------------------------------------------------------------------------------------------




--------------------------------------- Iteration      1(   3)  ---------------------------------------


    TRIAL :  cpu time      1.5424: real time      1.5425
    CORREC:  cpu time      0.0003: real time      0.0003
    --------------------------------------------
      LOOP:  cpu time      1.5442: real time      1.5495

 eigenvalue-minimisations  :   192
 total energy-change (2. order) :-0.6279420E+01  (-0.6279420E+01)
 number of electron      44.0000000 magnetization 
 augmentation part       44.0000000 magnetization 

 Free energy of the ion-electron system (eV)
  ---------------------------------------------------
  alpha Z        PSCENC =         1.18414354
  Ewald energy   TEWEN  =      2026.83575057
  -Hartree energ DENC   =     -7105.62583309
  -exchange      EXHF   =         0.00000000
  -V(xc)+E(xc)   XCENC  =       217.47131520
  PAW double counting   =      4870.76391618    -5353.47226142
  entropy T*S    EENTRO =        -0.00000000
  eigenvalues    EBANDS =      -279.89165357
  atomic energy  EATOM  =      5563.90821598
  ---------------------------------------------------
  free energy    TOTEN  =       -58.82640661 eV

  energy without entropy =      -58.82640661  energy(sigma->0) =      -58.82640661


--------------------------------------------------------------------------------------------------------




--------------------------------------- Iteration      1(   4)  ---------------------------------------


    TRIAL :  cpu time      3.3543: real time      3.3548
    CORREC:  cpu time      0.0003: real time      0.0003
    --------------------------------------------
      LOOP:  cpu time      3.3610: real time      3.3617

 eigenvalue-minimisations  :   384
 total energy-change (2. order) :-0.1074955E+00  (-0.1074955E+00)
 number of electron      44.0000000 magnetization 
 augmentation part       44.0000000 magnetization 

 Free energy of the ion-electron system (eV)
  ---------------------------------------------------
  alpha Z        PSCENC =         1.18414354
  Ewald energy   TEWEN  =      2026.83575057
  -Hartree energ DENC   =     -7105.62583309
  -exchange      EXHF   =         0.00000000
  -V(xc)+E(xc)   XCENC  =       217.47131520
  PAW double counting   =      4870.76391618    -5353.47226142
  entropy T*S    EENTRO =        -0.00000000
  eigenvalues    EBANDS =      -279.99914906
  atomic energy  EATOM  =      5563.90821598
  ---------------------------------------------------
  free energy    TOTEN  =       -58.93390211 eV

  energy without entropy =      -58.93390211  energy(sigma->0) =      -58.93390211


--------------------------------------------------------------------------------------------------------




--------------------------------------- Iteration      1(   5)  ---------------------------------------


    TRIAL :  cpu time      1.5371: real time      1.5373
    CORREC:  cpu time      0.0003: real time      0.0003
    CHARGE:  cpu time      0.3229: real time      0.3233
    --------------------------------------------
      LOOP:  cpu time      1.8632: real time      1.8677

 eigenvalue-minimisations  :   192
 total energy-change (2. order) :-0.8678123E-05  (-0.8677437E-05)
 number of electron      44.0000022 magnetization 
 augmentation part       27.4444102 magnetization 

 Free energy of the ion-electron system (eV)
  ---------------------------------------------------
  alpha Z        PSCENC =         1.18414354
  Ewald energy   TEWEN  =      2026.83575057
  -Hartree energ DENC   =     -7105.62583309
  -exchange      EXHF   =         0.00000000
  -V(xc)+E(xc)   XCENC  =       217.47131520
  PAW double counting   =      4870.76391618    -5353.47226142
  entropy T*S    EENTRO =        -0.00000000
  eigenvalues    EBANDS =      -279.99915774
  atomic energy  EATOM  =      5563.90821598
  ---------------------------------------------------
  free energy    TOTEN  =       -58.93391078 eV

  energy without entropy =      -58.93391078  energy(sigma->0) =      -58.93391078


--------------------------------------------------------------------------------------------------------




--------------------------------------- Iteration      1(   6)  ---------------------------------------


    POTLOK:  cpu time      2.6147: real time      2.6149
    SETDIJ:  cpu time      0.7414: real time      0.7414
    TRIAL :  cpu time      1.8497: real time      1.8502
    CORREC:  cpu time      4.0188: real time      4.0191
    CHARGE:  cpu time      0.3124: real time      0.3124
    --------------------------------------------
      LOOP:  cpu time      9.5399: real time      9.5451

 eigenvalue-minimisations  :     0
 total energy-change (2. order) : 0.1333036E+02  (-0.3620344E+01)
 number of electron      44.0000023 magnetization 
 augmentation part       28.4921382 magnetization 

 Free energy of the ion-electron system (eV)
  ---------------------------------------------------
  alpha Z        PSCENC =         1.18414354
  Ewald energy   TEWEN  =      2026.83575057
  -Hartree energ DENC   =     -7026.17832867
  -exchange      EXHF   =         0.00000000
  -V(xc)+E(xc)   XCENC  =       213.86711267
  PAW double counting   =      5090.00189269    -5546.60689952
  entropy T*S    EENTRO =        -0.00000000
  eigenvalues    EBANDS =      -368.61543716
  atomic energy  EATOM  =      5563.90821598
  ---------------------------------------------------
  free energy    TOTEN  =       -45.60354991 eV

  energy without entropy =      -45.60354991  energy(sigma->0) =      -45.60354991


--------------------------------------------------------------------------------------------------------




--------------------------------------- Iteration      1(   7)  ---------------------------------------


    POTLOK:  cpu time      2.6155: real time      2.6163
    SETDIJ:  cpu time      0.7474: real time      0.7474
    TRIAL :  cpu time      1.2185: real time      1.2186
    CORREC:  cpu time      4.0140: real time      4.0142
    CHARGE:  cpu time      0.3155: real time      0.3155
    --------------------------------------------
      LOOP:  cpu time      8.9181: real time      8.9195

 eigenvalue-minimisations  :     0
 total energy-change (2. order) :-0.3306390E+01  (-0.5329378E+00)
 number of electron      44.0000023 magnetization 
 augmentation part       28.3000783 magnetization 

 Free energy of the ion-electron system (eV)
  ---------------------------------------------------
  alpha Z        PSCENC =         1.18414354
  Ewald energy   TEWEN  =      2026.83575057
  -Hartree energ DENC   =     -7154.51065250
  -exchange      EXHF   =         0.00000000
  -V(xc)+E(xc)   XCENC  =       219.60723501
  PAW double counting   =      5158.88148385    -5654.37641750
  entropy T*S    EENTRO =        -0.00000000
  eigenvalues    EBANDS =      -210.43969837
  atomic energy  EATOM  =      5563.90821598
  ---------------------------------------------------
  free energy    TOTEN  =       -48.90993943 eV

  energy without entropy =      -48.90993943  energy(sigma->0) =      -48.90993943


--------------------------------------------------------------------------------------------------------




--------------------------------------- Iteration      1(   8)  ---------------------------------------


    POTLOK:  cpu time      2.6183: real time      2.6185
    SETDIJ:  cpu time      0.7457: real time      0.7462
    TRIAL :  cpu time      1.2169: real time      1.2170
    CORREC:  cpu time      4.0081: real time      4.0083
    CHARGE:  cpu time      0.3135: real time      0.3135
    --------------------------------------------
      LOOP:  cpu time      8.9048: real time      8.9103

 eigenvalue-minimisations  :     0
 total energy-change (2. order) :-0.5293290E+00  (-0.1562019E+00)
 number of electron      44.0000023 magnetization 
 augmentation part       28.4917573 magnetization 

 Free energy of the ion-electron system (eV)
  ---------------------------------------------------
  alpha Z        PSCENC =         1.18414354
  Ewald energy   TEWEN  =      2026.83575057
  -Hartree energ DENC   =     -7105.45873363
  -exchange      EXHF   =         0.00000000
  -V(xc)+E(xc)   XCENC  =       218.00485318
  PAW double counting   =      5122.68038384    -5608.49316216
  entropy T*S    EENTRO =        -0.00000000
  eigenvalues    EBANDS =      -268.10071972
  atomic energy  EATOM  =      5563.90821598
  ---------------------------------------------------
  free energy    TOTEN  =       -49.43926840 eV

  energy without entropy =      -49.43926840  energy(sigma->0) =      -49.43926840


--------------------------------------------------------------------------------------------------------




--------------------------------------- Iteration      1(   9)  ---------------------------------------


    POTLOK:  cpu time      2.6215: real time      2.6217
    SETDIJ:  cpu time      0.7454: real time      0.7455
    TRIAL :  cpu time      1.2181: real time      1.2190
    CORREC:  cpu time      4.0121: real time      4.0129
    CHARGE:  cpu time      0.3118: real time      0.3118
    --------------------------------------------
      LOOP:  cpu time      8.9158: real time      8.9179

 eigenvalue-minimisations  :     0
 total energy-change (2. order) :-0.1550449E+00  (-0.7522044E-01)
 number of electron      44.0000023 magnetization 
 augmentation part       28.4562467 magnetization 

 Free energy of the ion-electron system (eV)
  ---------------------------------------------------
  alpha Z        PSCENC =         1.18414354
  Ewald energy   TEWEN  =      2026.83575057
  -Hartree energ DENC   =     -7124.19057430
  -exchange      EXHF   =         0.00000000
  -V(xc)+E(xc)   XCENC  =       218.99038326
  PAW double counting   =      5132.02001013    -5624.23996305
  entropy T*S    EENTRO =        -0.00000000
  eigenvalues    EBANDS =      -244.10227938
  atomic energy  EATOM  =      5563.90821598
  ---------------------------------------------------
  free energy    TOTEN  =       -49.59431325 eV

  energy without entropy =      -49.59431325  energy(sigma->0) =      -49.59431325


--------------------------------------------------------------------------------------------------------




--------------------------------------- Iteration      1(  10)  ---------------------------------------


    POTLOK:  cpu time      2.6171: real time      2.6173
    SETDIJ:  cpu time      0.7456: real time      0.7457
    TRIAL :  cpu time      1.2175: real time      1.2176
    CORREC:  cpu time      4.0085: real time      4.0094
    CHARGE:  cpu time      0.3125: real time      0.3125
    --------------------------------------------
      LOOP:  cpu time      8.9079: real time      8.9093

 eigenvalue-minimisations  :     0
 total energy-change (2. order) :-0.7574280E-01  (-0.2649823E-01)
 number of electron      44.0000023 magnetization 
 augmentation part       28.4771843 magnetization 

 Free energy of the ion-electron system (eV)
  ---------------------------------------------------
  alpha Z        PSCENC =         1.18414354
  Ewald energy   TEWEN  =      2026.83575057
  -Hartree energ DENC   =     -7120.63905544
  -exchange      EXHF   =         0.00000000
  -V(xc)+E(xc)   XCENC  =       218.80100235
  PAW double counting   =      5130.42694372    -5620.16707981
  entropy T*S    EENTRO =        -0.00000000
  eigenvalues    EBANDS =      -250.01997696
  atomic energy  EATOM  =      5563.90821598
  ---------------------------------------------------
  free energy    TOTEN  =       -49.67005605 eV

  energy without entropy =      -49.67005605  energy(sigma->0) =      -49.67005605


--------------------------------------------------------------------------------------------------------




--------------------------------------- Iteration      1(  11)  ---------------------------------------


    POTLOK:  cpu time      2.6154: real time      2.6155
    SETDIJ:  cpu time      0.7587: real time      0.7588
    TRIAL :  cpu time      1.2191: real time      1.2192
    CORREC:  cpu time      4.0109: real time      4.0118
    CHARGE:  cpu time      0.3125: real time      0.3125
    --------------------------------------------
      LOOP:  cpu time      8.9187: real time      8.9253

 eigenvalue-minimisations  :     0
 total energy-change (2. order) :-0.2631007E-01  (-0.1965261E-01)
 number of electron      44.0000023 magnetization 
 augmentation part       28.5104538 magnetization 

 Free energy of the ion-electron system (eV)
  ---------------------------------------------------
  alpha Z        PSCENC =         1.18414354
  Ewald energy   TEWEN  =      2026.83575057
  -Hartree energ DENC   =     -7123.73950060
  -exchange      EXHF   =         0.00000000
  -V(xc)+E(xc)   XCENC  =       218.93384610
  PAW double counting   =      5132.12500784    -5622.14273753
  entropy T*S    EENTRO =        -0.00000000
  eigenvalues    EBANDS =      -246.80109201
  atomic energy  EATOM  =      5563.90821598
  ---------------------------------------------------
  free energy    TOTEN  =       -49.69636612 eV

  energy without entropy =      -49.69636612  energy(sigma->0) =      -49.69636612


--------------------------------------------------------------------------------------------------------




--------------------------------------- Iteration      1(  12)  ---------------------------------------


    POTLOK:  cpu time      2.6204: real time      2.6205
    SETDIJ:  cpu time      0.7448: real time      0.7449
    TRIAL :  cpu time      1.2199: real time      1.2200
    CORREC:  cpu time      4.0104: real time      4.0112
    CHARGE:  cpu time      0.3147: real time      0.3147
    --------------------------------------------
      LOOP:  cpu time      8.9174: real time      8.9187

 eigenvalue-minimisations  :     0
 total energy-change (2. order) :-0.1933740E-01  (-0.5803217E-02)
 number of electron      44.0000023 magnetization 
 augmentation part       28.4939746 magnetization 

 Free energy of the ion-electron system (eV)
  ---------------------------------------------------
  alpha Z        PSCENC =         1.18414354
  Ewald energy   TEWEN  =      2026.83575057
  -Hartree energ DENC   =     -7127.59866377
  -exchange      EXHF   =         0.00000000
  -V(xc)+E(xc)   XCENC  =       219.08774215
  PAW double counting   =      5131.34365247    -5621.97573159
  entropy T*S    EENTRO =        -0.00000000
  eigenvalues    EBANDS =      -242.50081287
  atomic energy  EATOM  =      5563.90821598
  ---------------------------------------------------
  free energy    TOTEN  =       -49.71570352 eV

  energy without entropy =      -49.71570352  energy(sigma->0) =      -49.71570352


--------------------------------------------------------------------------------------------------------




--------------------------------------- Iteration      1(  13)  ---------------------------------------


    POTLOK:  cpu time      2.6198: real time      2.6199
    SETDIJ:  cpu time      0.7457: real time      0.7457
    TRIAL :  cpu time      1.2180: real time      1.2181
    CORREC:  cpu time      4.0175: real time      4.0186
    CHARGE:  cpu time      0.3156: real time      0.3156
    --------------------------------------------
      LOOP:  cpu time      8.9233: real time      8.9248

 eigenvalue-minimisations  :     0
 total energy-change (2. order) :-0.5736124E-02  (-0.5910901E-02)
 number of electron      44.0000023 magnetization 
 augmentation part       28.5168314 magnetization 

 Free energy of the ion-electron system (eV)
  ---------------------------------------------------
  alpha Z        PSCENC =         1.18414354
  Ewald energy   TEWEN  =      2026.83575057
  -Hartree energ DENC   =     -7124.46505204
  -exchange      EXHF   =         0.00000000
  -V(xc)+E(xc)   XCENC  =       218.96462398
  PAW double counting   =      5128.19333163    -5617.96096783
  entropy T*S    EENTRO =        -0.00000000
  eigenvalues    EBANDS =      -246.38148546
  atomic energy  EATOM  =      5563.90821598
  ---------------------------------------------------
  free energy    TOTEN  =       -49.72143964 eV

  energy without entropy =      -49.72143964  energy(sigma->0) =      -49.72143964


--------------------------------------------------------------------------------------------------------




--------------------------------------- Iteration      1(  14)  ---------------------------------------


    POTLOK:  cpu time      2.6155: real time      2.6161
    SETDIJ:  cpu time      0.7470: real time      0.7470
    TRIAL :  cpu time      1.2194: real time      1.2195
    CORREC:  cpu time      4.0061: real time      4.0064
    CHARGE:  cpu time      0.3104: real time      0.3104
    --------------------------------------------
      LOOP:  cpu time      8.9004: real time      8.9072

 eigenvalue-minimisations  :     0
 total energy-change (2. order) :-0.2999113E-02  (-0.1475483E-02)
 number of electron      44.0000023 magnetization 
 augmentation part       28.5020878 magnetization 

 Free energy of the ion-electron system (eV)
  ---------------------------------------------------
  alpha Z        PSCENC =         1.18414354
  Ewald energy   TEWEN  =      2026.83575057
  -Hartree energ DENC   =     -7125.31248394
  -exchange      EXHF   =         0.00000000
  -V(xc)+E(xc)   XCENC  =       219.02389572
  PAW double counting   =      5126.31865130    -5616.81624148
  entropy T*S    EENTRO =        -0.00000000
  eigenvalues    EBANDS =      -244.86637045
  atomic energy  EATOM  =      5563.90821598
  ---------------------------------------------------
  free energy    TOTEN  =       -49.72443875 eV

  energy without entropy =      -49.72443875  energy(sigma->0) =      -49.72443875


--------------------------------------------------------------------------------------------------------




--------------------------------------- Iteration      1(  15)  ---------------------------------------


    POTLOK:  cpu time      2.6174: real time      2.6182
    SETDIJ:  cpu time      0.7443: real time      0.7443
    TRIAL :  cpu time      1.2196: real time      1.2196
    CORREC:  cpu time      4.0087: real time      4.0089
    CHARGE:  cpu time      0.3138: real time      0.3138
    --------------------------------------------
      LOOP:  cpu time      8.9105: real time      8.9120

 eigenvalue-minimisations  :     0
 total energy-change (2. order) :-0.1255662E-02  (-0.8408934E-03)
 number of electron      44.0000023 magnetization 
 augmentation part       28.4997500 magnetization 

 Free energy of the ion-electron system (eV)
  ---------------------------------------------------
  alpha Z        PSCENC =         1.18414354
  Ewald energy   TEWEN  =      2026.83575057
  -Hartree energ DENC   =     -7123.42866818
  -exchange      EXHF   =         0.00000000
  -V(xc)+E(xc)   XCENC  =       218.94173219
  PAW double counting   =      5125.45600033    -5615.37793272
  entropy T*S    EENTRO =        -0.00000000
  eigenvalues    EBANDS =      -247.24493611
  atomic energy  EATOM  =      5563.90821598
  ---------------------------------------------------
  free energy    TOTEN  =       -49.72569441 eV

  energy without entropy =      -49.72569441  energy(sigma->0) =      -49.72569441


--------------------------------------------------------------------------------------------------------




--------------------------------------- Iteration      1(  16)  ---------------------------------------


    POTLOK:  cpu time      2.6114: real time      2.6125
    SETDIJ:  cpu time      0.7470: real time      0.7470
    TRIAL :  cpu time      1.2185: real time      1.2186
    CORREC:  cpu time      4.0082: real time      4.0084
    CHARGE:  cpu time      0.3131: real time      0.3131
    --------------------------------------------
      LOOP:  cpu time      8.9014: real time      8.9066

 eigenvalue-minimisations  :     0
 total energy-change (2. order) :-0.8422383E-03  (-0.2592698E-03)
 number of electron      44.0000023 magnetization 
 augmentation part       28.5119819 magnetization 

 Free energy of the ion-electron system (eV)
  ---------------------------------------------------
  alpha Z        PSCENC =         1.18414354
  Ewald energy   TEWEN  =      2026.83575057
  -Hartree energ DENC   =     -7123.59669996
  -exchange      EXHF   =         0.00000000
  -V(xc)+E(xc)   XCENC  =       218.93996239
  PAW double counting   =      5126.31559232    -5616.13008546
  entropy T*S    EENTRO =        -0.00000000
  eigenvalues    EBANDS =      -247.18341602
  atomic energy  EATOM  =      5563.90821598
  ---------------------------------------------------
  free energy    TOTEN  =       -49.72653665 eV

  energy without entropy =      -49.72653665  energy(sigma->0) =      -49.72653665


--------------------------------------------------------------------------------------------------------




--------------------------------------- Iteration      1(  17)  ---------------------------------------


    POTLOK:  cpu time      2.6181: real time      2.6182
    SETDIJ:  cpu time      0.7429: real time      0.7436
    TRIAL :  cpu time      1.2185: real time      1.2186
    CORREC:  cpu time      4.0062: real time      4.0065
    CHARGE:  cpu time      0.3100: real time      0.3100
    --------------------------------------------
      LOOP:  cpu time      8.8991: real time      8.9037

 eigenvalue-minimisations  :     0
 total energy-change (2. order) :-0.1251995E-03  (-0.2824851E-03)
 number of electron      44.0000023 magnetization 
 augmentation part       28.5042473 magnetization 

 Free energy of the ion-electron system (eV)
  ---------------------------------------------------
  alpha Z        PSCENC =         1.18414354
  Ewald energy   TEWEN  =      2026.83575057
  -Hartree energ DENC   =     -7125.52893813
  -exchange      EXHF   =         0.00000000
  -V(xc)+E(xc)   XCENC  =       219.01864018
  PAW double counting   =      5128.03547904    -5618.33128148
  entropy T*S    EENTRO =        -0.00000000
  eigenvalues    EBANDS =      -244.84867156
  atomic energy  EATOM  =      5563.90821598
  ---------------------------------------------------
  free energy    TOTEN  =       -49.72666185 eV

  energy without entropy =      -49.72666185  energy(sigma->0) =      -49.72666185


--------------------------------------------------------------------------------------------------------




--------------------------------------- Iteration      1(  18)  ---------------------------------------


    POTLOK:  cpu time      2.6194: real time      2.6196
    SETDIJ:  cpu time      0.7407: real time      0.7407
    TRIAL :  cpu time      1.2190: real time      1.2191
    CORREC:  cpu time      4.0098: real time      4.0101
    CHARGE:  cpu time      0.3127: real time      0.3127
    --------------------------------------------
      LOOP:  cpu time      8.9083: real time      8.9091

 eigenvalue-minimisations  :     0
 total energy-change (2. order) :-0.1658934E-03  (-0.1960459E-04)
 number of electron      44.0000023 magnetization 
 augmentation part       28.5026901 magnetization 

 Free energy of the ion-electron system (eV)
  ---------------------------------------------------
  alpha Z        PSCENC =         1.18414354
  Ewald energy   TEWEN  =      2026.83575057
  -Hartree energ DENC   =     -7124.42456579
  -exchange      EXHF   =         0.00000000
  -V(xc)+E(xc)   XCENC  =       218.97224127
  PAW double counting   =      5127.37384318    -5617.37618954
  entropy T*S    EENTRO =        -0.00000000
  eigenvalues    EBANDS =      -246.20026694
  atomic energy  EATOM  =      5563.90821598
  ---------------------------------------------------
  free energy    TOTEN  =       -49.72682774 eV

  energy without entropy =      -49.72682774  energy(sigma->0) =      -49.72682774


--------------------------------------------------------------------------------------------------------




--------------------------------------- Iteration      1(  19)  ---------------------------------------


    POTLOK:  cpu time      2.6157: real time      2.6159
    SETDIJ:  cpu time      0.7443: real time      0.7443
    TRIAL :  cpu time      1.2224: real time      1.2224
    CORREC:  cpu time      3.9694: real time      3.9703
    CHARGE:  cpu time      0.3138: real time      0.3138
    --------------------------------------------
      LOOP:  cpu time      8.8680: real time      8.8737

 eigenvalue-minimisations  :     0
 total energy-change (2. order) : 0.1380082E-05  ( 0.1050223E-03)
 number of electron      44.0000023 magnetization 
 augmentation part       28.5026175 magnetization 

 Free energy of the ion-electron system (eV)
  ---------------------------------------------------
  alpha Z        PSCENC =         1.18414354
  Ewald energy   TEWEN  =      2026.83575057
  -Hartree energ DENC   =     -7124.18507990
  -exchange      EXHF   =         0.00000000
  -V(xc)+E(xc)   XCENC  =       218.96251487
  PAW double counting   =      5127.23657162    -5617.18235642
  entropy T*S    EENTRO =        -0.00000000
  eigenvalues    EBANDS =      -246.48658663
  atomic energy  EATOM  =      5563.90821598
  ---------------------------------------------------
  free energy    TOTEN  =       -49.72682636 eV

  energy without entropy =      -49.72682636  energy(sigma->0) =      -49.72682636


--------------------------------------------------------------------------------------------------------




--------------------------------------- Iteration      1(  20)  ---------------------------------------


    POTLOK:  cpu time      2.6166: real time      2.6169
    SETDIJ:  cpu time      0.7419: real time      0.7419
    TRIAL :  cpu time      1.2191: real time      1.2191
    CORREC:  cpu time      3.9709: real time      3.9717
    CHARGE:  cpu time      0.3136: real time      0.3137
    --------------------------------------------
      LOOP:  cpu time      8.8687: real time      8.8704

 eigenvalue-minimisations  :     0
 total energy-change (2. order) :-0.4745114E-04  ( 0.5859536E-05)
 number of electron      44.0000023 magnetization 
 augmentation part       28.5025455 magnetization 

 Free energy of the ion-electron system (eV)
  ---------------------------------------------------
  alpha Z        PSCENC =         1.18414354
  Ewald energy   TEWEN  =      2026.83575057
  -Hartree energ DENC   =     -7124.12249488
  -exchange      EXHF   =         0.00000000
  -V(xc)+E(xc)   XCENC  =       218.96090599
  PAW double counting   =      5127.21912147    -5617.17032642
  entropy T*S    EENTRO =        -0.00000000
  eigenvalues    EBANDS =      -246.54219006
  atomic energy  EATOM  =      5563.90821598
  ---------------------------------------------------
  free energy    TOTEN  =       -49.72687382 eV

  energy without entropy =      -49.72687382  energy(sigma->0) =      -49.72687382


--------------------------------------------------------------------------------------------------------




--------------------------------------- Iteration      1(  21)  ---------------------------------------


    POTLOK:  cpu time      2.6150: real time      2.6152
    SETDIJ:  cpu time      0.7499: real time      0.7499
    TRIAL :  cpu time      1.2201: real time      1.2202
    CORREC:  cpu time      3.9698: real time      3.9707
    CHARGE:  cpu time      0.3134: real time      0.3134
    --------------------------------------------
      LOOP:  cpu time      8.8747: real time      8.8763

 eigenvalue-minimisations  :     0
 total energy-change (2. order) :-0.2065842E-04  ( 0.1606933E-05)
 number of electron      44.0000023 magnetization 
 augmentation part       28.5025145 magnetization 

 Free energy of the ion-electron system (eV)
  ---------------------------------------------------
  alpha Z        PSCENC =         1.18414354
  Ewald energy   TEWEN  =      2026.83575057
  -Hartree energ DENC   =     -7124.08972614
  -exchange      EXHF   =         0.00000000
  -V(xc)+E(xc)   XCENC  =       218.95994805
  PAW double counting   =      5127.22662859    -5617.18036374
  entropy T*S    EENTRO =        -0.00000000
  eigenvalues    EBANDS =      -246.57149131
  atomic energy  EATOM  =      5563.90821598
  ---------------------------------------------------
  free energy    TOTEN  =       -49.72689447 eV

  energy without entropy =      -49.72689447  energy(sigma->0) =      -49.72689447


--------------------------------------------------------------------------------------------------------




--------------------------------------- Iteration      1(  22)  ---------------------------------------


    POTLOK:  cpu time      2.6207: real time      2.6208
    SETDIJ:  cpu time      0.7400: real time      0.7401
    TRIAL :  cpu time      1.2191: real time      1.2192
    CORREC:  cpu time      3.9721: real time      3.9732
    CHARGE:  cpu time      0.3149: real time      0.3149
    --------------------------------------------
      LOOP:  cpu time      8.8737: real time      8.8753

 eigenvalue-minimisations  :     0
 total energy-change (2. order) :-0.1434518E-04  ( 0.1225715E-05)
 number of electron      44.0000023 magnetization 
 augmentation part       28.5024520 magnetization 

 Free energy of the ion-electron system (eV)
  ---------------------------------------------------
  alpha Z        PSCENC =         1.18414354
  Ewald energy   TEWEN  =      2026.83575057
  -Hartree energ DENC   =     -7124.07617213
  -exchange      EXHF   =         0.00000000
  -V(xc)+E(xc)   XCENC  =       218.95952077
  PAW double counting   =      5127.24990208    -5617.20606107
  entropy T*S    EENTRO =        -0.00000000
  eigenvalues    EBANDS =      -246.58220855
  atomic energy  EATOM  =      5563.90821598
  ---------------------------------------------------
  free energy    TOTEN  =       -49.72690882 eV

  energy without entropy =      -49.72690882  energy(sigma->0) =      -49.72690882


--------------------------------------------------------------------------------------------------------




--------------------------------------- Iteration      1(  23)  ---------------------------------------


    POTLOK:  cpu time      2.6158: real time      2.6160
    SETDIJ:  cpu time      0.7431: real time      0.7432
    TRIAL :  cpu time      1.2185: real time      1.2186
    CORREC:  cpu time      3.9738: real time      3.9740
    CHARGE:  cpu time      0.3113: real time      0.3113
    --------------------------------------------
      LOOP:  cpu time      8.8654: real time      8.8703

 eigenvalue-minimisations  :     0
 total energy-change (2. order) :-0.8659441E-05  ( 0.6073244E-06)
 number of electron      44.0000023 magnetization 
 augmentation part       28.5024411 magnetization 

 Free energy of the ion-electron system (eV)
  ---------------------------------------------------
  alpha Z        PSCENC =         1.18414354
  Ewald energy   TEWEN  =      2026.83575057
  -Hartree energ DENC   =     -7124.06421929
  -exchange      EXHF   =         0.00000000
  -V(xc)+E(xc)   XCENC  =       218.95905412
  PAW double counting   =      5127.27307147    -5617.22970866
  entropy T*S    EENTRO =        -0.00000000
  eigenvalues    EBANDS =      -246.59322521
  atomic energy  EATOM  =      5563.90821598
  ---------------------------------------------------
  free energy    TOTEN  =       -49.72691748 eV

  energy without entropy =      -49.72691748  energy(sigma->0) =      -49.72691748


--------------------------------------------------------------------------------------------------------




--------------------------------------- Iteration      1(  24)  ---------------------------------------


    POTLOK:  cpu time      2.6149: real time      2.6152
    SETDIJ:  cpu time      0.7386: real time      0.7387
    TRIAL :  cpu time      1.2174: real time      1.2174
    CORREC:  cpu time      3.9728: real time      3.9730
    CHARGE:  cpu time      0.3118: real time      0.3118
    --------------------------------------------
      LOOP:  cpu time      8.8594: real time      8.8632

 eigenvalue-minimisations  :     0
 total energy-change (2. order) :-0.8681690E-05  ( 0.6666630E-06)
 number of electron      44.0000023 magnetization 
 augmentation part       28.5023858 magnetization 

 Free energy of the ion-electron system (eV)
  ---------------------------------------------------
  alpha Z        PSCENC =         1.18414354
  Ewald energy   TEWEN  =      2026.83575057
  -Hartree energ DENC   =     -7124.06203608
  -exchange      EXHF   =         0.00000000
  -V(xc)+E(xc)   XCENC  =       218.95893832
  PAW double counting   =      5127.30271602    -5617.26086866
  entropy T*S    EENTRO =        -0.00000000
  eigenvalues    EBANDS =      -246.59378585
  atomic energy  EATOM  =      5563.90821598
  ---------------------------------------------------
  free energy    TOTEN  =       -49.72692616 eV

  energy without entropy =      -49.72692616  energy(sigma->0) =      -49.72692616


--------------------------------------------------------------------------------------------------------




--------------------------------------- Iteration      1(  25)  ---------------------------------------


    POTLOK:  cpu time      2.6183: real time      2.6185
    SETDIJ:  cpu time      0.7462: real time      0.7464
    TRIAL :  cpu time      1.2197: real time      1.2198
    CORREC:  cpu time      3.9795: real time      3.9798
    CHARGE:  cpu time      0.3142: real time      0.3142
    --------------------------------------------
      LOOP:  cpu time      8.8808: real time      8.8855

 eigenvalue-minimisations  :     0
 total energy-change (2. order) :-0.1292085E-04  ( 0.1080316E-06)
 number of electron      44.0000023 magnetization 
 augmentation part       28.5023264 magnetization 

 Free energy of the ion-electron system (eV)
  ---------------------------------------------------
  alpha Z        PSCENC =         1.18414354
  Ewald energy   TEWEN  =      2026.83575057
  -Hartree energ DENC   =     -7124.05394017
  -exchange      EXHF   =         0.00000000
  -V(xc)+E(xc)   XCENC  =       218.95855967
  PAW double counting   =      5127.35474907    -5617.31457333
  entropy T*S    EENTRO =        -0.00000000
  eigenvalues    EBANDS =      -246.59984441
  atomic energy  EATOM  =      5563.90821598
  ---------------------------------------------------
  free energy    TOTEN  =       -49.72693908 eV

  energy without entropy =      -49.72693908  energy(sigma->0) =      -49.72693908


--------------------------------------------------------------------------------------------------------




--------------------------------------- Iteration      1(  26)  ---------------------------------------


    POTLOK:  cpu time      2.6204: real time      2.6206
    SETDIJ:  cpu time      0.7456: real time      0.7457
    TRIAL :  cpu time      1.2198: real time      1.2199
    CORREC:  cpu time      3.9722: real time      3.9733
    CHARGE:  cpu time      0.3136: real time      0.3136
    --------------------------------------------
      LOOP:  cpu time      8.8783: real time      8.8798

 eigenvalue-minimisations  :     0
 total energy-change (2. order) :-0.2046560E-05  ( 0.2538260E-07)
 number of electron      44.0000023 magnetization 
 augmentation part       28.5023771 magnetization 

 Free energy of the ion-electron system (eV)
  ---------------------------------------------------
  alpha Z        PSCENC =         1.18414354
  Ewald energy   TEWEN  =      2026.83575057
  -Hartree energ DENC   =     -7124.04747617
  -exchange      EXHF   =         0.00000000
  -V(xc)+E(xc)   XCENC  =       218.95822550
  PAW double counting   =      5127.36880685    -5617.32713030
  entropy T*S    EENTRO =        -0.00000000
  eigenvalues    EBANDS =      -246.60747709
  atomic energy  EATOM  =      5563.90821598
  ---------------------------------------------------
  free energy    TOTEN  =       -49.72694113 eV

  energy without entropy =      -49.72694113  energy(sigma->0) =      -49.72694113


--------------------------------------------------------------------------------------------------------




--------------------------------------- Iteration      1(  27)  ---------------------------------------


    POTLOK:  cpu time      2.6203: real time      2.6204
    SETDIJ:  cpu time      0.7393: real time      0.7393
    TRIAL :  cpu time      1.2235: real time      1.2236
    CORREC:  cpu time      3.9749: real time      3.9751
    CHARGE:  cpu time      0.3130: real time      0.3130
    --------------------------------------------
      LOOP:  cpu time      8.8730: real time      8.8788

 eigenvalue-minimisations  :     0
 total energy-change (2. order) :-0.4529632E-05  ( 0.4856941E-07)
 number of electron      44.0000023 magnetization 
 augmentation part       28.5023456 magnetization 

 Free energy of the ion-electron system (eV)
  ---------------------------------------------------
  alpha Z        PSCENC =         1.18414354
  Ewald energy   TEWEN  =      2026.83575057
  -Hartree energ DENC   =     -7124.05538393
  -exchange      EXHF   =         0.00000000
  -V(xc)+E(xc)   XCENC  =       218.95852620
  PAW double counting   =      5127.38974699    -5617.35052478
  entropy T*S    EENTRO =        -0.00000000
  eigenvalues    EBANDS =      -246.59742022
  atomic energy  EATOM  =      5563.90821598
  ---------------------------------------------------
  free energy    TOTEN  =       -49.72694566 eV

  energy without entropy =      -49.72694566  energy(sigma->0) =      -49.72694566


--------------------------------------------------------------------------------------------------------




--------------------------------------- Iteration      1(  28)  ---------------------------------------


    POTLOK:  cpu time      2.6185: real time      2.6186
    SETDIJ:  cpu time      0.7415: real time      0.7416
    TRIAL :  cpu time      1.2188: real time      1.2189
    CORREC:  cpu time      4.0062: real time      4.0071
    CHARGE:  cpu time      0.3143: real time      0.3143
    --------------------------------------------
      LOOP:  cpu time      8.9019: real time      8.9074

 eigenvalue-minimisations  :     0
 total energy-change (2. order) :-0.5234207E-05  (-0.4915485E-07)
 number of electron      44.0000023 magnetization 
 augmentation part       28.5022995 magnetization 

 Free energy of the ion-electron system (eV)
  ---------------------------------------------------
  alpha Z        PSCENC =         1.18414354
  Ewald energy   TEWEN  =      2026.83575057
  -Hartree energ DENC   =     -7124.05223530
  -exchange      EXHF   =         0.00000000
  -V(xc)+E(xc)   XCENC  =       218.95833302
  PAW double counting   =      5127.41918470    -5617.37992535
  entropy T*S    EENTRO =        -0.00000000
  eigenvalues    EBANDS =      -246.60041805
  atomic energy  EATOM  =      5563.90821598
  ---------------------------------------------------
  free energy    TOTEN  =       -49.72695089 eV

  energy without entropy =      -49.72695089  energy(sigma->0) =      -49.72695089


--------------------------------------------------------------------------------------------------------




--------------------------------------- Iteration      1(  29)  ---------------------------------------


    POTLOK:  cpu time      2.6168: real time      2.6170
    SETDIJ:  cpu time      0.7428: real time      0.7429
    TRIAL :  cpu time      1.2192: real time      1.2193
    CORREC:  cpu time      3.9732: real time      3.9743
    EDDIAG:  cpu time      0.3325: real time      0.3328
    CHARGE:  cpu time      0.3129: real time      0.3129
    --------------------------------------------
      LOOP:  cpu time      9.2089: real time      9.2108

 eigenvalue-minimisations  :     0
 total energy-change (2. order) :-0.3715923E-07  ( 0.1319599E-08)
 number of electron      44.0000023 magnetization 
 augmentation part       28.5023399 magnetization 

 Free energy of the ion-electron system (eV)
  ---------------------------------------------------
  alpha Z        PSCENC =         1.18414354
  Ewald energy   TEWEN  =      2026.83575057
  -Hartree energ DENC   =     -7124.04560473
  -exchange      EXHF   =         0.00000000
  -V(xc)+E(xc)   XCENC  =       218.95803839
  PAW double counting   =      5127.41926528    -5617.37838856
  entropy T*S    EENTRO =        -0.00000000
  eigenvalues    EBANDS =      -246.60837140
  atomic energy  EATOM  =      5563.90821598
  ---------------------------------------------------
  free energy    TOTEN  =       -49.72695093 eV

  energy without entropy =      -49.72695093  energy(sigma->0) =      -49.72695093


--------------------------------------------------------------------------------------------------------


  average scaling for gradient   1.6920


 average (electrostatic) potential at core
  the test charge radii are     0.9430
  (the norm of the test charge is              1.0000)
       1 -78.6765       2 -79.5532       3 -79.6749       4 -79.7611



 E-fermi :  -4.2976     XC(G=0):  -0.1370     alpha+bet : -0.0642

 Fermi energy:        -4.2975714919

 k-point     1 :       0.0000    0.0000    0.0000
  band No.  band energies     occupation 
      1      -7.9869      2.00000
      2      -6.7546      2.00000
      3      -6.5813      2.00000
      4      -6.4523      2.00000
      5      -6.4297      2.00000
      6      -5.9883      2.00000
      7      -5.9017      2.00000
      8      -5.8379      2.00000
      9      -5.6946      2.00000
     10      -5.5711      2.00000
     11      -5.4642      2.00000
     12      -5.4432      2.00000
     13      -5.4195      2.00000
     14      -5.3681      2.00000
     15      -5.3107      2.00000
     16      -5.2767      2.00000
     17      -4.7853      2.00000
     18      -4.6415      2.00000
     19      -4.6378      2.00000
     20      -4.6173      2.00000
     21      -4.6081      2.00000
     22      -4.5300      2.00000
     23      -3.4032      0.00000
     24      -2.3437      0.00000
     25      -1.6638      0.00000
     26      -0.8194      0.00000
     27      -0.5999      0.00000
     28      -0.2531      0.00000
     29      -0.0082      0.00000
     30       0.1120      0.00000
     31       0.3658      0.00000
     32       0.3936      0.00000
     33       0.4133      0.00000
     34       0.4234      0.00000
     35       0.4543      0.00000
     36       0.5016      0.00000
     37       0.5885      0.00000
     38       0.6622      0.00000
     39       0.7170      0.00000
     40       0.7194      0.00000
     41       0.7253      0.00000
     42       0.7270      0.00000
     43       0.7387      0.00000
     44       0.7439      0.00000
     45       0.7719      0.00000
     46       0.8034      0.00000
     47       0.8289      0.00000
     48       0.8900      0.00000
     49       0.8934      0.00000
     50       1.0186      0.00000
     51       1.0325      0.00000
     52       1.0618      0.00000
     53       1.0696      0.00000
     54       1.0933      0.00000
     55       1.1258      0.00000
     56       1.1623      0.00000
     57       1.2094      0.00000
     58       1.2852      0.00000
     59       1.3194      0.00000
     60       1.3427      0.00000
     61       1.4069      0.00000
     62       1.4137      0.00000
     63       1.4574      0.00000
     64       1.5044      0.00000
     65       1.6074      0.00000
     66       1.6087      0.00000
     67       1.6237      0.00000
     68       1.6411      0.00000
     69       1.6452      0.00000
     70       1.6475      0.00000
     71       1.6663      0.00000
     72       1.6765      0.00000
     73       1.6892      0.00000
     74       1.6998      0.00000
     75       1.7171      0.00000
     76       1.7199      0.00000
     77       1.7381      0.00000
     78       1.7416      0.00000
     79       1.7470      0.00000
     80       1.7491      0.00000
     81       1.7578      0.00000
     82       1.7592      0.00000
     83       1.7856      0.00000
     84       1.7902      0.00000
     85       1.8104      0.00000
     86       1.8193      0.00000
     87       1.8626      0.00000
     88       1.8704      0.00000
     89       1.9135      0.00000
     90       1.9735      0.00000
     91       1.9741      0.00000
     92       1.9895      0.00000
     93       1.9924      0.00000
     94       2.0114      0.00000
     95       2.0144      0.00000
     96       2.0287      0.00000


--------------------------------------------------------------------------------------------------------


 soft charge-density along one line, spin component           1
         0         1         2         3         4         5         6         7         8         9
 total charge-density along one line

 pseudopotential strength for first ion, spin component:           1
 -9.885  -0.000  -0.000  -0.035   0.001   0.436   0.000   0.000
 -0.000  -9.929  -0.016  -0.001   0.036   0.000   0.474   0.013
 -0.000  -0.016  -9.893   0.000  -0.042   0.000   0.013   0.444
 -0.035  -0.001   0.000  -9.858  -0.001   0.029   0.000  -0.000
  0.001   0.036  -0.042  -0.001  -9.876  -0.000  -0.031   0.034
  0.436   0.000   0.000   0.029  -0.000   6.898  -0.000   0.000
  0.000   0.474   0.013   0.000  -0.031  -0.000   6.871  -0.010
  0.000   0.013   0.444  -0.000   0.034   0.000  -0.010   6.891
  0.029   0.000  -0.000   0.415   0.001  -0.023  -0.000  -0.000
 -0.000  -0.031   0.034   0.001   0.431   0.000   0.022  -0.027
  0.000   0.016   0.002   0.000  -0.015  -0.000  -0.002  -0.000
  0.000   0.029   0.004   0.000  -0.026   0.000   0.000   0.000
 -0.000  -0.019   0.012  -0.000   0.023   0.000   0.014  -0.003
 -0.000  -0.024  -0.022  -0.000   0.000   0.000   0.015   0.009
 -0.022  -0.000   0.000  -0.019  -0.000   0.008   0.000   0.000
 -0.000  -0.021   0.012  -0.000   0.025   0.000   0.013   0.001
 -0.000  -0.027  -0.024  -0.000   0.001   0.000   0.011   0.003
 -0.023  -0.000   0.000  -0.019  -0.000   0.001   0.000   0.000
 total augmentation occupancy for first ion, spin component:           1
  1.971  -0.000   0.000  -0.008  -0.000  -0.019   0.000   0.000   0.006  -0.000  -0.000   0.000   0.000   0.000   0.054   0.000
 -0.000   1.960  -0.013  -0.000   0.001   0.000  -0.003   0.006   0.000  -0.011  -0.079   0.001   0.082   0.096   0.000  -0.031
  0.000  -0.013   1.957  -0.000  -0.018   0.000   0.006  -0.016   0.000   0.004  -0.009   0.000  -0.024   0.062  -0.000   0.021
 -0.008  -0.000  -0.000   1.977  -0.000   0.006   0.000   0.000  -0.021   0.000  -0.001   0.000   0.000   0.000   0.042  -0.000
 -0.000   0.001  -0.018  -0.000   1.960  -0.000  -0.011   0.004   0.000  -0.014   0.070  -0.005  -0.081  -0.016   0.000   0.038
 -0.019   0.000   0.000   0.006  -0.000   0.002   0.000  -0.000   0.001  -0.000   0.000  -0.000   0.000   0.000   0.004  -0.000
  0.000  -0.003   0.006   0.000  -0.011   0.000   0.006   0.001   0.000  -0.003   0.071  -0.006   0.013   0.012   0.000  -0.002
  0.000   0.006  -0.016   0.000   0.004  -0.000   0.001   0.002   0.000   0.001   0.011  -0.000  -0.002   0.004  -0.000   0.000
  0.006   0.000   0.000  -0.021   0.000   0.001   0.000   0.000   0.001  -0.000   0.000  -0.000   0.000   0.000   0.003  -0.000
 -0.000  -0.011   0.004   0.000  -0.014  -0.000  -0.003   0.001  -0.000   0.003  -0.046   0.004  -0.011  -0.005  -0.000   0.001
 -0.000  -0.079  -0.009  -0.001   0.070   0.000   0.071   0.011   0.000  -0.046   1.902  -0.133   0.218   0.177   0.001  -0.025
  0.000   0.001   0.000   0.000  -0.005  -0.000  -0.006  -0.000  -0.000   0.004  -0.133   0.010  -0.019  -0.014  -0.000   0.002
  0.000   0.082  -0.024   0.000  -0.081   0.000   0.013  -0.002   0.000  -0.011   0.218  -0.019   0.052   0.027   0.000  -0.008
  0.000   0.096   0.062   0.000  -0.016   0.000   0.012   0.004   0.000  -0.005   0.177  -0.014   0.027   0.035   0.000  -0.004
  0.054   0.000  -0.000   0.042   0.000   0.004   0.000  -0.000   0.003  -0.000   0.001  -0.000   0.000   0.000   0.013  -0.000
  0.000  -0.031   0.021  -0.000   0.038  -0.000  -0.002   0.000  -0.000   0.001  -0.025   0.002  -0.008  -0.004  -0.000   0.002
 -0.000  -0.039  -0.036  -0.000   0.000  -0.000  -0.001  -0.000  -0.000   0.001  -0.019   0.002  -0.004  -0.006  -0.000   0.001
 -0.038  -0.000   0.000  -0.030  -0.000  -0.000  -0.000  -0.000  -0.000   0.000  -0.000   0.000  -0.000  -0.000  -0.003  -0.000


------------------------ aborting loop because EDIFF is reached ----------------------------------------


    FORLOC:  cpu time      0.0029: real time      0.0029
    FORNL :  cpu time      0.1328: real time      0.1329
    STRESS:  cpu time      4.3458: real time      4.3462
    FORCOR:  cpu time      1.7053: real time      1.7055
    OFIELD:  cpu time      0.0003: real time      0.0003

  FORCE on cell =-STRESS in cart. coord.  units (eV):
  Direction    XX          YY          ZZ          XY          YZ          ZX
  --------------------------------------------------------------------------------------
  Alpha Z     1.18414     1.18414     1.18414
  Ewald    -596.14737  1814.27973   808.70300     3.34107   509.51886     8.38478
  Hartree  1355.26367  3357.32927  2411.45789     2.74872   418.83902     6.39386
  E(xc)    -283.79944  -283.29434  -283.35930     0.00112     0.17194     0.00260
  Local   -1143.16135 -5541.40658 -3584.65266    -6.07202  -925.93068   -14.66876
  n-local   -96.95731   -97.12164   -99.65581    -0.00357     0.62510    -0.00745
  augment   395.97960   387.32401   386.43808     0.02095    -1.72647    -0.09292
  Kinetic   367.68103   359.36292   358.09114    -0.01225    -1.46274    -0.05288
  Fock        0.00000     0.00000     0.00000     0.00000     0.00000     0.00000
  -------------------------------------------------------------------------------------
  Total       0.04297    -2.34248    -1.79351     0.02402     0.03503    -0.04077
  in kB       0.00697    -0.37980    -0.29080     0.00390     0.00568    -0.00661
  external pressure =       -0.22 kB  Pullay stress =        0.00 kB


 VOLUME and BASIS-vectors are now :
 -----------------------------------------------------------------------------
  energy-cutoff  :      520.00
  volume of cell :     9881.61
      direct lattice vectors                 reciprocal lattice vectors
    21.138852197  0.000000000  0.000000000     0.047306258  0.000000000  0.000000000
     0.000000000 21.138852197  0.000000000     0.000000000  0.047306258  0.000000000
     0.000000000  0.000000000 22.113885220     0.000000000  0.000000000  0.045220457

  length of vectors
    21.138852197 21.138852197 22.113885220     0.047306258  0.047306258  0.045220457


 FORCES acting on ions:
    Electron-Ion                     Ewald-Force                    Non-Local-Force
 -----------------------------------------------------------------------------------------------
   0.153E+01 0.471E+03 0.253E+03   -.148E+01 -.459E+03 -.244E+03   -.407E-01 -.111E+02 -.907E+01
   -.174E+01 0.262E+03 -.312E+03   0.168E+01 -.262E+03 0.302E+03   0.208E-01 0.414E+00 0.920E+01
   -.278E+01 -.421E+03 -.477E+03   0.271E+01 0.414E+03 0.464E+03   -.217E-01 0.757E+01 0.125E+02
   0.300E+01 -.311E+03 0.540E+03   -.290E+01 0.308E+03 -.523E+03   -.534E-01 0.247E+01 -.163E+02
 -----------------------------------------------------------------------------------------------
   0.546E-02 0.602E+00 0.361E+01   0.000E+00 -.568E-13 -.284E-13   -.949E-01 -.616E+00 -.367E+01


 POSITION                                       TOTAL-FORCE (eV/Angst)
 -----------------------------------------------------------------------------------
      8.46039      8.90641     13.11119         0.032401      0.405786      0.296404
      8.46878     10.69052     14.51992        -0.017926      0.415443     -0.674859
      8.47353     12.97033     15.28534        -0.068001     -0.278417     -0.403799
      8.46080     12.56080     13.05418         0.053526     -0.542812      0.782254
 -----------------------------------------------------------------------------------
    total drift:                               -0.089484     -0.014604     -0.063117


--------------------------------------------------------------------------------------------------------



  FREE ENERGIE OF THE ION-ELECTRON SYSTEM (eV)
  ---------------------------------------------------
  free  energy   TOTEN  =       -49.72695093 eV

  energy  without entropy=      -49.72695093  energy(sigma->0) =      -49.72695093



--------------------------------------------------------------------------------------------------------


    POTLOK:  cpu time      2.5010: real time      2.5017


--------------------------------------------------------------------------------------------------------


     LOOP+:  cpu time    237.2184: real time    237.3259
    4ORBIT:  cpu time      0.0000: real time      0.0000

 total amount of memory used by VASP MPI-rank0   153787. kBytes
=======================================================================

   base      :      30000. kBytes
   nonlr-proj:       1541. kBytes
   fftplans  :      35474. kBytes
   grid      :      83562. kBytes
   one-center:         15. kBytes
   wavefun   :       3195. kBytes

  
  
 General timing and accounting informations for this job:
 ========================================================
  
                  Total CPU time used (sec):      260.262
                            User time (sec):      258.805
                          System time (sec):        1.456
                         Elapsed time (sec):      262.400
  
                   Maximum memory used (kb):      525004.
                   Average memory used (kb):          N/A
  
                          Minor page faults:        30364
                          Major page faults:            0
                 Voluntary context switches:        10069
