 vasp.6.3.0 20Jan22 (build Apr  1 2022 16:44:48) complex                         
 executed on        HPECrayEX_GCC date 2023.01.10  03:32:00
 running  512 mpi-ranks, with    1 threads/rank
 distrk:  each k-point on  256 cores,    2 groups
 distr:  one band on NCORE=   4 cores,   64 groups


--------------------------------------------------------------------------------------------------------


 INCAR:
   SYSTEM = MgO-rocksalt
   ISMEAR = 0
   SIGMA = 0.05
   EDIFF = 1E-6
   ALGO = ALL
   ISTART = 0
   IBRION = -1
   NSW = 0
   ISYM = 2
   LHFCALC = .TRUE.
   GGA = PE
   IVDW = 21
   VDW_SR = 0.96
   ENCUT = 520
   PREC = Accurate
   LASPH = .TRUE.
   LREAL = Auto
   ISPIN = 1
   NELM = 200
   NELMIN = 8
   NCORE = 4
   KPAR = 2
   LWAVE = .FALSE.
   LCHARG = .FALSE.

 POTCAR:    PAW_PBE Au 04Oct2007                  
 -----------------------------------------------------------------------------
|                                                                             |
|           W    W    AA    RRRRR   N    N  II  N    N   GGGG   !!!           |
|           W    W   A  A   R    R  NN   N  II  NN   N  G    G  !!!           |
|           W    W  A    A  R    R  N N  N  II  N N  N  G       !!!           |
|           W WW W  AAAAAA  RRRRR   N  N N  II  N  N N  G  GGG   !            |
|           WW  WW  A    A  R   R   N   NN  II  N   NN  G    G                |
|           W    W  A    A  R    R  N    N  II  N    N   GGGG   !!!           |
|                                                                             |
|     You have selected ISYM=2 for a HF type calculation. This will           |
|     symmetrize the charge density but not the exchange potential. I         |
|     suggest to use ISYM=3 instead. This uses symmetry to obtain the         |
|     orbitals at all k-points in the Brillouin zone, but does not apply      |
|     symmetry to the Hartree potential directly. The resultant charge        |
|     might have lower symmetry than the crystal but, at least, Hartree       |
|     and exchange are fully compatible.                                      |
|                                                                             |
 -----------------------------------------------------------------------------

 POTCAR:    PAW_PBE Au 04Oct2007                  
   SHA256 =  d0044ae04e2bdce24051b198fc5c053d722a5bc6fe3c3b100514a13fc5d2db88 Au/POTCAR             
   COPYR  = (c) Copyright 04Oct2007 Georg Kresse                                                    
   COPYR  = This file is part of the software VASP. Any use, copying, and all other rights are regul
   COPYR  = If you do not have a valid VASP license, you may not use, copy or distribute this file. 
   VRHFIN =Au: s1d10                                                                                
   LEXCH  = PE                                                                                      
   EATOM  =   926.0867 eV,   68.0654 Ry                                                             
                                                                                                    
   TITEL  = PAW_PBE Au 04Oct2007                                                                    
   LULTRA =        F    use ultrasoft PP ?                                                          
   IUNSCR =        1    unscreen: 0-lin 1-nonlin 2-no                                               
   RPACOR =    2.330    partial core radius                                                         
   POMASS =  196.966; ZVAL   =   11.000    mass and valenz                                          
   RCORE  =    2.500    outmost cutoff radius                                                       
   RWIGS  =    2.840; RWIGS  =    1.503    wigner-seitz radius (au A)                               
   ENMAX  =  229.943; ENMIN  =  172.457 eV                                                          
   ICORE  =        3    local potential                                                             
   LCOR   =        T    correct aug charges                                                         
   LPAW   =        T    paw PP                                                                      
   EAUG   =  356.670                                                                                
   DEXC   =    0.000                                                                                
   RMAX   =    2.562    core radius for proj-oper                                                   
   RAUG   =    1.300    factor for augmentation sphere                                              
   RDEP   =    2.598    radius for radial grids                                                     
   RDEPT  =    2.193    core radius for aug-charge                                                  
                                                                                                    
   Atomic configuration                                                                             
   16 entries                                                                                       
     n  l   j            E        occ.                                                              
     1  0  0.50    -80748.5001   2.0000                                                             
     2  0  0.50    -14244.7466   2.0000                                                             
     2  1  1.50    -12310.9591   6.0000                                                             
     3  0  0.50     -3362.1768   2.0000                                                             
     3  1  1.50     -2801.5463   6.0000                                                             
     3  2  2.50     -2203.8206  10.0000                                                             
     4  0  0.50      -729.8168   2.0000                                                             
     4  1  1.50      -546.0527   6.0000                                                             
     4  2  2.50      -325.7302  10.0000                                                             
     4  3  3.50       -81.1472  14.0000                                                             
     5  0  0.50      -108.3201   2.0000                                                             
     5  1  1.50       -59.7479   6.0000                                                             
     5  2  2.50        -6.8783  10.0000                                                             
     6  0  0.50        -5.7602   1.0000                                                             
     6  1  1.50        -6.8029   0.0000                                                             
     5  3  2.50        -1.3606   0.0000                                                             
   Description                                                                                      
     l       E           TYP  RCUT    TYP  RCUT                                                     
     2     -6.8782861     23  2.500                                                                 
     2     -8.2388687     23  2.500                                                                 
     0     -5.7601759     23  2.500                                                                 
     0     -0.8493231     23  2.500                                                                 
     1     -2.7211652     23  2.500                                                                 
     1     27.2116520     23  2.500                                                                 
     3     -1.3605826     23  2.500                                                                 
  local pseudopotential read in
  partial core-charges read in
  partial kinetic energy density read in
  atomic valenz-charges read in
  non local Contribution for L=           2  read in
    real space projection operators read in
  non local Contribution for L=           2  read in
    real space projection operators read in
  non local Contribution for L=           0  read in
    real space projection operators read in
  non local Contribution for L=           0  read in
    real space projection operators read in
  non local Contribution for L=           1  read in
    real space projection operators read in
  non local Contribution for L=           1  read in
    real space projection operators read in
    PAW grid and wavefunctions read in

   number of l-projection  operators is LMAX  =           6
   number of lm-projection operators is LMMAX =          18

 -----------------------------------------------------------------------------
|                                                                             |
|               ----> ADVICE to this user running VASP <----                  |
|                                                                             |
|     You have a (more or less) 'small supercell' and for smaller cells       |
|     it is recommended to use the reciprocal-space projection scheme!        |
|     The real-space optimization is not efficient for small cells and it     |
|     is also less accurate ...                                               |
|     Therefore, set LREAL=.FALSE. in the INCAR file.                         |
|                                                                             |
 -----------------------------------------------------------------------------

 Optimization of the real space projectors (new method)

 maximal supplied QI-value         = 15.12
 optimisation between [QCUT,QGAM] = [ 11.64, 23.28] = [ 37.95,151.78] Ry 
 Optimized for a Real-space Cutoff    1.49 Angstroem

   l    n(q)    QCUT    max X(q) W(low)/X(q) W(high)/X(q)  e(spline) 
   2      9    11.641    60.898    0.24E-03    0.10E-03    0.19E-06
   2      9    11.641    58.894    0.25E-03    0.10E-03    0.19E-06
   0     10    11.641   109.617    0.73E-04    0.33E-04    0.11E-06
   0     10    11.641    75.026    0.71E-04    0.32E-04    0.11E-06
   1     10    11.641    16.344    0.27E-04    0.97E-04    0.16E-06
   1     10    11.641    10.160    0.23E-04    0.77E-04    0.13E-06
  PAW_PBE Au 04Oct2007                  :
 energy of atom  1       EATOM= -926.0867
 kinetic energy error for atom=    0.0034 (will be added to EATOM!!)


 POSCAR: Au Mg  O
  positions in direct lattice
  No initial velocities read in
 exchange correlation table for  LEXCH =        8
   RHO(1)=    0.500       N(1)  =     2000
   RHO(2)=  100.500       N(2)  =     4000



--------------------------------------------------------------------------------------------------------


 ion  position               nearest neighbor table
   1  0.400  0.425  0.603-   2 2.53
   2  0.400  0.510  0.684-   1 2.53   3 2.68   4 2.74
   3  0.400  0.633  0.713-   4 2.57   2 2.68
   4  0.400  0.605  0.600-   3 2.57   2 2.74

  LATTYP: Found a simple tetragonal cell.
 ALAT       =    21.1388521970
 C/A-ratio  =     1.0461251639
  
  Lattice vectors:
  
 A1 = (  21.1388521970,   0.0000000000,   0.0000000000)
 A2 = (   0.0000000000,  21.1388521970,   0.0000000000)
 A3 = (   0.0000000000,   0.0000000000,  22.1138852197)


Analysis of symmetry for initial positions (statically):
=====================================================================
 Subroutine PRICEL returns:
 Original cell was already a primitive cell.
 

 Routine SETGRP: Setting up the symmetry group for a 
 simple tetragonal supercell.


 Subroutine GETGRP returns: Found  1 space group operations
 (whereof  1 operations were pure point group operations)
 out of a pool of 16 trial point group operations.


The static configuration has the point symmetry C_1 .


Analysis of symmetry for dynamics (positions and initial velocities):
=====================================================================
 Subroutine PRICEL returns:
 Original cell was already a primitive cell.
 

 Routine SETGRP: Setting up the symmetry group for a 
 simple tetragonal supercell.


 Subroutine GETGRP returns: Found  1 space group operations
 (whereof  1 operations were pure point group operations)
 out of a pool of 16 trial point group operations.


The dynamic configuration has the point symmetry C_1 .


Analysis of constrained symmetry for selective dynamics:
=====================================================================
 Subroutine PRICEL returns:
 Original cell was already a primitive cell.
 

 Routine SETGRP: Setting up the symmetry group for a 
 simple tetragonal supercell.


 Subroutine GETGRP returns: Found  1 space group operations
 (whereof  1 operations were pure point group operations)
 out of a pool of 16 trial point group operations.


The constrained configuration has the point symmetry C_1 .


 Subroutine INISYM returns: Found  1 space group operations
 (whereof  1 operations are pure point group operations),
 and found     1 'primitive' translations


----------------------------------------------------------------------------------------

                                     Primitive cell                                     

  volume of cell :    9881.6133

  direct lattice vectors                    reciprocal lattice vectors
    21.138852197  0.000000000  0.000000000     0.047306258  0.000000000  0.000000000
     0.000000000 21.138852197  0.000000000     0.000000000  0.047306258  0.000000000
     0.000000000  0.000000000 22.113885220     0.000000000  0.000000000  0.045220457

  length of vectors
    21.138852197 21.138852197 22.113885220     0.047306258  0.047306258  0.045220457

  position of ions in fractional coordinates (direct lattice)
     0.399951201  0.425242954  0.603301976
     0.399957296  0.509675129  0.684179581
     0.400053355  0.632584174  0.713145052
     0.399972466  0.604759939  0.599963044

  ion indices of the primitive-cell ions
   primitive index   ion index
                 1           1
                 2           2
                 3           3
                 4           4

----------------------------------------------------------------------------------------



 KPOINTS: KPOINTS created by Atomic Simulation Env

Automatic generation of k-mesh.
 Grid dimensions read from file:
 generate k-points for:    1    1    1

 Generating k-lattice:

  Cartesian coordinates                     Fractional coordinates (reciprocal lattice)
     0.047306258  0.000000000  0.000000000     1.000000000  0.000000000  0.000000000
     0.000000000  0.047306258  0.000000000     0.000000000  1.000000000  0.000000000
     0.000000000  0.000000000  0.045220457     0.000000000  0.000000000  1.000000000

  Length of vectors
     0.047306258  0.047306258  0.045220457

  Shift w.r.t. Gamma in fractional coordinates (k-lattice)
     0.000000000  0.000000000  0.000000000

 
 Subroutine IBZKPT returns following result:
 ===========================================
 
 Found      1 irreducible k-points:
 
 Following reciprocal coordinates:
            Coordinates               Weight
  0.000000  0.000000  0.000000      1.000000
 
 Following cartesian coordinates:
            Coordinates               Weight
  0.000000  0.000000  0.000000      1.000000
 
 
 Subroutine IBZKPT_HF returns following result:
 ==============================================
 
 Found      1 k-points in 1st BZ
 the following      1 k-points will be used (e.g. in the exchange kernel)
 Following reciprocal coordinates:   # in IRBZ
  0.000000  0.000000  0.000000    1.00000000   1 t-inv F


--------------------------------------------------------------------------------------------------------




 Dimension of arrays:
   k-points           NKPTS =      1   k-points in BZ     NKDIM =      1   number of bands    NBANDS=     64
   number of dos      NEDOS =    301   number of ions     NIONS =      4
   non local maximal  LDIM  =      6   non local SUM 2l+1 LMDIM =     18
   total plane-waves  NPLWV = ******
   max r-space proj   IRMAX =   6070   max aug-charges    IRDMAX=  26812
   dimension x,y,z NGX =   160 NGY =  160 NGZ =  168
   dimension x,y,z NGXF=   320 NGYF=  320 NGZF=  336
   support grid    NGXF=   320 NGYF=  320 NGZF=  336
   ions per type =               4
   NGX,Y,Z   is equivalent  to a cutoff of  12.58, 12.58, 12.63 a.u.
   NGXF,Y,Z  is equivalent  to a cutoff of  25.17, 25.17, 25.26 a.u.

 SYSTEM =  MgO-rocksalt                            
 POSCAR =  Au Mg  O                                

 Startparameter for this run:
   NWRITE =      2    write-flag & timer
   PREC   = accura    normal or accurate (medium, high low for compatibility)
   ISTART =      0    job   : 0-new  1-cont  2-samecut
   ICHARG =      2    charge: 1-file 2-atom 10-const
   ISPIN  =      1    spin polarized calculation?
   LNONCOLLINEAR =      F non collinear calculations
   LSORBIT =      F    spin-orbit coupling
   INIWAV =      1    electr: 0-lowe 1-rand  2-diag
   LASPH  =      T    aspherical Exc in radial PAW
 Electronic Relaxation 1
   ENCUT  =  520.0 eV  38.22 Ry    6.18 a.u.  39.30 39.30 41.12*2*pi/ulx,y,z
   ENINI  =  520.0     initial cutoff
   ENAUG  =  356.7 eV  augmentation charge cutoff
   NELM   =    200;   NELMIN=  8; NELMDL= -5     # of ELM steps 
   EDIFF  = 0.1E-05   stopping-criterion for ELM
   LREAL  =      T    real-space projection
   NLSPLINE    = F    spline interpolate recip. space projectors
   LCOMPAT=      F    compatible to vasp.4.4
   GGA_COMPAT  = T    GGA compatible to vasp.4.4-vasp.4.6
   LMAXPAW     = -100 max onsite density
   LMAXMIX     =    2 max onsite mixed and CHGCAR
   VOSKOWN=      0    Vosko Wilk Nusair interpolation
   ROPT   =   -0.00025
 Ionic relaxation
   EDIFFG = 0.1E-04   stopping-criterion for IOM
   NSW    =      0    number of steps for IOM
   NBLOCK =      1;   KBLOCK =      1    inner block; outer block 
   IBRION =     -1    ionic relax: 0-MD 1-quasi-New 2-CG
   NFREE  =      0    steps in history (QN), initial steepest desc. (CG)
   ISIF   =      0    stress and relaxation
   IWAVPR =     10    prediction:  0-non 1-charg 2-wave 3-comb
   ISYM   =      2    0-nonsym 1-usesym 2-fastsym
   LCORR  =      T    Harris-Foulkes like correction to forces

   POTIM  = 0.5000    time-step for ionic-motion
   TEIN   =    0.0    initial temperature
   TEBEG  =    0.0;   TEEND  =   0.0 temperature during run
   SMASS  =  -3.00    Nose mass-parameter (am)
   estimated Nose-frequenzy (Omega)   =  0.10E-29 period in steps = 0.13E+47 mass=  -0.102E-25a.u.
   SCALEE = 1.0000    scale energy and forces
   NPACO  =    256;   APACO  = 10.0  distance and # of slots for P.C.
   PSTRESS=    0.0 pullay stress

  Mass of Ions in am
   POMASS = 196.97
  Ionic Valenz
   ZVAL   =  11.00
  Atomic Wigner-Seitz radii
   RWIGS  =  -1.00
  virtual crystal weights 
   VCA    =   1.00
   NELECT =      44.0000    total number of electrons
   NUPDOWN=      -1.0000    fix difference up-down

 DOS related values:
   EMIN   =  10.00;   EMAX   =-10.00  energy-range for DOS
   EFERMI =   0.00
   ISMEAR =     0;   SIGMA  =   0.05  broadening in eV -4-tet -1-fermi 0-gaus

 Electronic relaxation 2 (details)
   IALGO  =     58    algorithm
   LDIAG  =      T    sub-space diagonalisation (order eigenvalues)
   LSUBROT=      F    optimize rotation matrix (better conditioning)
   TURBO    =      0    0=normal 1=particle mesh
   IRESTART =      0    0=no restart 2=restart with 2 vectors
   NREBOOT  =      0    no. of reboots
   NMIN     =      0    reboot dimension
   EREF     =   0.00    reference energy to select bands
   IMIX   =      4    mixing-type and parameters
     AMIX     =   0.40;   BMIX     =  1.00
     AMIX_MAG =   1.60;   BMIX_MAG =  1.00
     AMIN     =   0.10
     WC   =   100.;   INIMIX=   1;  MIXPRE=   1;  MAXMIX= -45

 Intra band minimization:
   WEIMIN = 0.0000     energy-eigenvalue tresh-hold
   EBREAK =  0.39E-08  absolut break condition
   DEPER  =   0.30     relativ break condition  

   TIME   =   0.40     timestep for ELM

  volume/ion in A,a.u.               =    2470.40     16671.10
  Fermi-wavevector in a.u.,A,eV,Ry     =   0.269329  0.508958  0.986941  0.072538
  Thomas-Fermi vector in A             =   1.106612

 Write flags
   LWAVE        =      F    write WAVECAR
   LDOWNSAMPLE  =      F    k-point downsampling of WAVECAR
   LCHARG       =      F    write CHGCAR
   LVTOT        =      F    write LOCPOT, total local potential
   LVHAR        =      F    write LOCPOT, Hartree potential only
   LELF         =      F    write electronic localiz. function (ELF)
   LORBIT       =      0    0 simple, 1 ext, 2 COOP (PROOUT), +10 PAW based schemes


 Dipole corrections
   LMONO  =      F    monopole corrections only (constant potential shift)
   LDIPOL =      F    correct potential (dipole corrections)
   IDIPOL =      0    1-x, 2-y, 3-z, 4-all directions 
   EPSILON=  1.0000000 bulk dielectric constant

 Exchange correlation treatment:
   GGA     =    PE    GGA type
   LEXCH   =     8    internal setting for exchange type
   LIBXC   =     F    Libxc                    
   VOSKOWN =     0    Vosko Wilk Nusair interpolation
   EXXOEP  =     0    0=HF, 1=EXX-LHF (local Hartree Fock) 2=EXX OEP
   LHFCALC =     T    Hartree Fock is set to
   LSYMGRAD=     F    symmetrize gradient (conserves proper symmetry)
   PRECFOCK=normal    Normal, Fast or Accurate (Low or Medium for compatibility)
   LRHFCALC=     F    long range Hartree Fock
   LRSCOR  =     F    long range correlation only (use DFT for short range part)
   LTHOMAS =     F    Thomas Fermi screening in HF
   LMODELHF=     F    short range full HF, long range fraction AEXX
   LFOCKACE=     T    use Adeptively-Compressed-Exchange operator
   ENCUT4O =  -1.0   cutoff for four orbital integrals eV
   LMAXFOCK=     4    L truncation for augmentation on plane wave grid
   LMAXFOCKAE=  -1    L truncation for all-electron charge restoration on plane wave grid
   NMAXFOCKAE=   1    number of basis functions for all-electron charge restoration
   LFOCKAEDFT=     F  apply the AE augmentation even for DFT
   NKREDX  =     1    reduce k-point grid by
   NKREDY  =     1    reduce k-point grid by
   NKREDZ  =     1    reduce k-point grid by
   SHIFTRED=     F    shift reduced grid of Gamma
   HFKIDENT=     F    idential grid for each k-point
   ODDONLY =     F    use only odd q-grid points
   EVENONLY=     F    use only even q-grid points
   HFALPHA =   -1.0000 decay constant for conv. correction
   MCALPHA =    0.0000 extent of test-charge in conv. correction in multipole expansion
   AEXX    =    0.2500 exact exchange contribution
   HFSCREEN=    0.0000 screening length (either q_TF or 0.3 A-1)
   HFSCREENC=   0.0000 screening length for correlation (either q_TF or 0.3 A-1)
   HFRCUT  =    0.0000 spherical cutoff for potential kernel
   ALDAX   =    0.7500 LDA exchange part
   AGGAX   =    0.7500 GGA exchange part
   ALDAC   =    1.0000 LDA correlation
   AGGAC   =    1.0000 GGA correlation
   ENCUTFOCK=  -1.0 apply spherical cutoff to Coloumb kernel
   NBANDSGWLOW=     1    first orbital included in HF term
   NBLOCK_FOCK=    64    blocking factor in FOCK_ACC

 Linear response parameters
   LEPSILON=     F    determine dielectric tensor
   LRPA    =     F    only Hartree local field effects (RPA)
   LNABLA  =     F    use nabla operator in PAW spheres
   LVEL    =     F    velocity operator in full k-point grid
   CSHIFT  =0.1000    complex shift for real part using Kramers Kronig
   OMEGAMAX=  -1.0    maximum frequency
   DEG_THRESHOLD= 0.2000000E-02 threshold for treating states as degnerate
   RTIME   =   -0.100 relaxation time in fs
  (WPLASMAI=    0.000 imaginary part of plasma frequency in eV, 0.658/RTIME)
   DFIELD  = 0.0000000 0.0000000 0.0000000 field for delta impulse in time

  Optional k-point grid parameters
   LKPOINTS_OPT  =     F    use optional k-point grid
   KPOINTS_OPT_MODE=     1    mode for optional k-point grid

 Orbital magnetization related:
   ORBITALMAG=     F  switch on orbital magnetization
   LCHIMAG   =     F  perturbation theory with respect to B field
   DQ        =  0.001000  dq finite difference perturbation B field
   LLRAUG    =     F  two centre corrections for induced B field



--------------------------------------------------------------------------------------------------------


 Static calculation
 charge density and potential will be updated during run
 non-spin polarized calculation
 Conjugate gradient for all bands (Freysoldt, et al. PRB 79, 241103 (2009))
 preconditioned conjugated gradient                                        
 perform sub-space diagonalisation
    before iterative eigenvector-optimisation
 modified Broyden-mixing scheme, WC =      100.0
 initial mixing is a Kerker type mixing with AMIX =  0.4000 and BMIX =      1.0000
 Hartree-type preconditioning will be used
 using additional bands           42
 real space projection scheme for non local part
 use partial core corrections
 no Harris-corrections to forces 
 use gradient corrections 
 use of overlap-Matrix (Vanderbilt PP)
 Gauss-broadening in eV      SIGMA  =   0.05


--------------------------------------------------------------------------------------------------------


  energy-cutoff  :      520.00
  volume of cell :     9881.61
      direct lattice vectors                 reciprocal lattice vectors
    21.138852197  0.000000000  0.000000000     0.047306258  0.000000000  0.000000000
     0.000000000 21.138852197  0.000000000     0.000000000  0.047306258  0.000000000
     0.000000000  0.000000000 22.113885220     0.000000000  0.000000000  0.045220457

  length of vectors
    21.138852197 21.138852197 22.113885220     0.047306258  0.047306258  0.045220457



 k-points in units of 2pi/SCALE and weight: KPOINTS created by Atomic Simulation Env
   0.00000000  0.00000000  0.00000000       1.000

 k-points in reciprocal lattice and weights: KPOINTS created by Atomic Simulation Env
   0.00000000  0.00000000  0.00000000       1.000

 position of ions in fractional coordinates (direct lattice) 
   0.39995120  0.42524295  0.60330198
   0.39995730  0.50967513  0.68417958
   0.40005335  0.63258417  0.71314505
   0.39997247  0.60475994  0.59996304

 position of ions in cartesian coordinates  (Angst):
   8.45450932  8.98914795 13.34135064
   8.45463817 10.77394722 15.12986872
   8.45666874 13.37210335 15.77040783
   8.45495885 12.78393096 13.26751388



--------------------------------------------------------------------------------------------------------


 k-point   1 :   0.0000 0.0000 0.0000  plane waves:  265979

 maximum and minimum number of plane-waves per node :     66495    66494

 maximum number of plane-waves:    265979
 maximum index in each direction: 
   IXMAX=   39   IYMAX=   39   IZMAX=   41
   IXMIN=  -39   IYMIN=  -39   IZMIN=  -41


 real space projection operators:
  total allocation   :       3281.62 KBytes
  max/ min on nodes  :        826.03        816.61


 parallel 3D FFT for wavefunctions:
    minimum data exchange during FFTs selected (reduces bandwidth)
 parallel 3D FFT for charge:
    minimum data exchange during FFTs selected (reduces bandwidth)


 FFT grid for exact exchange (Hartree Fock) 
  NGX =120; NGY =120; NGZ =126


 Radii for the augmentation spheres in the non-local exchange
 for species   1 augmentation radius   1.512 (default was   1.210)
       energy cutoff for augmentation   2080.0

 real space projection operators:
  total allocation   :       2078.71 KBytes
  max/ min on nodes  :        528.52        515.62

 Maximum index for augmentation-charges in exchange          663
  SETUP_FOCK is finished

 total amount of memory used by VASP MPI-rank0   154023. kBytes
=======================================================================

   base      :      30000. kBytes
   nonlr-proj:       2241. kBytes
   fftplans  :      65038. kBytes
   grid      :      53473. kBytes
   one-center:         15. kBytes
   HF        :         64. kBytes
   wavefun   :       3192. kBytes

     INWAV:  cpu time      0.0001: real time      0.0002
 Broyden mixing: mesh for mixing (old mesh)
   NGX = 79   NGY = 79   NGZ = 83
  (NGX  =320   NGY  =320   NGZ  =336)
  gives a total of 518003 points

 initial charge density was supplied:
 charge density of overlapping atoms calculated
 number of electron      44.0000000 magnetization 
 keeping initial charge density in first step


--------------------------------------------------------------------------------------------------------


 Maximum index for non-local projection operator         1465
 Maximum index for augmentation-charges            0 (set IRDMAX)


--------------------------------------------------------------------------------------------------------


    FEWALD:  cpu time      0.0005: real time      0.0005


--------------------------------------- Iteration      1(   1)  ---------------------------------------


    POTLOK:  cpu time      0.1840: real time      0.1845
    SETDIJ:  cpu time      0.1837: real time      0.1837
    TRIAL :  cpu time      0.4563: real time      0.4568
    CORREC:  cpu time      0.0019: real time      0.0019
    --------------------------------------------
      LOOP:  cpu time      0.8281: real time      0.8291

 eigenvalue-minimisations  :   128
 total energy-change (2. order) :-0.9223108E+04  (-0.7393707E+03)
 number of electron      44.0000000 magnetization 
 augmentation part       44.0000000 magnetization 

 Free energy of the ion-electron system (eV)
  ---------------------------------------------------
  alpha Z        PSCENC =         1.88600142
  Ewald energy   TEWEN  =      1644.73937317
  -Hartree energ DENC   =     -5190.83725856
  -exchange      EXHF   =         0.00000000
  -V(xc)+E(xc)   XCENC  =        56.99648815
  PAW double counting   =      3496.39001341   -12934.52217745
  entropy T*S    EENTRO =        -0.03751406
  eigenvalues    EBANDS =         0.30882858
  atomic energy  EATOM  =      3701.96848987
  ---------------------------------------------------
  free energy    TOTEN  =     -9223.10775547 eV

  energy without entropy =    -9223.07024140  energy(sigma->0) =    -9223.08899844
  exchange ACFDT corr.  =         0.00000000  see jH, gK, PRB 81, 115126


--------------------------------------------------------------------------------------------------------




--------------------------------------- Iteration      1(   2)  ---------------------------------------


    TRIAL :  cpu time      1.0998: real time      1.1000
    CORREC:  cpu time      0.0003: real time      0.0003
    --------------------------------------------
      LOOP:  cpu time      1.1032: real time      1.1074

 eigenvalue-minimisations  :   256
 total energy-change (2. order) :-0.3944713E+03  (-0.3941912E+03)
 number of electron      44.0000000 magnetization 
 augmentation part       44.0000000 magnetization 

 Free energy of the ion-electron system (eV)
  ---------------------------------------------------
  alpha Z        PSCENC =         1.88600142
  Ewald energy   TEWEN  =      1644.73937317
  -Hartree energ DENC   =     -5190.83725856
  -exchange      EXHF   =         0.00000000
  -V(xc)+E(xc)   XCENC  =        56.99648815
  PAW double counting   =      3496.39001341   -12934.52217745
  entropy T*S    EENTRO =        -0.00000000
  eigenvalues    EBANDS =      -394.19999684
  atomic energy  EATOM  =      3701.96848987
  ---------------------------------------------------
  free energy    TOTEN  =     -9617.57906682 eV

  energy without entropy =    -9617.57906682  energy(sigma->0) =    -9617.57906682
  exchange ACFDT corr.  =         0.00000000  see jH, gK, PRB 81, 115126


--------------------------------------------------------------------------------------------------------




--------------------------------------- Iteration      1(   3)  ---------------------------------------


    TRIAL :  cpu time      0.4531: real time      0.4531
    CORREC:  cpu time      0.0003: real time      0.0003
    --------------------------------------------
      LOOP:  cpu time      0.4602: real time      0.4605

 eigenvalue-minimisations  :   128
 total energy-change (2. order) :-0.5204079E+02  (-0.5204030E+02)
 number of electron      44.0000000 magnetization 
 augmentation part       44.0000000 magnetization 

 Free energy of the ion-electron system (eV)
  ---------------------------------------------------
  alpha Z        PSCENC =         1.88600142
  Ewald energy   TEWEN  =      1644.73937317
  -Hartree energ DENC   =     -5190.83725856
  -exchange      EXHF   =         0.00000000
  -V(xc)+E(xc)   XCENC  =        56.99648815
  PAW double counting   =      3496.39001341   -12934.52217745
  entropy T*S    EENTRO =        -0.00000000
  eigenvalues    EBANDS =      -446.24078744
  atomic energy  EATOM  =      3701.96848987
  ---------------------------------------------------
  free energy    TOTEN  =     -9669.61985742 eV

  energy without entropy =    -9669.61985742  energy(sigma->0) =    -9669.61985742
  exchange ACFDT corr.  =         0.00000000  see jH, gK, PRB 81, 115126


--------------------------------------------------------------------------------------------------------




--------------------------------------- Iteration      1(   4)  ---------------------------------------


    TRIAL :  cpu time      0.4517: real time      0.4520
    CORREC:  cpu time      0.0003: real time      0.0003
    --------------------------------------------
      LOOP:  cpu time      0.4580: real time      0.4587

 eigenvalue-minimisations  :   128
 total energy-change (2. order) :-0.3070504E+00  (-0.3070508E+00)
 number of electron      44.0000000 magnetization 
 augmentation part       44.0000000 magnetization 

 Free energy of the ion-electron system (eV)
  ---------------------------------------------------
  alpha Z        PSCENC =         1.88600142
  Ewald energy   TEWEN  =      1644.73937317
  -Hartree energ DENC   =     -5190.83725856
  -exchange      EXHF   =         0.00000000
  -V(xc)+E(xc)   XCENC  =        56.99648815
  PAW double counting   =      3496.39001341   -12934.52217745
  entropy T*S    EENTRO =        -0.00000000
  eigenvalues    EBANDS =      -446.54783789
  atomic energy  EATOM  =      3701.96848987
  ---------------------------------------------------
  free energy    TOTEN  =     -9669.92690787 eV

  energy without entropy =    -9669.92690787  energy(sigma->0) =    -9669.92690787
  exchange ACFDT corr.  =         0.00000000  see jH, gK, PRB 81, 115126


--------------------------------------------------------------------------------------------------------




--------------------------------------- Iteration      1(   5)  ---------------------------------------


    POTLOK:  cpu time      0.1666: real time      0.1666
    SETDIJ:  cpu time      0.1755: real time      0.1755
    TRIAL :  cpu time      7.3571: real time      7.3622
    CORREC:  cpu time      0.0003: real time      0.0003
    CHARGE:  cpu time      0.1151: real time      0.1156
    --------------------------------------------
      LOOP:  cpu time      7.8209: real time      7.8268

 eigenvalue-minimisations  :   128
 total energy-change (2. order) : 0.9661834E+04  (-0.4257019E+01)
 number of electron      44.0000004 magnetization 
 augmentation part       16.7673525 magnetization 

 Free energy of the ion-electron system (eV)
  ---------------------------------------------------
  alpha Z        PSCENC =         1.88600142
  Ewald energy   TEWEN  =      1644.73937317
  -Hartree energ DENC   =     -5190.83725856
  -exchange      EXHF   =       104.18503985
  -V(xc)+E(xc)   XCENC  =        43.53102079
  PAW double counting   =      3509.30231918    -3422.21618814
  entropy T*S    EENTRO =        -0.00000000
  eigenvalues    EBANDS =      -400.65212578
  atomic energy  EATOM  =      3701.96848987
  ---------------------------------------------------
  free energy    TOTEN  =        -8.09332820 eV

  energy without entropy =       -8.09332820  energy(sigma->0) =       -8.09332820
  exchange ACFDT corr.  =        -0.00000000  see jH, gK, PRB 81, 115126


--------------------------------------------------------------------------------------------------------




--------------------------------------- Iteration      1(   6)  ---------------------------------------


    POTLOK:  cpu time      0.1808: real time      0.1808
    SETDIJ:  cpu time      0.1786: real time      0.1786
    TRIAL :  cpu time      7.6862: real time      7.8633
    CORREC:  cpu time      7.4152: real time      7.4202
    CHARGE:  cpu time      0.1129: real time      0.1130
    --------------------------------------------
      LOOP:  cpu time     15.5764: real time     15.7634

 eigenvalue-minimisations  :     0
 total energy-change (2. order) : 0.1329147E+01  (-0.1104111E+01)
 number of electron      44.0000004 magnetization 
 augmentation part       16.4841267 magnetization 

 Free energy of the ion-electron system (eV)
  ---------------------------------------------------
  alpha Z        PSCENC =         1.88600142
  Ewald energy   TEWEN  =      1644.73937317
  -Hartree energ DENC   =     -5277.54505307
  -exchange      EXHF   =       100.01683266
  -V(xc)+E(xc)   XCENC  =        44.71727221
  PAW double counting   =      4258.02360125    -4174.54146285
  entropy T*S    EENTRO =        -0.00000000
  eigenvalues    EBANDS =      -306.02923602
  atomic energy  EATOM  =      3701.96848987
  ---------------------------------------------------
  free energy    TOTEN  =        -6.76418136 eV

  energy without entropy =       -6.76418136  energy(sigma->0) =       -6.76418136
  exchange ACFDT corr.  =        -0.00000000  see jH, gK, PRB 81, 115126


--------------------------------------------------------------------------------------------------------




--------------------------------------- Iteration      1(   7)  ---------------------------------------


    POTLOK:  cpu time      0.1832: real time      0.1833
    SETDIJ:  cpu time      0.1778: real time      0.1778
    TRIAL :  cpu time      7.2294: real time      7.2350
    CORREC:  cpu time      7.3833: real time      7.3879
    CHARGE:  cpu time      0.1129: real time      0.1131
    --------------------------------------------
      LOOP:  cpu time     15.0940: real time     15.1048

 eigenvalue-minimisations  :     0
 total energy-change (2. order) :-0.1112959E+01  (-0.1468742E+00)
 number of electron      44.0000004 magnetization 
 augmentation part       16.5415268 magnetization 

 Free energy of the ion-electron system (eV)
  ---------------------------------------------------
  alpha Z        PSCENC =         1.88600142
  Ewald energy   TEWEN  =      1644.73937317
  -Hartree energ DENC   =     -5205.13288374
  -exchange      EXHF   =        98.70644513
  -V(xc)+E(xc)   XCENC  =        43.43421517
  PAW double counting   =      4160.02434450    -4077.00357665
  entropy T*S    EENTRO =        -0.00000000
  eigenvalues    EBANDS =      -376.49954952
  atomic energy  EATOM  =      3701.96848987
  ---------------------------------------------------
  free energy    TOTEN  =        -7.87714065 eV

  energy without entropy =       -7.87714065  energy(sigma->0) =       -7.87714065
  exchange ACFDT corr.  =        -0.00000000  see jH, gK, PRB 81, 115126


--------------------------------------------------------------------------------------------------------




--------------------------------------- Iteration      1(   8)  ---------------------------------------


    POTLOK:  cpu time      0.1820: real time      0.1820
    SETDIJ:  cpu time      0.1791: real time      0.1791
    TRIAL :  cpu time      7.4842: real time      7.4902
    CORREC:  cpu time      7.4073: real time      7.4115
    CHARGE:  cpu time      0.1131: real time      0.1131
    --------------------------------------------
      LOOP:  cpu time     15.3728: real time     15.3836

 eigenvalue-minimisations  :     0
 total energy-change (2. order) :-0.1467224E+00  (-0.5631455E-01)
 number of electron      44.0000004 magnetization 
 augmentation part       16.5007475 magnetization 

 Free energy of the ion-electron system (eV)
  ---------------------------------------------------
  alpha Z        PSCENC =         1.88600142
  Ewald energy   TEWEN  =      1644.73937317
  -Hartree energ DENC   =     -5210.76334567
  -exchange      EXHF   =        98.92959161
  -V(xc)+E(xc)   XCENC  =        43.67697404
  PAW double counting   =      4173.60214136    -4090.42623548
  entropy T*S    EENTRO =        -0.00000000
  eigenvalues    EBANDS =      -371.63685336
  atomic energy  EATOM  =      3701.96848987
  ---------------------------------------------------
  free energy    TOTEN  =        -8.02386303 eV

  energy without entropy =       -8.02386303  energy(sigma->0) =       -8.02386303
  exchange ACFDT corr.  =        -0.00000000  see jH, gK, PRB 81, 115126


--------------------------------------------------------------------------------------------------------




--------------------------------------- Iteration      1(   9)  ---------------------------------------


    POTLOK:  cpu time      0.1879: real time      0.1879
    SETDIJ:  cpu time      0.1714: real time      0.1714
    TRIAL :  cpu time      7.5328: real time      7.5385
    CORREC:  cpu time      7.4855: real time      7.4902
    CHARGE:  cpu time      0.1128: real time      0.1130
    --------------------------------------------
      LOOP:  cpu time     15.4979: real time     15.5087

 eigenvalue-minimisations  :     0
 total energy-change (2. order) :-0.5588261E-01  (-0.1616896E-01)
 number of electron      44.0000004 magnetization 
 augmentation part       16.5104469 magnetization 

 Free energy of the ion-electron system (eV)
  ---------------------------------------------------
  alpha Z        PSCENC =         1.88600142
  Ewald energy   TEWEN  =      1644.73937317
  -Hartree energ DENC   =     -5206.77611331
  -exchange      EXHF   =        98.79483993
  -V(xc)+E(xc)   XCENC  =        43.54877534
  PAW double counting   =      4179.90157910    -4096.89365332
  entropy T*S    EENTRO =        -0.00000000
  eigenvalues    EBANDS =      -375.24903785
  atomic energy  EATOM  =      3701.96848987
  ---------------------------------------------------
  free energy    TOTEN  =        -8.07974564 eV

  energy without entropy =       -8.07974564  energy(sigma->0) =       -8.07974564
  exchange ACFDT corr.  =        -0.00000000  see jH, gK, PRB 81, 115126


--------------------------------------------------------------------------------------------------------




--------------------------------------- Iteration      1(  10)  ---------------------------------------


    POTLOK:  cpu time      0.1792: real time      0.1792
    SETDIJ:  cpu time      0.1796: real time      0.1796
    TRIAL :  cpu time      7.5640: real time      7.5699
    CORREC:  cpu time      7.4267: real time      7.4605
    CHARGE:  cpu time      0.1131: real time      0.1131
    --------------------------------------------
      LOOP:  cpu time     15.4660: real time     15.5100

 eigenvalue-minimisations  :     0
 total energy-change (2. order) :-0.1617214E-01  (-0.4462072E-02)
 number of electron      44.0000004 magnetization 
 augmentation part       16.5158273 magnetization 

 Free energy of the ion-electron system (eV)
  ---------------------------------------------------
  alpha Z        PSCENC =         1.88600142
  Ewald energy   TEWEN  =      1644.73937317
  -Hartree energ DENC   =     -5205.37103996
  -exchange      EXHF   =        98.78427673
  -V(xc)+E(xc)   XCENC  =        43.53901017
  PAW double counting   =      4189.84554742    -4106.80376379
  entropy T*S    EENTRO =        -0.00000000
  eigenvalues    EBANDS =      -376.68381281
  atomic energy  EATOM  =      3701.96848987
  ---------------------------------------------------
  free energy    TOTEN  =        -8.09591778 eV

  energy without entropy =       -8.09591778  energy(sigma->0) =       -8.09591778
  exchange ACFDT corr.  =        -0.00000000  see jH, gK, PRB 81, 115126


--------------------------------------------------------------------------------------------------------




--------------------------------------- Iteration      1(  11)  ---------------------------------------


    POTLOK:  cpu time      0.1705: real time      0.1705
    SETDIJ:  cpu time      0.1798: real time      0.1798
    TRIAL :  cpu time      7.4669: real time      7.4727
    CORREC:  cpu time      7.4921: real time      7.4968
    CHARGE:  cpu time      0.1133: real time      0.1133
    --------------------------------------------
      LOOP:  cpu time     15.4293: real time     15.4408

 eigenvalue-minimisations  :     0
 total energy-change (2. order) :-0.4460141E-02  (-0.1770964E-02)
 number of electron      44.0000004 magnetization 
 augmentation part       16.5110323 magnetization 

 Free energy of the ion-electron system (eV)
  ---------------------------------------------------
  alpha Z        PSCENC =         1.88600142
  Ewald energy   TEWEN  =      1644.73937317
  -Hartree energ DENC   =     -5205.61266773
  -exchange      EXHF   =        98.78667267
  -V(xc)+E(xc)   XCENC  =        43.54376274
  PAW double counting   =      4193.82598085    -4110.77370219
  entropy T*S    EENTRO =        -0.00000000
  eigenvalues    EBANDS =      -376.46428871
  atomic energy  EATOM  =      3701.96848987
  ---------------------------------------------------
  free energy    TOTEN  =        -8.10037792 eV

  energy without entropy =       -8.10037792  energy(sigma->0) =       -8.10037792
  exchange ACFDT corr.  =        -0.00000000  see jH, gK, PRB 81, 115126


--------------------------------------------------------------------------------------------------------




--------------------------------------- Iteration      1(  12)  ---------------------------------------


    POTLOK:  cpu time      0.1672: real time      0.1674
    SETDIJ:  cpu time      0.1800: real time      0.1800
    TRIAL :  cpu time      7.3065: real time      7.3125
    CORREC:  cpu time      7.4875: real time      7.4919
    CHARGE:  cpu time      0.1137: real time      0.1137
    --------------------------------------------
      LOOP:  cpu time     15.2624: real time     15.2732

 eigenvalue-minimisations  :     0
 total energy-change (2. order) :-0.1772123E-02  (-0.5326671E-03)
 number of electron      44.0000004 magnetization 
 augmentation part       16.5095236 magnetization 

 Free energy of the ion-electron system (eV)
  ---------------------------------------------------
  alpha Z        PSCENC =         1.88600142
  Ewald energy   TEWEN  =      1644.73937317
  -Hartree energ DENC   =     -5204.94433973
  -exchange      EXHF   =        98.76843946
  -V(xc)+E(xc)   XCENC  =        43.52838844
  PAW double counting   =      4194.25999727    -4111.23277112
  entropy T*S    EENTRO =        -0.00000000
  eigenvalues    EBANDS =      -377.07572883
  atomic energy  EATOM  =      3701.96848987
  ---------------------------------------------------
  free energy    TOTEN  =        -8.10215004 eV

  energy without entropy =       -8.10215004  energy(sigma->0) =       -8.10215004
  exchange ACFDT corr.  =        -0.00000000  see jH, gK, PRB 81, 115126


--------------------------------------------------------------------------------------------------------




--------------------------------------- Iteration      1(  13)  ---------------------------------------


    POTLOK:  cpu time      0.1640: real time      0.1640
    SETDIJ:  cpu time      0.1790: real time      0.1790
    TRIAL :  cpu time      7.4454: real time      7.4515
    CORREC:  cpu time      7.4226: real time      7.4273
    CHARGE:  cpu time      0.1133: real time      0.1133
    --------------------------------------------
      LOOP:  cpu time     15.3317: real time     15.3428

 eigenvalue-minimisations  :     0
 total energy-change (2. order) :-0.5332239E-03  (-0.1575445E-03)
 number of electron      44.0000004 magnetization 
 augmentation part       16.5097783 magnetization 

 Free energy of the ion-electron system (eV)
  ---------------------------------------------------
  alpha Z        PSCENC =         1.88600142
  Ewald energy   TEWEN  =      1644.73937317
  -Hartree energ DENC   =     -5204.80404843
  -exchange      EXHF   =        98.76484126
  -V(xc)+E(xc)   XCENC  =        43.52593337
  PAW double counting   =      4194.02813102    -4111.01253467
  entropy T*S    EENTRO =        -0.00000000
  eigenvalues    EBANDS =      -377.19887028
  atomic energy  EATOM  =      3701.96848987
  ---------------------------------------------------
  free energy    TOTEN  =        -8.10268326 eV

  energy without entropy =       -8.10268326  energy(sigma->0) =       -8.10268326
  exchange ACFDT corr.  =        -0.00000000  see jH, gK, PRB 81, 115126


--------------------------------------------------------------------------------------------------------




--------------------------------------- Iteration      1(  14)  ---------------------------------------


    POTLOK:  cpu time      0.1633: real time      0.1633
    SETDIJ:  cpu time      0.1812: real time      0.1812
    TRIAL :  cpu time      7.4386: real time      7.4451
    CORREC:  cpu time      7.4466: real time      7.4508
    CHARGE:  cpu time      0.1130: real time      0.1130
    --------------------------------------------
      LOOP:  cpu time     15.3503: real time     15.3616

 eigenvalue-minimisations  :     0
 total energy-change (2. order) :-0.1573031E-03  (-0.5090411E-04)
 number of electron      44.0000004 magnetization 
 augmentation part       16.5089504 magnetization 

 Free energy of the ion-electron system (eV)
  ---------------------------------------------------
  alpha Z        PSCENC =         1.88600142
  Ewald energy   TEWEN  =      1644.73937317
  -Hartree energ DENC   =     -5204.86683595
  -exchange      EXHF   =        98.76648518
  -V(xc)+E(xc)   XCENC  =        43.52773296
  PAW double counting   =      4193.80125384    -4110.78810747
  entropy T*S    EENTRO =        -0.00000000
  eigenvalues    EBANDS =      -377.13723359
  atomic energy  EATOM  =      3701.96848987
  ---------------------------------------------------
  free energy    TOTEN  =        -8.10284057 eV

  energy without entropy =       -8.10284057  energy(sigma->0) =       -8.10284057
  exchange ACFDT corr.  =        -0.00000000  see jH, gK, PRB 81, 115126


--------------------------------------------------------------------------------------------------------




--------------------------------------- Iteration      1(  15)  ---------------------------------------


    POTLOK:  cpu time      0.1639: real time      0.1640
    SETDIJ:  cpu time      0.1806: real time      0.1806
    TRIAL :  cpu time      7.4032: real time      7.4093
    CORREC:  cpu time      7.3847: real time      7.3901
    CHARGE:  cpu time      0.1130: real time      0.1130
    --------------------------------------------
      LOOP:  cpu time     15.2523: real time     15.2646

 eigenvalue-minimisations  :     0
 total energy-change (2. order) :-0.5121181E-04  (-0.2160107E-04)
 number of electron      44.0000004 magnetization 
 augmentation part       16.5092379 magnetization 

 Free energy of the ion-electron system (eV)
  ---------------------------------------------------
  alpha Z        PSCENC =         1.88600142
  Ewald energy   TEWEN  =      1644.73937317
  -Hartree energ DENC   =     -5204.73607797
  -exchange      EXHF   =        98.76355164
  -V(xc)+E(xc)   XCENC  =        43.52467872
  PAW double counting   =      4193.33274345    -4110.32316549
  entropy T*S    EENTRO =        -0.00000000
  eigenvalues    EBANDS =      -377.25848659
  atomic energy  EATOM  =      3701.96848987
  ---------------------------------------------------
  free energy    TOTEN  =        -8.10289178 eV

  energy without entropy =       -8.10289178  energy(sigma->0) =       -8.10289178
  exchange ACFDT corr.  =        -0.00000000  see jH, gK, PRB 81, 115126


--------------------------------------------------------------------------------------------------------




--------------------------------------- Iteration      1(  16)  ---------------------------------------


    POTLOK:  cpu time      0.1637: real time      0.1637
    SETDIJ:  cpu time      0.1788: real time      0.1788
    TRIAL :  cpu time      7.4752: real time      7.4810
    CORREC:  cpu time      7.4072: real time      7.4116
    CHARGE:  cpu time      0.1134: real time      0.1134
    --------------------------------------------
      LOOP:  cpu time     15.3457: real time     15.3563

 eigenvalue-minimisations  :     0
 total energy-change (2. order) :-0.2144102E-04  (-0.8827009E-05)
 number of electron      44.0000004 magnetization 
 augmentation part       16.5091130 magnetization 

 Free energy of the ion-electron system (eV)
  ---------------------------------------------------
  alpha Z        PSCENC =         1.88600142
  Ewald energy   TEWEN  =      1644.73937317
  -Hartree energ DENC   =     -5204.79669432
  -exchange      EXHF   =        98.76536549
  -V(xc)+E(xc)   XCENC  =        43.52638418
  PAW double counting   =      4193.24506527    -4110.23559206
  entropy T*S    EENTRO =        -0.00000000
  eigenvalues    EBANDS =      -377.20130625
  atomic energy  EATOM  =      3701.96848987
  ---------------------------------------------------
  free energy    TOTEN  =        -8.10291322 eV

  energy without entropy =       -8.10291322  energy(sigma->0) =       -8.10291322
  exchange ACFDT corr.  =        -0.00000000  see jH, gK, PRB 81, 115126


--------------------------------------------------------------------------------------------------------




--------------------------------------- Iteration      1(  17)  ---------------------------------------


    POTLOK:  cpu time      0.1660: real time      0.1660
    SETDIJ:  cpu time      0.1784: real time      0.1784
    TRIAL :  cpu time      7.6363: real time      7.6425
    CORREC:  cpu time      7.3799: real time      7.3850
    CHARGE:  cpu time      0.1129: real time      0.1131
    --------------------------------------------
      LOOP:  cpu time     15.4817: real time     15.4932

 eigenvalue-minimisations  :     0
 total energy-change (2. order) :-0.8840309E-05  (-0.2987389E-05)
 number of electron      44.0000004 magnetization 
 augmentation part       16.5089558 magnetization 

 Free energy of the ion-electron system (eV)
  ---------------------------------------------------
  alpha Z        PSCENC =         1.88600142
  Ewald energy   TEWEN  =      1644.73937317
  -Hartree energ DENC   =     -5204.81229120
  -exchange      EXHF   =        98.76537931
  -V(xc)+E(xc)   XCENC  =        43.52632860
  PAW double counting   =      4193.11997233    -4110.11133133
  entropy T*S    EENTRO =        -0.00000000
  eigenvalues    EBANDS =      -377.18484424
  atomic energy  EATOM  =      3701.96848987
  ---------------------------------------------------
  free energy    TOTEN  =        -8.10292206 eV

  energy without entropy =       -8.10292206  energy(sigma->0) =       -8.10292206
  exchange ACFDT corr.  =        -0.00000000  see jH, gK, PRB 81, 115126


--------------------------------------------------------------------------------------------------------




--------------------------------------- Iteration      1(  18)  ---------------------------------------


    POTLOK:  cpu time      0.1622: real time      0.1622
    SETDIJ:  cpu time      0.1806: real time      0.1806
    TRIAL :  cpu time      7.5752: real time      7.5805
    CORREC:  cpu time      7.3744: real time      7.3794
    CHARGE:  cpu time      0.1129: real time      0.1129
    --------------------------------------------
      LOOP:  cpu time     15.4112: real time     15.4233

 eigenvalue-minimisations  :     0
 total energy-change (2. order) :-0.3015801E-05  (-0.1220983E-05)
 number of electron      44.0000004 magnetization 
 augmentation part       16.5090682 magnetization 

 Free energy of the ion-electron system (eV)
  ---------------------------------------------------
  alpha Z        PSCENC =         1.88600142
  Ewald energy   TEWEN  =      1644.73937317
  -Hartree energ DENC   =     -5204.78911899
  -exchange      EXHF   =        98.76502635
  -V(xc)+E(xc)   XCENC  =        43.52594816
  PAW double counting   =      4193.04477047    -4110.03679137
  entropy T*S    EENTRO =        -0.00000000
  eigenvalues    EBANDS =      -377.20662416
  atomic energy  EATOM  =      3701.96848987
  ---------------------------------------------------
  free energy    TOTEN  =        -8.10292508 eV

  energy without entropy =       -8.10292508  energy(sigma->0) =       -8.10292508
  exchange ACFDT corr.  =        -0.00000000  see jH, gK, PRB 81, 115126


--------------------------------------------------------------------------------------------------------




--------------------------------------- Iteration      1(  19)  ---------------------------------------


    POTLOK:  cpu time      0.1664: real time      0.1664
    SETDIJ:  cpu time      0.1765: real time      0.1765
    TRIAL :  cpu time      7.5120: real time      7.5193
    CORREC:  cpu time      7.3772: real time      7.3822
    CHARGE:  cpu time      0.1136: real time      0.1136
    --------------------------------------------
      LOOP:  cpu time     15.3533: real time     15.3660

 eigenvalue-minimisations  :     0
 total energy-change (2. order) :-0.1148905E-05  (-0.2710879E-06)
 number of electron      44.0000004 magnetization 
 augmentation part       16.5090061 magnetization 

 Free energy of the ion-electron system (eV)
  ---------------------------------------------------
  alpha Z        PSCENC =         1.88600142
  Ewald energy   TEWEN  =      1644.73937317
  -Hartree energ DENC   =     -5204.81971118
  -exchange      EXHF   =        98.76560550
  -V(xc)+E(xc)   XCENC  =        43.52652643
  PAW double counting   =      4193.07532331    -4110.06724862
  entropy T*S    EENTRO =        -0.00000000
  eigenvalues    EBANDS =      -377.17728614
  atomic energy  EATOM  =      3701.96848987
  ---------------------------------------------------
  free energy    TOTEN  =        -8.10292623 eV

  energy without entropy =       -8.10292623  energy(sigma->0) =       -8.10292623
  exchange ACFDT corr.  =        -0.00000000  see jH, gK, PRB 81, 115126


--------------------------------------------------------------------------------------------------------




--------------------------------------- Iteration      1(  20)  ---------------------------------------


    POTLOK:  cpu time      0.1638: real time      0.1640
    SETDIJ:  cpu time      0.1775: real time      0.1775
    TRIAL :  cpu time      7.4615: real time      7.4679
    CORREC:  cpu time      7.4196: real time      7.4250
    EDDIAG:  cpu time      6.9982: real time      7.0051
    CHARGE:  cpu time      0.1127: real time      0.1127
    --------------------------------------------
      LOOP:  cpu time     22.3404: real time     22.3595

 eigenvalue-minimisations  :     0
 total energy-change (2. order) :-0.2633201E-06  (-0.9848683E-07)
 number of electron      44.0000004 magnetization 
 augmentation part       16.5089927 magnetization 

 Free energy of the ion-electron system (eV)
  ---------------------------------------------------
  alpha Z        PSCENC =         1.88600142
  Ewald energy   TEWEN  =      1644.73937317
  -Hartree energ DENC   =     -5204.80871081
  -exchange      EXHF   =        98.76527345
  -V(xc)+E(xc)   XCENC  =        43.52627658
  PAW double counting   =      4193.06489826    -4110.05701399
  entropy T*S    EENTRO =        -0.00000000
  eigenvalues    EBANDS =      -377.18759612
  atomic energy  EATOM  =      3701.96848987
  ---------------------------------------------------
  free energy    TOTEN  =        -8.10292649 eV

  energy without entropy =       -8.10292649  energy(sigma->0) =       -8.10292649
  exchange ACFDT corr.  =        -0.00000000  see jH, gK, PRB 81, 115126


--------------------------------------------------------------------------------------------------------


  average scaling for gradient   1.0101


 average (electrostatic) potential at core
  the test charge radii are     1.2098
  (the norm of the test charge is              1.0000)
       1 -69.8216       2 -70.8159       3 -70.9811       4 -71.1376



 E-fermi :  -5.7928     XC(G=0):  -0.1828     alpha+bet : -0.0961

 Fermi energy:        -5.7928461558

 k-point     1 :       0.0000    0.0000    0.0000
  band No.  band energies     occupation 
      1     -11.1959      2.00000
      2     -10.5733      2.00000
      3     -10.2839      2.00000
      4      -9.9951      2.00000
      5      -9.7681      2.00000
      6      -9.3656      2.00000
      7      -9.2610      2.00000
      8      -8.9860      2.00000
      9      -8.5118      2.00000
     10      -8.5077      2.00000
     11      -8.4511      2.00000
     12      -8.3756      2.00000
     13      -8.2665      2.00000
     14      -8.2035      2.00000
     15      -8.1736      2.00000
     16      -8.0252      2.00000
     17      -7.5434      2.00000
     18      -7.5353      2.00000
     19      -7.2720      2.00000
     20      -7.2538      2.00000
     21      -6.9938      2.00000
     22      -6.0535      2.00000
     23      -3.7828      0.00000
     24      -2.5299      0.00000
     25      -1.1752      0.00000
     26      -0.6026      0.00000
     27      -0.4106      0.00000
     28      -0.0278      0.00000
     29       0.1167      0.00000
     30       0.2604      0.00000
     31       0.3405      0.00000
     32       0.3846      0.00000
     33       0.4065      0.00000
     34       0.4248      0.00000
     35       0.4676      0.00000
     36       0.5036      0.00000
     37       0.5651      0.00000
     38       0.6380      0.00000
     39       0.7004      0.00000
     40       0.7060      0.00000
     41       0.7130      0.00000
     42       0.7169      0.00000
     43       0.7264      0.00000
     44       0.7410      0.00000
     45       0.7864      0.00000
     46       0.8303      0.00000
     47       0.8350      0.00000
     48       0.8914      0.00000
     49       0.8967      0.00000
     50       1.0045      0.00000
     51       1.0121      0.00000
     52       1.0387      0.00000
     53       1.0479      0.00000
     54       1.0968      0.00000
     55       1.1490      0.00000
     56       1.1664      0.00000
     57       1.2305      0.00000
     58       1.2828      0.00000
     59       1.3149      0.00000
     60       1.3421      0.00000
     61       1.4026      0.00000
     62       1.4083      0.00000
     63       1.4585      0.00000
     64       1.5728      0.00000


--------------------------------------------------------------------------------------------------------


 soft charge-density along one line, spin component           1
         0         1         2         3         4         5         6         7         8         9
 total charge-density along one line

 pseudopotential strength for first ion, spin component:           1
 -7.748  -0.000  -0.000  -0.043  -0.000  -7.920  -0.000  -0.000
 -0.000  -7.823  -0.034   0.000   0.051  -0.000  -7.994  -0.033
 -0.000  -0.034  -7.792  -0.000  -0.023  -0.000  -0.033  -7.963
 -0.043   0.000  -0.000  -7.755  -0.000  -0.042   0.000  -0.000
 -0.000   0.051  -0.023  -0.000  -7.753  -0.000   0.050  -0.023
 -7.920  -0.000  -0.000  -0.042  -0.000  -8.076  -0.000  -0.000
 -0.000  -7.994  -0.033   0.000   0.050  -0.000  -8.148  -0.033
 -0.000  -0.033  -7.963  -0.000  -0.023  -0.000  -0.033  -8.118
 -0.042   0.000  -0.000  -7.927  -0.000  -0.041   0.000  -0.000
 -0.000   0.050  -0.023  -0.000  -7.925  -0.000   0.049  -0.022
 -0.000   0.041   0.017  -0.000  -0.021  -0.000   0.041   0.017
 -0.000   0.060   0.025  -0.000  -0.031  -0.000   0.060   0.025
  0.000  -0.026   0.012   0.000   0.023   0.000  -0.026   0.012
  0.000  -0.025  -0.031   0.000   0.000   0.000  -0.025  -0.031
 -0.023   0.000  -0.000  -0.026   0.000  -0.022   0.000  -0.000
  0.000  -0.031   0.012   0.000   0.026   0.000  -0.031   0.012
  0.000  -0.030  -0.036   0.000   0.001   0.000  -0.030  -0.036
 -0.025   0.000  -0.000  -0.029   0.000  -0.025   0.000  -0.000
 total augmentation occupancy for first ion, spin component:           1
  2.548   0.000  -0.000   0.180  -0.000  -0.426  -0.000   0.000  -0.228   0.000   0.000   0.000  -0.000  -0.000  -0.015   0.000
  0.000   2.952   0.096   0.000  -0.383  -0.000  -1.132  -0.230  -0.000   0.520  -1.804   0.575  -0.126  -0.108  -0.000  -0.015
 -0.000   0.096   2.670   0.000   0.098   0.000  -0.229  -0.621  -0.000  -0.091  -0.682   0.192  -0.004  -0.036   0.000   0.018
  0.180   0.000   0.000   2.549  -0.000  -0.228  -0.000  -0.000  -0.425   0.000   0.000   0.000  -0.000  -0.000  -0.015   0.000
 -0.000  -0.383   0.098  -0.000   2.695   0.000   0.521  -0.090   0.000  -0.618   0.926  -0.308   0.086   0.056   0.000   0.018
 -0.426  -0.000   0.000  -0.228   0.000   0.306   0.000  -0.000   0.268  -0.000  -0.000  -0.000   0.000   0.000   0.046  -0.000
 -0.000  -1.132  -0.229  -0.000   0.521   0.000   1.259   0.335   0.000  -0.636   1.592  -0.538   0.183   0.177   0.000  -0.010
  0.000  -0.230  -0.621  -0.000  -0.090  -0.000   0.335   0.559   0.000   0.085   0.589  -0.177   0.003   0.089  -0.000  -0.003
 -0.228  -0.000  -0.000  -0.425   0.000   0.268   0.000   0.000   0.303  -0.000   0.000  -0.000   0.000   0.000   0.046  -0.000
  0.000   0.520  -0.091   0.000  -0.618  -0.000  -0.636   0.085  -0.000   0.534  -0.815   0.286  -0.127  -0.068  -0.000   0.005
  0.000  -1.804  -0.682   0.000   0.926  -0.000   1.592   0.589   0.000  -0.815   4.134  -1.242   0.260   0.267  -0.000  -0.009
  0.000   0.575   0.192   0.000  -0.308  -0.000  -0.538  -0.177  -0.000   0.286  -1.242   0.381  -0.089  -0.087  -0.000   0.003
 -0.000  -0.126  -0.004  -0.000   0.086   0.000   0.183   0.003   0.000  -0.127   0.260  -0.089   0.036   0.024   0.000  -0.003
 -0.000  -0.108  -0.036  -0.000   0.056   0.000   0.177   0.089   0.000  -0.068   0.267  -0.087   0.024   0.032   0.000  -0.002
 -0.015  -0.000   0.000  -0.015   0.000   0.046   0.000  -0.000   0.046  -0.000  -0.000  -0.000   0.000   0.000   0.009   0.000
  0.000  -0.015   0.018   0.000   0.018  -0.000  -0.010  -0.003  -0.000   0.005  -0.009   0.003  -0.003  -0.002   0.000   0.001
  0.000  -0.011  -0.029   0.000  -0.007  -0.000  -0.011  -0.004  -0.000   0.005  -0.010   0.004  -0.002  -0.003  -0.000   0.000
 -0.025   0.000  -0.000  -0.029   0.000  -0.000  -0.000   0.000  -0.000  -0.000   0.000  -0.000   0.000   0.000  -0.001  -0.000


------------------------ aborting loop because EDIFF is reached ----------------------------------------


    FORLOC:  cpu time      0.0039: real time      0.0039
    FORHF :  cpu time      1.9917: real time      1.9931
    FORNL :  cpu time      0.1275: real time      0.1275
    FORCOR:  cpu time      0.3045: real time      0.3046
    OFIELD:  cpu time      0.0006: real time      0.0006

  Hirshfeld charges:
            ion         q(e)     
   ------------------------------
      1     Au         -0.155
      2     Au          0.012
      3     Au          0.001
      4     Au          0.142

  Hirshfeld-I charges:
            ion         q(e)        dq(e)    
   ------------------------------------------
      1     Au         -0.237      0.264E-04
      2     Au          0.072     -0.414E-04
      3     Au         -0.030      0.400E-04
      4     Au          0.196     -0.249E-04

   Hirshfeld-I converged in  10 cycles. Convergence criterion |dq|< 0.500E-04 e

  Atomic reference data used in the T-S method for vdW correction:
            C6at              R0at           ALPHAat      REFSTATE
            (au)              (au)            (au)                
   ---------------------------------------------------------------
   Au        298.000          3.855         36.500         0

  Tkatchenko/Scheffler method for vdW energy calculation
  ---------------------------------------------------------------------------------------------

  Parameters of vdW forcefield:
            C6ts              R0ts           ALPHAts        RELVOL
            (au)              (au)            (au)                
   ---------------------------------------------------------------
   Au        359.996          3.978         40.117          1.09910488
   Au        280.421          3.816         35.407          0.97005335
   Au        296.946          3.853         36.435          0.99822734
   Au        249.369          3.742         33.389          0.91477028

  vdW correction parametrized for the method    g6	    

  IVDW =  21
  VDW_RADIUS =    50.000 A
  VDW_IDAMPF =  0
  VDW_S6 =     1.000
  VDW_SR =     0.960
  VDW_D =    20.000
  LVDW_ONECELL = F F F
  LVDW_SAMETYPE T
  LVDW_EWALD = F

  Number of pair interactions contributing to vdW energy:     557
  Edisp (eV):   -0.03633
    FORVDW:  cpu time     54.2009: real time     54.2162

 VOLUME and BASIS-vectors are now :
 -----------------------------------------------------------------------------
  energy-cutoff  :      520.00
  volume of cell :     9881.61
      direct lattice vectors                 reciprocal lattice vectors
    21.138852197  0.000000000  0.000000000     0.047306258  0.000000000  0.000000000
     0.000000000 21.138852197  0.000000000     0.000000000  0.047306258  0.000000000
     0.000000000  0.000000000 22.113885220     0.000000000  0.000000000  0.045220457

  length of vectors
    21.138852197 21.138852197 22.113885220     0.047306258  0.047306258  0.045220457


 FORCES acting on ions:
    Electron-Ion                     Ewald-Force                    Non-Local-Force
 -----------------------------------------------------------------------------------------------
   0.559E-01 0.371E+03 0.228E+03   -.564E-01 -.366E+03 -.222E+03   0.330E-03 -.511E+01 -.539E+01
   0.197E+00 0.210E+03 -.296E+03   -.196E+00 -.211E+03 0.291E+03   0.171E-03 0.103E+01 0.480E+01
   -.393E+00 -.355E+03 -.351E+03   0.386E+00 0.351E+03 0.345E+03   0.635E-02 0.437E+01 0.586E+01
   0.137E+00 -.227E+03 0.422E+03   -.133E+00 0.226E+03 -.414E+03   -.440E-02 -.181E+00 -.776E+01
 -----------------------------------------------------------------------------------------------
   -.327E-02 -.272E+00 0.277E+01   -.111E-15 0.000E+00 0.000E+00   0.244E-02 0.114E+00 -.249E+01


 POSITION                                       TOTAL-FORCE (eV/Angst)
 -----------------------------------------------------------------------------------
      8.45451      8.98915     13.34135        -0.000134     -0.250918     -0.060673
      8.45464     10.77395     15.12987         0.000717      0.343353     -0.417253
      8.45667     13.37210     15.77041        -0.000223      0.237001      0.245767
      8.45496     12.78393     13.26751        -0.000359     -0.329435      0.232159
 -----------------------------------------------------------------------------------
    total drift:                               -0.000408     -0.003047     -0.001381


--------------------------------------------------------------------------------------------------------



  FREE ENERGIE OF THE ION-ELECTRON SYSTEM (eV)
  ---------------------------------------------------
  free  energy   TOTEN  =        -8.13926102 eV

  energy  without entropy=       -8.13926102  energy(sigma->0) =       -8.13926102



--------------------------------------------------------------------------------------------------------


    POTLOK:  cpu time      0.3385: real time      0.3388


--------------------------------------------------------------------------------------------------------


     LOOP+:  cpu time    305.2158: real time    305.6364
    4ORBIT:  cpu time      0.0000: real time      0.0000

 total amount of memory used by VASP MPI-rank0  1219875. kBytes
=======================================================================

   base      :      30000. kBytes
   nonlr-proj:       2805. kBytes
   fftplans  :      65038. kBytes
   grid      :      53473. kBytes
   one-center:         15. kBytes
   HF        :         64. kBytes
   wavefun   :       3192. kBytes
   fock_wrk  :    1065288. kBytes

  
  
 General timing and accounting informations for this job:
 ========================================================
  
                  Total CPU time used (sec):      324.937
                            User time (sec):      308.144
                          System time (sec):       16.793
                         Elapsed time (sec):      328.309
  
                   Maximum memory used (kb):     1672072.
                   Average memory used (kb):          N/A
  
                          Minor page faults:      1629594
                          Major page faults:           54
                 Voluntary context switches:        11754
