 vasp.6.4.0 14Feb23 (build Jul 14 2023 13:46:40) complex                        
  
 executed on             LinuxIFC date 2023.07.28  07:08:04
 running   64 mpi-ranks, with    1 threads/rank, on    8 nodes
 distrk:  each k-point on   64 cores,    1 groups
 distr:  one band on NCORE=   1 cores,   64 groups


--------------------------------------------------------------------------------------------------------


 INCAR:
   SYSTEM = MgO-rocksalt
   ISMEAR = 0
   SIGMA = 0.05
   EDIFF = 1E-6
   ALGO = ALL
   ISTART = 0
   IBRION = -1
   NSW = 0
   ISYM = 2
   METAGGA = TPSS
   ENCUT = 520
   PREC = Accurate
   LASPH = .TRUE.
   LREAL = Auto
   ISPIN = 1
   NELM = 200
   NELMIN = 8
   NCORE = 1
   KPAR = 1
   LWAVE = .FALSE.
   LCHARG = .FALSE.

 POTCAR:    PAW_PBE Cu 22Jun2005                  
 POTCAR:    PAW_PBE Cu 22Jun2005                  
   SHA256 =  0e71e558f37a4e8407882b4609ceaae59938afaad9ced71dfe8490308a0ab630 Cu/POTCAR             
   COPYR  = (c) Copyright 22Jun2005 Georg Kresse                                                    
   COPYR  = This file is part of the software VASP. Any use, copying, and all other rights are regul
   COPYR  = If you do not have a valid VASP license, you may not use, copy or distribute this file. 
   VRHFIN =Cu: d10 p1                                                                               
   LEXCH  = PE                                                                                      
   EATOM  =  1390.9808 eV,  102.2342 Ry                                                             
                                                                                                    
   TITEL  = PAW_PBE Cu 22Jun2005                                                                    
   LULTRA =        F    use ultrasoft PP ?                                                          
   IUNSCR =        1    unscreen: 0-lin 1-nonlin 2-no                                               
   RPACOR =    2.000    partial core radius                                                         
   POMASS =   63.546; ZVAL   =   11.000    mass and valenz                                          
   RCORE  =    2.300    outmost cutoff radius                                                       
   RWIGS  =    2.200; RWIGS  =    1.164    wigner-seitz radius (au A)                               
   ENMAX  =  295.446; ENMIN  =  221.585 eV                                                          
   ICORE  =        3    local potential                                                             
   LCOR   =        T    correct aug charges                                                         
   LPAW   =        T    paw PP                                                                      
   EAUG   =  586.980                                                                                
   DEXC   =    0.000                                                                                
   RMAX   =    2.344    core radius for proj-oper                                                   
   RAUG   =    1.300    factor for augmentation sphere                                              
   RDEP   =    2.302    radius for radial grids                                                     
   RDEPT  =    1.771    core radius for aug-charge                                                  
                                                                                                    
   Atomic configuration                                                                             
    9 entries                                                                                       
     n  l   j            E        occ.                                                              
     1  0  0.50     -8850.2468   2.0000                                                             
     2  0  0.50     -1062.3498   2.0000                                                             
     2  1  1.50      -916.8226   6.0000                                                             
     3  0  0.50      -114.6929   2.0000                                                             
     3  1  1.50       -72.1325   6.0000                                                             
     3  2  2.50        -5.0394  10.0000                                                             
     4  0  0.50        -4.6097   1.0000                                                             
     4  1  0.50        -4.0817   0.0000                                                             
     4  3  2.50        -1.3606   0.0000                                                             
   Description                                                                                      
     l       E           TYP  RCUT    TYP  RCUT                                                     
     2     -5.0393973     23  2.200                                                                 
     2     10.8846608     23  2.200                                                                 
     0     -4.6097109     23  2.200                                                                 
     0      8.2520465     23  2.200                                                                 
     1     -2.7211652     23  2.200                                                                 
     1     21.7055443     23  2.200                                                                 
     3      2.7211652     23  2.300                                                                 
  local pseudopotential read in
  partial core-charges read in
  partial kinetic energy density read in
  atomic valenz-charges read in
  non local Contribution for L=           2  read in
    real space projection operators read in
  non local Contribution for L=           2  read in
    real space projection operators read in
  non local Contribution for L=           0  read in
    real space projection operators read in
  non local Contribution for L=           0  read in
    real space projection operators read in
  non local Contribution for L=           1  read in
    real space projection operators read in
  non local Contribution for L=           1  read in
    real space projection operators read in
    PAW grid and wavefunctions read in
 
   number of l-projection  operators is LMAX  =           6
   number of lm-projection operators is LMMAX =          18
 
 -----------------------------------------------------------------------------
|                                                                             |
|               ----> ADVICE to this user running VASP <----                  |
|                                                                             |
|     You have a (more or less) 'small supercell' and for smaller cells       |
|     it is recommended to use the reciprocal-space projection scheme!        |
|     The real-space optimization is not efficient for small cells and it     |
|     is also less accurate ...                                               |
|     Therefore, set LREAL=.FALSE. in the INCAR file.                         |
|                                                                             |
 -----------------------------------------------------------------------------

 Optimization of the real space projectors (new method)

 maximal supplied QI-value         = 16.25
 optimisation between [QCUT,QGAM] = [ 11.54, 23.24] = [ 37.28,151.24] Ry 
 Optimized for a Real-space Cutoff    1.53 Angstroem

   l    n(q)    QCUT    max X(q) W(low)/X(q) W(high)/X(q)  e(spline) 
   2     10    11.539     4.610    0.96E-04    0.13E-03    0.19E-06
   2     10    11.539     8.522    0.16E-03    0.21E-03    0.28E-06
   0     11    11.539    51.609    0.45E-04    0.31E-04    0.11E-06
   0     11    11.539    27.747    0.39E-04    0.29E-04    0.10E-06
   1     10    11.539    20.408    0.70E-05    0.38E-04    0.18E-06
   1     10    11.539    13.425    0.66E-05    0.34E-04    0.17E-06
  PAW_PBE Cu 22Jun2005                  :
 energy of atom  1       EATOM=-1390.9808
 kinetic energy error for atom=    0.0037 (will be added to EATOM!!)
 
 
 POSCAR: Cu
  positions in direct lattice
  velocities in cartesian coordinates

 METAGGA = TPSS                                        LMAXTAU =  6    LMIXTAU =  F

 exchange correlation table for  LEXCH =        8
   RHO(1)=    0.500       N(1)  =     2000
   RHO(2)=  100.500       N(2)  =     4000
 


--------------------------------------------------------------------------------------------------------


 ion  position               nearest neighbor table
   1  0.394  0.471  0.554-   4 2.33   2 2.33
   2  0.470  0.541  0.500-   1 2.33   5 2.33   4 2.39   3 2.40
   3  0.579  0.500  0.475-   6 2.33   5 2.33   2 2.40   4 2.40
   4  0.500  0.430  0.530-   1 2.33   6 2.33   2 2.39   3 2.40
   5  0.548  0.609  0.447-   2 2.33   3 2.33
   6  0.607  0.391  0.505-   4 2.33   3 2.33
 
  LATTYP: Found a simple cubic cell.
 ALAT       =    20.0000000000
  
  Lattice vectors:
  
 A1 = (  20.0000000000,   0.0000000000,   0.0000000000)
 A2 = (   0.0000000000,  20.0000000000,   0.0000000000)
 A3 = (   0.0000000000,   0.0000000000,  20.0000000000)


Analysis of symmetry for initial positions (statically):
=====================================================================
 Subroutine PRICEL returns:
 Original cell was already a primitive cell.
 

 Routine SETGRP: Setting up the symmetry group for a 
 simple cubic supercell.


 Subroutine GETGRP returns: Found  1 space group operations
 (whereof  1 operations were pure point group operations)
 out of a pool of 48 trial point group operations.


The static configuration has the point symmetry C_1 .


Analysis of symmetry for dynamics (positions and initial velocities):
=====================================================================
 Subroutine PRICEL returns:
 Original cell was already a primitive cell.
 

 Routine SETGRP: Setting up the symmetry group for a 
 simple cubic supercell.


 Subroutine GETGRP returns: Found  1 space group operations
 (whereof  1 operations were pure point group operations)
 out of a pool of 48 trial point group operations.


The dynamic configuration has the point symmetry C_1 .


 Subroutine INISYM returns: Found  1 space group operations
 (whereof  1 operations are pure point group operations),
 and found     1 'primitive' translations


----------------------------------------------------------------------------------------

                                     Primitive cell                                     

  volume of cell :    8000.0000

  direct lattice vectors                    reciprocal lattice vectors
    20.000000000  0.000000000  0.000000000     0.050000000  0.000000000  0.000000000
     0.000000000 20.000000000  0.000000000     0.000000000  0.050000000  0.000000000
     0.000000000  0.000000000 20.000000000     0.000000000  0.000000000  0.050000000

  length of vectors
    20.000000000 20.000000000 20.000000000     0.050000000  0.050000000  0.050000000

  position of ions in fractional coordinates (direct lattice)
     0.393703873  0.471222682  0.553557909
     0.469637415  0.541490206  0.500421234
     0.579136840  0.500178364  0.475035790
     0.499727263  0.429514446  0.530220389
     0.547903701  0.608579649  0.446519235
     0.606647900  0.391226891  0.505084819

  ion indices of the primitive-cell ions
   primitive index   ion index
                 1           1
                 2           2
                 3           3
                 4           4
                 5           5
                 6           6

----------------------------------------------------------------------------------------

 
 
 KPOINTS: KPOINTS created by Atomic Simulation Env

Automatic generation of k-mesh.
 Grid dimensions read from file:
 generate k-points for:    1    1    1

 Generating k-lattice:

  Cartesian coordinates                     Fractional coordinates (reciprocal lattice)
     0.050000000  0.000000000  0.000000000     1.000000000  0.000000000  0.000000000
     0.000000000  0.050000000  0.000000000     0.000000000  1.000000000  0.000000000
     0.000000000  0.000000000  0.050000000     0.000000000  0.000000000  1.000000000

  Length of vectors
     0.050000000  0.050000000  0.050000000

  Shift w.r.t. Gamma in fractional coordinates (k-lattice)
     0.000000000  0.000000000  0.000000000

 
 Subroutine IBZKPT returns following result:
 ===========================================
 
 Found      1 irreducible k-points:
 
 Following reciprocal coordinates:
            Coordinates               Weight
  0.000000  0.000000  0.000000      1.000000
 
 Following cartesian coordinates:
            Coordinates               Weight
  0.000000  0.000000  0.000000      1.000000
 


--------------------------------------------------------------------------------------------------------




 Dimension of arrays:
   k-points           NKPTS =      1   k-points in BZ     NKDIM =      1   number of bands    NBANDS=     64
   number of dos      NEDOS =    301   number of ions     NIONS =      6
   non local maximal  LDIM  =      6   non local SUM 2l+1 LMDIM =     18
   total plane-waves  NPLWV = ******
   max r-space proj   IRMAX =   6426   max aug-charges    IRDMAX=  12418
   dimension x,y,z NGX =   150 NGY =  150 NGZ =  150
   dimension x,y,z NGXF=   300 NGYF=  300 NGZF=  300
   support grid    NGXF=   300 NGYF=  300 NGZF=  300
   ions per type =               6
   NGX,Y,Z   is equivalent  to a cutoff of  12.47, 12.47, 12.47 a.u.
   NGXF,Y,Z  is equivalent  to a cutoff of  24.94, 24.94, 24.94 a.u.

 SYSTEM =  MgO-rocksalt                            
 POSCAR =  Cu                                      

 Startparameter for this run:
   NWRITE =      2    write-flag & timer
   PREC   = accura    normal or accurate (medium, high low for compatibility)
   ISTART =      0    job   : 0-new  1-cont  2-samecut
   ICHARG =      2    charge: 1-file 2-atom 10-const
   ISPIN  =      1    spin polarized calculation?
   LNONCOLLINEAR =      F non collinear calculations
   LSORBIT =      F    spin-orbit coupling
   INIWAV =      1    electr: 0-lowe 1-rand  2-diag
   LASPH  =      T    aspherical Exc in radial PAW
 Electronic Relaxation 1
   ENCUT  =  520.0 eV  38.22 Ry    6.18 a.u.  37.19 37.19 37.19*2*pi/ulx,y,z
   ENINI  =  520.0     initial cutoff
   ENAUG  =  587.0 eV  augmentation charge cutoff
   NELM   =    200;   NELMIN=  8; NELMDL= -5     # of ELM steps 
   EDIFF  = 0.1E-05   stopping-criterion for ELM
   LREAL  =      T    real-space projection
   NLSPLINE    = F    spline interpolate recip. space projectors
   LCOMPAT=      F    compatible to vasp.4.4
   GGA_COMPAT  = T    GGA compatible to vasp.4.4-vasp.4.6
   LMAXPAW     = -100 max onsite density
   LMAXMIX     =    2 max onsite mixed and CHGCAR
   VOSKOWN=      0    Vosko Wilk Nusair interpolation
   ROPT   =   -0.00025
 Ionic relaxation
   EDIFFG = 0.1E-04   stopping-criterion for IOM
   NSW    =      0    number of steps for IOM
   NBLOCK =      1;   KBLOCK =      1    inner block; outer block 
   IBRION =     -1    ionic relax: 0-MD 1-quasi-New 2-CG
   NFREE  =      0    steps in history (QN), initial steepest desc. (CG)
   ISIF   =      2    stress and relaxation
   IWAVPR =     10    prediction:  0-non 1-charg 2-wave 3-comb
   ISYM   =      2    0-nonsym 1-usesym 2-fastsym
   LCORR  =      T    Harris-Foulkes like correction to forces

   POTIM  = 0.5000    time-step for ionic-motion
   TEIN   =    0.0    initial temperature
   TEBEG  =    0.0;   TEEND  =   0.0 temperature during run
   SMASS  =  -3.00    Nose mass-parameter (am)
   estimated Nose-frequenzy (Omega)   =  0.10E-29 period in steps = 0.13E+47 mass=  -0.914E-26a.u.
   SCALEE = 1.0000    scale energy and forces
   NPACO  =    256;   APACO  = 10.0  distance and # of slots for P.C.
   PSTRESS=    0.0 pullay stress

  Mass of Ions in am
   POMASS =  63.55
  Ionic Valenz
   ZVAL   =  11.00
  Atomic Wigner-Seitz radii
   RWIGS  =  -1.00
  virtual crystal weights 
   VCA    =   1.00
   NELECT =      66.0000    total number of electrons
   NUPDOWN=      -1.0000    fix difference up-down

 DOS related values:
   EMIN   =  10.00;   EMAX   =-10.00  energy-range for DOS
   EFERMI =   0.00;   METHOD = LEGACY      
   ISMEAR =     0;   SIGMA  =   0.05  broadening in eV -4-tet -1-fermi 0-gaus

 Electronic relaxation 2 (details)
   IALGO  =     58    algorithm
   LDIAG  =      T    sub-space diagonalisation (order eigenvalues)
   LSUBROT=      F    optimize rotation matrix (better conditioning)
   TURBO    =      0    0=normal 1=particle mesh
   IRESTART =      0    0=no restart 2=restart with 2 vectors
   NREBOOT  =      0    no. of reboots
   NMIN     =      0    reboot dimension
   EREF     =   0.00    reference energy to select bands
   IMIX   =      4    mixing-type and parameters
     AMIX     =   0.40;   BMIX     =  1.00
     AMIX_MAG =   1.60;   BMIX_MAG =  1.00
     AMIN     =   0.10
     WC   =   100.;   INIMIX=   1;  MIXPRE=   1;  MAXMIX= -45

 Intra band minimization:
   WEIMIN = 0.0000     energy-eigenvalue tresh-hold
   EBREAK =  0.39E-08  absolut break condition
   DEPER  =   0.30     relativ break condition  

   TIME   =   0.40     timestep for ELM

  volume/ion in A,a.u.               =    1333.33      8997.78
  Fermi-wavevector in a.u.,A,eV,Ry     =   0.330795  0.625113  1.488826  0.109426
  Thomas-Fermi vector in A             =   1.226404
 
 Write flags
   LWAVE        =      F    write WAVECAR
   LDOWNSAMPLE  =      F    k-point downsampling of WAVECAR
   LCHARG       =      F    write CHGCAR
   LVTOT        =      F    write LOCPOT, total local potential
   LVHAR        =      F    write LOCPOT, Hartree potential only
   LELF         =      F    write electronic localiz. function (ELF)
   LORBIT       =      0    0 simple, 1 ext, 2 COOP (PROOUT), +10 PAW based schemes


 Dipole corrections
   LMONO  =      F    monopole corrections only (constant potential shift)
   LDIPOL =      F    correct potential (dipole corrections)
   IDIPOL =      0    1-x, 2-y, 3-z, 4-all directions 
   EPSILON=  1.0000000 bulk dielectric constant

 Exchange correlation treatment:
   GGA     =    --    GGA type
   LEXCH   =     8    internal setting for exchange type
   LIBXC   =     F    Libxc                    
   VOSKOWN =     0    Vosko Wilk Nusair interpolation
   LHFCALC =     F    Hartree Fock is set to
   LHFONE  =     F    Hartree Fock one center treatment
   AEXX    =    0.0000 exact exchange contribution

 Linear response parameters
   LEPSILON=     F    determine dielectric tensor
   LRPA    =     F    only Hartree local field effects (RPA)
   LNABLA  =     F    use nabla operator in PAW spheres
   LVEL    =     F    velocity operator in full k-point grid
   CSHIFT  =0.1000    complex shift for real part using Kramers Kronig
   OMEGAMAX=  -1.0    maximum frequency
   DEG_THRESHOLD= 0.2000000E-02 threshold for treating states as degnerate
   RTIME   =   -0.100 relaxation time in fs
  (WPLASMAI=    0.000 imaginary part of plasma frequency in eV, 0.658/RTIME)
   DFIELD  = 0.0000000 0.0000000 0.0000000 field for delta impulse in time
 
  Optional k-point grid parameters
   LKPOINTS_OPT  =     F    use optional k-point grid
   KPOINTS_OPT_MODE=     1    mode for optional k-point grid
 
 Orbital magnetization related:
   ORBITALMAG=     F  switch on orbital magnetization
   LCHIMAG   =     F  perturbation theory with respect to B field
   DQ        =  0.001000  dq finite difference perturbation B field
   LLRAUG    =     F  two centre corrections for induced B field
   LBONE     =     F  B-component reconstruction in AE one-centre
   LVGVCALC  =     T  calculate vGv susceptibility
   LVGVAPPL  =     F  apply vGv susceptibility instead of pGv for G=0

 Random number generation:
   RANDOM_GENERATOR = DEFAULT
   PCG_SEED         = not used


--------------------------------------------------------------------------------------------------------


 Static calculation
 charge density and potential will be updated during run
 non-spin polarized calculation
 Conjugate gradient for all bands (Freysoldt, et al. PRB 79, 241103 (2009))
 preconditioned conjugated gradient                                        
 perform sub-space diagonalisation
    before iterative eigenvector-optimisation
 modified Broyden-mixing scheme, WC =      100.0
 initial mixing is a Kerker type mixing with AMIX =  0.4000 and BMIX =      1.0000
 Hartree-type preconditioning will be used
 using additional bands           31
 real space projection scheme for non local part
 use partial core corrections
 no Harris-corrections to forces 
 use gradient corrections 
 use of overlap-Matrix (Vanderbilt PP)
 Gauss-broadening in eV      SIGMA  =   0.05


--------------------------------------------------------------------------------------------------------


  energy-cutoff  :      520.00
  volume of cell :     8000.00
      direct lattice vectors                 reciprocal lattice vectors
    20.000000000  0.000000000  0.000000000     0.050000000  0.000000000  0.000000000
     0.000000000 20.000000000  0.000000000     0.000000000  0.050000000  0.000000000
     0.000000000  0.000000000 20.000000000     0.000000000  0.000000000  0.050000000

  length of vectors
    20.000000000 20.000000000 20.000000000     0.050000000  0.050000000  0.050000000


 
 k-points in units of 2pi/SCALE and weight: KPOINTS created by Atomic Simulation Env
   0.00000000  0.00000000  0.00000000       1.000
 
 k-points in reciprocal lattice and weights: KPOINTS created by Atomic Simulation Env
   0.00000000  0.00000000  0.00000000       1.000
 
 position of ions in fractional coordinates (direct lattice) 
   0.39370387  0.47122268  0.55355791
   0.46963741  0.54149021  0.50042123
   0.57913684  0.50017836  0.47503579
   0.49972726  0.42951445  0.53022039
   0.54790370  0.60857965  0.44651923
   0.60664790  0.39122689  0.50508482
 
 position of ions in cartesian coordinates  (Angst):
   7.87407745  9.42445364 11.07115817
   9.39274830 10.82980412 10.00842468
  11.58273680 10.00356728  9.50071580
   9.99454525  8.59028892 10.60440777
  10.95807401 12.17159298  8.93038470
  12.13295800  7.82453782 10.10169638
 


--------------------------------------------------------------------------------------------------------


 k-point   1 :   0.0000 0.0000 0.0000  plane waves:  215503

 maximum and minimum number of plane-waves per node :    215503   215503

 maximum number of plane-waves:    215503
 maximum index in each direction: 
   IXMAX=   37   IYMAX=   37   IZMAX=   37
   IXMIN=  -37   IYMIN=  -37   IZMIN=  -37


 serial   3D FFT for wavefunctions
 parallel 3D FFT for charge:
    minimum data exchange during FFTs selected (reduces bandwidth)


 total amount of memory used by VASP MPI-rank0   344382. kBytes
=======================================================================

   base      :      30000. kBytes
   nonlr-proj:       6538. kBytes
   fftplans  :      28721. kBytes
   grid      :     268680. kBytes
   one-center:         93. kBytes
   wavefun   :      10350. kBytes
 
     INWAV:  cpu time      0.0004: real time      0.0005
 Broyden mixing: mesh for mixing (old mesh)
   NGX = 75   NGY = 75   NGZ = 75
  (NGX  =300   NGY  =300   NGZ  =300)
  gives a total of 421875 points

 initial charge density was supplied:
 charge density of overlapping atoms calculated
 number of electron      66.0000000 magnetization 
 keeping initial charge density in first step


--------------------------------------------------------------------------------------------------------


 Maximum index for non-local projection operator         6196
 Maximum index for augmentation-charges          321 (set IRDMAX)


--------------------------------------------------------------------------------------------------------


 First call to EWALD:  gamma=   0.089
 Maximum number of real-space cells 3x 3x 3
 Maximum number of reciprocal cells 3x 3x 3

    FEWALD:  cpu time      0.0153: real time      0.0163


--------------------------------------- Ionic step        1  -------------------------------------------




--------------------------------------- Iteration      1(   1)  ---------------------------------------


    POTLOK:  cpu time      6.2753: real time      6.2880
    SETDIJ:  cpu time      4.3535: real time      4.3569
    TRIAL :  cpu time      4.6110: real time      4.6876
    CORREC:  cpu time      0.0095: real time      0.0095
    --------------------------------------------
      LOOP:  cpu time     15.2550: real time     15.3486

 eigenvalue-minimisations  :   128
 total energy-change (2. order) : 0.3665254E+03  (-0.1320935E+04)
 number of electron      66.0000000 magnetization 
 augmentation part       66.0000000 magnetization 

 Free energy of the ion-electron system (eV)
  ---------------------------------------------------
  alpha Z        PSCENC =         3.29097617
  Ewald energy   TEWEN  =      4710.44008138
  -Hartree energ DENC   =    -12320.92909435
  -exchange      EXHF   =         0.00000000
  -V(xc)+E(xc)   XCENC  =       394.27057135
  PAW double counting   =      7291.14199357    -8054.43580507
  entropy T*S    EENTRO =        -0.07282162
  eigenvalues    EBANDS =        -3.04285177
  atomic energy  EATOM  =      8345.86232397
  ---------------------------------------------------
  free energy    TOTEN  =       366.52537362 eV

  energy without entropy =      366.59819525  energy(sigma->0) =      366.56178443


--------------------------------------------------------------------------------------------------------




--------------------------------------- Iteration      1(   2)  ---------------------------------------


    TRIAL :  cpu time      7.1010: real time      7.1097
    CORREC:  cpu time      0.0007: real time      0.0007
    --------------------------------------------
      LOOP:  cpu time      7.1152: real time      7.1280

 eigenvalue-minimisations  :   256
 total energy-change (2. order) :-0.4211798E+03  (-0.4194900E+03)
 number of electron      66.0000000 magnetization 
 augmentation part       66.0000000 magnetization 

 Free energy of the ion-electron system (eV)
  ---------------------------------------------------
  alpha Z        PSCENC =         3.29097617
  Ewald energy   TEWEN  =      4710.44008138
  -Hartree energ DENC   =    -12320.92909435
  -exchange      EXHF   =         0.00000000
  -V(xc)+E(xc)   XCENC  =       394.27057135
  PAW double counting   =      7291.14199357    -8054.43580507
  entropy T*S    EENTRO =        -0.00000000
  eigenvalues    EBANDS =      -424.29543926
  atomic energy  EATOM  =      8345.86232397
  ---------------------------------------------------
  free energy    TOTEN  =       -54.65439225 eV

  energy without entropy =      -54.65439225  energy(sigma->0) =      -54.65439225


--------------------------------------------------------------------------------------------------------




--------------------------------------- Iteration      1(   3)  ---------------------------------------


    TRIAL :  cpu time      4.3869: real time      4.3906
    CORREC:  cpu time      0.0006: real time      0.0006
    --------------------------------------------
      LOOP:  cpu time      4.3896: real time      4.3969

 eigenvalue-minimisations  :   128
 total energy-change (2. order) :-0.4540641E+01  (-0.4540641E+01)
 number of electron      66.0000000 magnetization 
 augmentation part       66.0000000 magnetization 

 Free energy of the ion-electron system (eV)
  ---------------------------------------------------
  alpha Z        PSCENC =         3.29097617
  Ewald energy   TEWEN  =      4710.44008138
  -Hartree energ DENC   =    -12320.92909435
  -exchange      EXHF   =         0.00000000
  -V(xc)+E(xc)   XCENC  =       394.27057135
  PAW double counting   =      7291.14199357    -8054.43580507
  entropy T*S    EENTRO =        -0.00000000
  eigenvalues    EBANDS =      -428.83608051
  atomic energy  EATOM  =      8345.86232397
  ---------------------------------------------------
  free energy    TOTEN  =       -59.19503349 eV

  energy without entropy =      -59.19503349  energy(sigma->0) =      -59.19503349


--------------------------------------------------------------------------------------------------------




--------------------------------------- Iteration      1(   4)  ---------------------------------------


    TRIAL :  cpu time      7.0441: real time      7.0501
    CORREC:  cpu time      0.0004: real time      0.0004
    --------------------------------------------
      LOOP:  cpu time      7.0465: real time      7.0563

 eigenvalue-minimisations  :   256
 total energy-change (2. order) :-0.5970840E-01  (-0.5970840E-01)
 number of electron      66.0000000 magnetization 
 augmentation part       66.0000000 magnetization 

 Free energy of the ion-electron system (eV)
  ---------------------------------------------------
  alpha Z        PSCENC =         3.29097617
  Ewald energy   TEWEN  =      4710.44008138
  -Hartree energ DENC   =    -12320.92909435
  -exchange      EXHF   =         0.00000000
  -V(xc)+E(xc)   XCENC  =       394.27057135
  PAW double counting   =      7291.14199357    -8054.43580507
  entropy T*S    EENTRO =        -0.00000000
  eigenvalues    EBANDS =      -428.89578891
  atomic energy  EATOM  =      8345.86232397
  ---------------------------------------------------
  free energy    TOTEN  =       -59.25474189 eV

  energy without entropy =      -59.25474189  energy(sigma->0) =      -59.25474189


--------------------------------------------------------------------------------------------------------




--------------------------------------- Iteration      1(   5)  ---------------------------------------


    TRIAL :  cpu time      5.6789: real time      5.6833
    CORREC:  cpu time      0.0007: real time      0.0006
    CHARGE:  cpu time      1.1311: real time      1.1328
    --------------------------------------------
      LOOP:  cpu time      6.8127: real time      6.8227

 eigenvalue-minimisations  :   192
 total energy-change (2. order) :-0.3518520E-05  (-0.3517727E-05)
 number of electron      66.0000022 magnetization 
 augmentation part       41.4600436 magnetization 

 Free energy of the ion-electron system (eV)
  ---------------------------------------------------
  alpha Z        PSCENC =         3.29097617
  Ewald energy   TEWEN  =      4710.44008138
  -Hartree energ DENC   =    -12320.92909435
  -exchange      EXHF   =         0.00000000
  -V(xc)+E(xc)   XCENC  =       394.27057135
  PAW double counting   =      7291.14199357    -8054.43580507
  entropy T*S    EENTRO =        -0.00000000
  eigenvalues    EBANDS =      -428.89579243
  atomic energy  EATOM  =      8345.86232397
  ---------------------------------------------------
  free energy    TOTEN  =       -59.25474541 eV

  energy without entropy =      -59.25474541  energy(sigma->0) =      -59.25474541


--------------------------------------------------------------------------------------------------------




--------------------------------------- Iteration      1(   6)  ---------------------------------------


    POTLOK:  cpu time      6.2060: real time      6.2114
    SETDIJ:  cpu time      4.4448: real time      4.4481
    TRIAL :  cpu time      4.2242: real time      4.2784
    CORREC:  cpu time     12.8148: real time     12.8250
    CHARGE:  cpu time      1.0877: real time      1.0884
    --------------------------------------------
      LOOP:  cpu time     28.7800: real time     28.8572

 eigenvalue-minimisations  :     0
 total energy-change (2. order) : 0.5208179E+01  (-0.2881530E+01)
 number of electron      66.0000023 magnetization 
 augmentation part       42.5793558 magnetization 

 Free energy of the ion-electron system (eV)
  ---------------------------------------------------
  alpha Z        PSCENC =         3.29097617
  Ewald energy   TEWEN  =      4710.44008138
  -Hartree energ DENC   =    -12312.53655867
  -exchange      EXHF   =         0.00000000
  -V(xc)+E(xc)   XCENC  =       336.84000661
  PAW double counting   =      7592.39988416    -8327.25903707
  entropy T*S    EENTRO =        -0.00000000
  eigenvalues    EBANDS =      -403.08424297
  atomic energy  EATOM  =      8345.86232397
  ---------------------------------------------------
  free energy    TOTEN  =       -54.04656644 eV

  energy without entropy =      -54.04656644  energy(sigma->0) =      -54.04656644


--------------------------------------------------------------------------------------------------------




--------------------------------------- Iteration      1(   7)  ---------------------------------------


    POTLOK:  cpu time      6.1822: real time      6.1869
    SETDIJ:  cpu time      4.4458: real time      4.4492
    TRIAL :  cpu time      4.0449: real time      4.0478
    CORREC:  cpu time     12.7643: real time     12.7745
    CHARGE:  cpu time      1.0775: real time      1.0782
    --------------------------------------------
      LOOP:  cpu time     28.5180: real time     28.5433

 eigenvalue-minimisations  :     0
 total energy-change (2. order) :-0.2710022E+01  (-0.1419294E+01)
 number of electron      66.0000023 magnetization 
 augmentation part       42.3269594 magnetization 

 Free energy of the ion-electron system (eV)
  ---------------------------------------------------
  alpha Z        PSCENC =         3.29097617
  Ewald energy   TEWEN  =      4710.44008138
  -Hartree energ DENC   =    -12427.16177550
  -exchange      EXHF   =         0.00000000
  -V(xc)+E(xc)   XCENC  =       345.57997897
  PAW double counting   =      7649.47320971    -8429.50396093
  entropy T*S    EENTRO =        -0.00000000
  eigenvalues    EBANDS =      -254.73742192
  atomic energy  EATOM  =      8345.86232397
  ---------------------------------------------------
  free energy    TOTEN  =       -56.75658815 eV

  energy without entropy =      -56.75658815  energy(sigma->0) =      -56.75658815


--------------------------------------------------------------------------------------------------------




--------------------------------------- Iteration      1(   8)  ---------------------------------------


    POTLOK:  cpu time      6.1403: real time      6.1450
    SETDIJ:  cpu time      4.4343: real time      4.4377
    TRIAL :  cpu time      4.0526: real time      4.0553
    CORREC:  cpu time     12.7801: real time     12.7894
    CHARGE:  cpu time      1.0817: real time      1.0832
    --------------------------------------------
      LOOP:  cpu time     28.4917: real time     28.5163

 eigenvalue-minimisations  :     0
 total energy-change (2. order) :-0.1416968E+01  (-0.3396586E+00)
 number of electron      66.0000023 magnetization 
 augmentation part       42.4554862 magnetization 

 Free energy of the ion-electron system (eV)
  ---------------------------------------------------
  alpha Z        PSCENC =         3.29097617
  Ewald energy   TEWEN  =      4710.44008138
  -Hartree energ DENC   =    -12314.05634921
  -exchange      EXHF   =         0.00000000
  -V(xc)+E(xc)   XCENC  =       342.55475020
  PAW double counting   =      7567.62728431    -8333.85835506
  entropy T*S    EENTRO =        -0.00000000
  eigenvalues    EBANDS =      -380.03426751
  atomic energy  EATOM  =      8345.86232397
  ---------------------------------------------------
  free energy    TOTEN  =       -58.17355576 eV

  energy without entropy =      -58.17355576  energy(sigma->0) =      -58.17355576


--------------------------------------------------------------------------------------------------------




--------------------------------------- Iteration      1(   9)  ---------------------------------------


    POTLOK:  cpu time      6.1573: real time      6.1610
    SETDIJ:  cpu time      4.4436: real time      4.4469
    TRIAL :  cpu time      4.0748: real time      4.0785
    CORREC:  cpu time     12.7570: real time     12.7662
    CHARGE:  cpu time      1.0815: real time      1.0820
    --------------------------------------------
      LOOP:  cpu time     28.5166: real time     28.5426

 eigenvalue-minimisations  :     0
 total energy-change (2. order) :-0.3380383E+00  (-0.2351271E+00)
 number of electron      66.0000023 magnetization 
 augmentation part       42.4300681 magnetization 

 Free energy of the ion-electron system (eV)
  ---------------------------------------------------
  alpha Z        PSCENC =         3.29097617
  Ewald energy   TEWEN  =      4710.44008138
  -Hartree energ DENC   =    -12324.19398350
  -exchange      EXHF   =         0.00000000
  -V(xc)+E(xc)   XCENC  =       343.42700433
  PAW double counting   =      7572.06670262    -8342.86974703
  entropy T*S    EENTRO =        -0.00000000
  eigenvalues    EBANDS =      -366.53495205
  atomic energy  EATOM  =      8345.86232397
  ---------------------------------------------------
  free energy    TOTEN  =       -58.51159411 eV

  energy without entropy =      -58.51159411  energy(sigma->0) =      -58.51159411


--------------------------------------------------------------------------------------------------------




--------------------------------------- Iteration      1(  10)  ---------------------------------------


    POTLOK:  cpu time      6.1544: real time      6.1593
    SETDIJ:  cpu time      4.4421: real time      4.4454
    TRIAL :  cpu time      4.0444: real time      4.0482
    CORREC:  cpu time     12.7893: real time     12.7987
    CHARGE:  cpu time      1.0794: real time      1.0802
    --------------------------------------------
      LOOP:  cpu time     28.5152: real time     28.5374

 eigenvalue-minimisations  :     0
 total energy-change (2. order) :-0.2330598E+00  (-0.7106728E-01)
 number of electron      66.0000023 magnetization 
 augmentation part       42.3553067 magnetization 

 Free energy of the ion-electron system (eV)
  ---------------------------------------------------
  alpha Z        PSCENC =         3.29097617
  Ewald energy   TEWEN  =      4710.44008138
  -Hartree energ DENC   =    -12326.16895174
  -exchange      EXHF   =         0.00000000
  -V(xc)+E(xc)   XCENC  =       343.09542927
  PAW double counting   =      7569.95115037    -8338.84941169
  entropy T*S    EENTRO =        -0.00000000
  eigenvalues    EBANDS =      -366.36625166
  atomic energy  EATOM  =      8345.86232397
  ---------------------------------------------------
  free energy    TOTEN  =       -58.74465393 eV

  energy without entropy =      -58.74465393  energy(sigma->0) =      -58.74465393


--------------------------------------------------------------------------------------------------------




--------------------------------------- Iteration      1(  11)  ---------------------------------------


    POTLOK:  cpu time      6.1556: real time      6.1603
    SETDIJ:  cpu time      4.4396: real time      4.4429
    TRIAL :  cpu time      4.0555: real time      4.0585
    CORREC:  cpu time     12.7781: real time     12.7883
    CHARGE:  cpu time      1.0786: real time      1.0793
    --------------------------------------------
      LOOP:  cpu time     28.5098: real time     28.5350

 eigenvalue-minimisations  :     0
 total energy-change (2. order) :-0.7113371E-01  (-0.3582103E-01)
 number of electron      66.0000023 magnetization 
 augmentation part       42.4345512 magnetization 

 Free energy of the ion-electron system (eV)
  ---------------------------------------------------
  alpha Z        PSCENC =         3.29097617
  Ewald energy   TEWEN  =      4710.44008138
  -Hartree energ DENC   =    -12317.55915023
  -exchange      EXHF   =         0.00000000
  -V(xc)+E(xc)   XCENC  =       342.44346896
  PAW double counting   =      7559.98285724    -8325.06544650
  entropy T*S    EENTRO =        -0.00000000
  eigenvalues    EBANDS =      -378.21089862
  atomic energy  EATOM  =      8345.86232397
  ---------------------------------------------------
  free energy    TOTEN  =       -58.81578764 eV

  energy without entropy =      -58.81578764  energy(sigma->0) =      -58.81578764


--------------------------------------------------------------------------------------------------------




--------------------------------------- Iteration      1(  12)  ---------------------------------------


    POTLOK:  cpu time      6.1556: real time      6.1605
    SETDIJ:  cpu time      4.4388: real time      4.4422
    TRIAL :  cpu time      4.0434: real time      4.0462
    CORREC:  cpu time     12.7818: real time     12.7919
    CHARGE:  cpu time      1.0801: real time      1.0809
    --------------------------------------------
      LOOP:  cpu time     28.5022: real time     28.5274

 eigenvalue-minimisations  :     0
 total energy-change (2. order) :-0.3562841E-01  (-0.1168574E-01)
 number of electron      66.0000023 magnetization 
 augmentation part       42.3986152 magnetization 

 Free energy of the ion-electron system (eV)
  ---------------------------------------------------
  alpha Z        PSCENC =         3.29097617
  Ewald energy   TEWEN  =      4710.44008138
  -Hartree energ DENC   =    -12329.13773117
  -exchange      EXHF   =         0.00000000
  -V(xc)+E(xc)   XCENC  =       343.01917414
  PAW double counting   =      7561.72742575    -8329.65201282
  entropy T*S    EENTRO =        -0.00000000
  eigenvalues    EBANDS =      -364.40165346
  atomic energy  EATOM  =      8345.86232397
  ---------------------------------------------------
  free energy    TOTEN  =       -58.85141605 eV

  energy without entropy =      -58.85141605  energy(sigma->0) =      -58.85141605


--------------------------------------------------------------------------------------------------------




--------------------------------------- Iteration      1(  13)  ---------------------------------------


    POTLOK:  cpu time      6.1638: real time      6.1685
    SETDIJ:  cpu time      4.4407: real time      4.4439
    TRIAL :  cpu time      4.0489: real time      4.0519
    CORREC:  cpu time     12.7636: real time     12.7728
    CHARGE:  cpu time      1.0798: real time      1.0813
    --------------------------------------------
      LOOP:  cpu time     28.5050: real time     28.5267

 eigenvalue-minimisations  :     0
 total energy-change (2. order) :-0.1181708E-01  (-0.4802312E-02)
 number of electron      66.0000023 magnetization 
 augmentation part       42.4385956 magnetization 

 Free energy of the ion-electron system (eV)
  ---------------------------------------------------
  alpha Z        PSCENC =         3.29097617
  Ewald energy   TEWEN  =      4710.44008138
  -Hartree energ DENC   =    -12321.77680143
  -exchange      EXHF   =         0.00000000
  -V(xc)+E(xc)   XCENC  =       342.68195770
  PAW double counting   =      7554.09605947    -8320.32075888
  entropy T*S    EENTRO =        -0.00000000
  eigenvalues    EBANDS =      -373.13707150
  atomic energy  EATOM  =      8345.86232397
  ---------------------------------------------------
  free energy    TOTEN  =       -58.86323313 eV

  energy without entropy =      -58.86323313  energy(sigma->0) =      -58.86323313


--------------------------------------------------------------------------------------------------------




--------------------------------------- Iteration      1(  14)  ---------------------------------------


    POTLOK:  cpu time      6.1597: real time      6.1634
    SETDIJ:  cpu time      4.4388: real time      4.4419
    TRIAL :  cpu time      4.0577: real time      4.0613
    CORREC:  cpu time     12.8198: real time     12.8289
    CHARGE:  cpu time      1.0789: real time      1.0796
    --------------------------------------------
      LOOP:  cpu time     28.5587: real time     28.5824

 eigenvalue-minimisations  :     0
 total energy-change (2. order) :-0.4874858E-02  (-0.1604632E-02)
 number of electron      66.0000023 magnetization 
 augmentation part       42.4241458 magnetization 

 Free energy of the ion-electron system (eV)
  ---------------------------------------------------
  alpha Z        PSCENC =         3.29097617
  Ewald energy   TEWEN  =      4710.44008138
  -Hartree energ DENC   =    -12326.22071768
  -exchange      EXHF   =         0.00000000
  -V(xc)+E(xc)   XCENC  =       342.98150893
  PAW double counting   =      7555.23808292    -8323.03959859
  entropy T*S    EENTRO =        -0.00000000
  eigenvalues    EBANDS =      -367.42076508
  atomic energy  EATOM  =      8345.86232397
  ---------------------------------------------------
  free energy    TOTEN  =       -58.86810798 eV

  energy without entropy =      -58.86810798  energy(sigma->0) =      -58.86810798


--------------------------------------------------------------------------------------------------------




--------------------------------------- Iteration      1(  15)  ---------------------------------------


    POTLOK:  cpu time      6.1617: real time      6.1664
    SETDIJ:  cpu time      4.4384: real time      4.4417
    TRIAL :  cpu time      4.0528: real time      4.0566
    CORREC:  cpu time     12.7700: real time     12.7794
    CHARGE:  cpu time      1.0790: real time      1.0797
    --------------------------------------------
      LOOP:  cpu time     28.5064: real time     28.5324

 eigenvalue-minimisations  :     0
 total energy-change (2. order) :-0.1628096E-02  (-0.6299546E-03)
 number of electron      66.0000023 magnetization 
 augmentation part       42.4400132 magnetization 

 Free energy of the ion-electron system (eV)
  ---------------------------------------------------
  alpha Z        PSCENC =         3.29097617
  Ewald energy   TEWEN  =      4710.44008138
  -Hartree energ DENC   =    -12323.79056376
  -exchange      EXHF   =         0.00000000
  -V(xc)+E(xc)   XCENC  =       342.87133249
  PAW double counting   =      7553.77814439    -8320.89303643
  entropy T*S    EENTRO =        -0.00000000
  eigenvalues    EBANDS =      -370.42899428
  atomic energy  EATOM  =      8345.86232397
  ---------------------------------------------------
  free energy    TOTEN  =       -58.86973608 eV

  energy without entropy =      -58.86973608  energy(sigma->0) =      -58.86973608


--------------------------------------------------------------------------------------------------------




--------------------------------------- Iteration      1(  16)  ---------------------------------------


    POTLOK:  cpu time      6.1595: real time      6.1638
    SETDIJ:  cpu time      4.4321: real time      4.4355
    TRIAL :  cpu time      4.0509: real time      4.0547
    CORREC:  cpu time     12.7820: real time     12.7912
    CHARGE:  cpu time      1.0786: real time      1.0793
    --------------------------------------------
      LOOP:  cpu time     28.5063: real time     28.5311

 eigenvalue-minimisations  :     0
 total energy-change (2. order) :-0.6353706E-03  (-0.2473304E-03)
 number of electron      66.0000023 magnetization 
 augmentation part       42.4343517 magnetization 

 Free energy of the ion-electron system (eV)
  ---------------------------------------------------
  alpha Z        PSCENC =         3.29097617
  Ewald energy   TEWEN  =      4710.44008138
  -Hartree energ DENC   =    -12325.89190036
  -exchange      EXHF   =         0.00000000
  -V(xc)+E(xc)   XCENC  =       343.00688974
  PAW double counting   =      7555.19478566    -8322.90504308
  entropy T*S    EENTRO =        -0.00000000
  eigenvalues    EBANDS =      -367.86848492
  atomic energy  EATOM  =      8345.86232397
  ---------------------------------------------------
  free energy    TOTEN  =       -58.87037145 eV

  energy without entropy =      -58.87037145  energy(sigma->0) =      -58.87037145


--------------------------------------------------------------------------------------------------------




--------------------------------------- Iteration      1(  17)  ---------------------------------------


    POTLOK:  cpu time      6.1572: real time      6.1620
    SETDIJ:  cpu time      4.4376: real time      4.4409
    TRIAL :  cpu time      4.0555: real time      4.0586
    CORREC:  cpu time     12.7689: real time     12.7787
    CHARGE:  cpu time      1.0862: real time      1.0869
    --------------------------------------------
      LOOP:  cpu time     28.5076: real time     28.5327

 eigenvalue-minimisations  :     0
 total energy-change (2. order) :-0.2415846E-03  (-0.6626585E-04)
 number of electron      66.0000023 magnetization 
 augmentation part       42.4345335 magnetization 

 Free energy of the ion-electron system (eV)
  ---------------------------------------------------
  alpha Z        PSCENC =         3.29097617
  Ewald energy   TEWEN  =      4710.44008138
  -Hartree energ DENC   =    -12325.06305202
  -exchange      EXHF   =         0.00000000
  -V(xc)+E(xc)   XCENC  =       342.96875777
  PAW double counting   =      7554.87875069    -8322.29883545
  entropy T*S    EENTRO =        -0.00000000
  eigenvalues    EBANDS =      -368.94961553
  atomic energy  EATOM  =      8345.86232397
  ---------------------------------------------------
  free energy    TOTEN  =       -58.87061304 eV

  energy without entropy =      -58.87061304  energy(sigma->0) =      -58.87061304


--------------------------------------------------------------------------------------------------------




--------------------------------------- Iteration      1(  18)  ---------------------------------------


    POTLOK:  cpu time      6.1639: real time      6.1691
    SETDIJ:  cpu time      4.4296: real time      4.4329
    TRIAL :  cpu time      4.0616: real time      4.0646
    CORREC:  cpu time     12.7979: real time     12.8073
    CHARGE:  cpu time      1.0950: real time      1.0965
    --------------------------------------------
      LOOP:  cpu time     28.5535: real time     28.5760

 eigenvalue-minimisations  :     0
 total energy-change (2. order) :-0.6644700E-04  (-0.2671214E-04)
 number of electron      66.0000023 magnetization 
 augmentation part       42.4354656 magnetization 

 Free energy of the ion-electron system (eV)
  ---------------------------------------------------
  alpha Z        PSCENC =         3.29097617
  Ewald energy   TEWEN  =      4710.44008138
  -Hartree energ DENC   =    -12325.09220230
  -exchange      EXHF   =         0.00000000
  -V(xc)+E(xc)   XCENC  =       342.97364314
  PAW double counting   =      7554.98613391    -8322.39359817
  entropy T*S    EENTRO =        -0.00000000
  eigenvalues    EBANDS =      -368.93803757
  atomic energy  EATOM  =      8345.86232397
  ---------------------------------------------------
  free energy    TOTEN  =       -58.87067948 eV

  energy without entropy =      -58.87067948  energy(sigma->0) =      -58.87067948


--------------------------------------------------------------------------------------------------------




--------------------------------------- Iteration      1(  19)  ---------------------------------------


    POTLOK:  cpu time      6.1634: real time      6.1681
    SETDIJ:  cpu time      4.4373: real time      4.4407
    TRIAL :  cpu time      4.0612: real time      4.0642
    CORREC:  cpu time     12.7699: real time     12.7793
    CHARGE:  cpu time      1.0832: real time      1.0839
    --------------------------------------------
      LOOP:  cpu time     28.5172: real time     28.5429

 eigenvalue-minimisations  :     0
 total energy-change (2. order) :-0.2810240E-04  (-0.9337846E-05)
 number of electron      66.0000023 magnetization 
 augmentation part       42.4349973 magnetization 

 Free energy of the ion-electron system (eV)
  ---------------------------------------------------
  alpha Z        PSCENC =         3.29097617
  Ewald energy   TEWEN  =      4710.44008138
  -Hartree energ DENC   =    -12325.26885977
  -exchange      EXHF   =         0.00000000
  -V(xc)+E(xc)   XCENC  =       342.98281583
  PAW double counting   =      7555.11885628    -8322.55639459
  entropy T*S    EENTRO =        -0.00000000
  eigenvalues    EBANDS =      -368.74050686
  atomic energy  EATOM  =      8345.86232397
  ---------------------------------------------------
  free energy    TOTEN  =       -58.87070759 eV

  energy without entropy =      -58.87070759  energy(sigma->0) =      -58.87070759


--------------------------------------------------------------------------------------------------------




--------------------------------------- Iteration      1(  20)  ---------------------------------------


    POTLOK:  cpu time      6.1613: real time      6.1657
    SETDIJ:  cpu time      4.4391: real time      4.4422
    TRIAL :  cpu time      4.0510: real time      4.0548
    CORREC:  cpu time     51.1094: real time     51.1479
    CHARGE:  cpu time      1.0828: real time      1.0836
    --------------------------------------------
      LOOP:  cpu time     66.8465: real time     66.9003

 eigenvalue-minimisations  :     0
 total energy-change (2. order) :-0.9729149E-05  (-0.2153842E-04)
 number of electron      66.0000023 magnetization 
 augmentation part       42.4370138 magnetization 

 Free energy of the ion-electron system (eV)
  ---------------------------------------------------
  alpha Z        PSCENC =         3.29097617
  Ewald energy   TEWEN  =      4710.44008138
  -Hartree energ DENC   =    -12325.21885943
  -exchange      EXHF   =         0.00000000
  -V(xc)+E(xc)   XCENC  =       342.97981732
  PAW double counting   =      7555.10644241    -8322.52506899
  entropy T*S    EENTRO =        -0.00000000
  eigenvalues    EBANDS =      -368.80643013
  atomic energy  EATOM  =      8345.86232397
  ---------------------------------------------------
  free energy    TOTEN  =       -58.87071731 eV

  energy without entropy =      -58.87071731  energy(sigma->0) =      -58.87071731


--------------------------------------------------------------------------------------------------------




--------------------------------------- Iteration      1(  21)  ---------------------------------------


    POTLOK:  cpu time      6.1675: real time      6.1724
    SETDIJ:  cpu time      4.4297: real time      4.4331
    TRIAL :  cpu time      4.0589: real time      4.0620
    CORREC:  cpu time     12.8045: real time     12.8146
    CHARGE:  cpu time      1.0812: real time      1.0820
    --------------------------------------------
      LOOP:  cpu time     28.5498: real time     28.5722

 eigenvalue-minimisations  :     0
 total energy-change (2. order) : 0.3924038E-04  (-0.3300398E-04)
 number of electron      66.0000023 magnetization 
 augmentation part       42.4345156 magnetization 

 Free energy of the ion-electron system (eV)
  ---------------------------------------------------
  alpha Z        PSCENC =         3.29097617
  Ewald energy   TEWEN  =      4710.44008138
  -Hartree energ DENC   =    -12325.51956710
  -exchange      EXHF   =         0.00000000
  -V(xc)+E(xc)   XCENC  =       342.99531849
  PAW double counting   =      7555.23615815    -8322.75707996
  entropy T*S    EENTRO =        -0.00000000
  eigenvalues    EBANDS =      -368.41888917
  atomic energy  EATOM  =      8345.86232397
  ---------------------------------------------------
  free energy    TOTEN  =       -58.87067807 eV

  energy without entropy =      -58.87067807  energy(sigma->0) =      -58.87067807


--------------------------------------------------------------------------------------------------------




--------------------------------------- Iteration      1(  22)  ---------------------------------------


    POTLOK:  cpu time      6.1659: real time      6.1705
    SETDIJ:  cpu time      4.4178: real time      4.4211
    TRIAL :  cpu time      4.0493: real time      4.0520
    CORREC:  cpu time     12.7910: real time     12.8012
    CHARGE:  cpu time      1.0944: real time      1.0953
    --------------------------------------------
      LOOP:  cpu time     28.5225: real time     28.5473

 eigenvalue-minimisations  :     0
 total energy-change (2. order) :-0.2224074E-04  (-0.1903945E-04)
 number of electron      66.0000023 magnetization 
 augmentation part       42.4346883 magnetization 

 Free energy of the ion-electron system (eV)
  ---------------------------------------------------
  alpha Z        PSCENC =         3.29097617
  Ewald energy   TEWEN  =      4710.44008138
  -Hartree energ DENC   =    -12325.14752371
  -exchange      EXHF   =         0.00000000
  -V(xc)+E(xc)   XCENC  =       342.97537117
  PAW double counting   =      7555.02546009    -8322.43927688
  entropy T*S    EENTRO =        -0.00000000
  eigenvalues    EBANDS =      -368.87811249
  atomic energy  EATOM  =      8345.86232397
  ---------------------------------------------------
  free energy    TOTEN  =       -58.87070031 eV

  energy without entropy =      -58.87070031  energy(sigma->0) =      -58.87070031


--------------------------------------------------------------------------------------------------------




--------------------------------------- Iteration      1(  23)  ---------------------------------------


    POTLOK:  cpu time      6.1557: real time      6.1602
    SETDIJ:  cpu time      4.4288: real time      4.4321
    TRIAL :  cpu time      4.0530: real time      4.0560
    CORREC:  cpu time     12.7025: real time     12.7119
    CHARGE:  cpu time      1.0978: real time      1.0984
    --------------------------------------------
      LOOP:  cpu time     28.4407: real time     28.4653

 eigenvalue-minimisations  :     0
 total energy-change (2. order) :-0.1917168E-04  ( 0.4356909E-05)
 number of electron      66.0000023 magnetization 
 augmentation part       42.4361890 magnetization 

 Free energy of the ion-electron system (eV)
  ---------------------------------------------------
  alpha Z        PSCENC =         3.29097617
  Ewald energy   TEWEN  =      4710.44008138
  -Hartree energ DENC   =    -12325.17062610
  -exchange      EXHF   =         0.00000000
  -V(xc)+E(xc)   XCENC  =       342.97682883
  PAW double counting   =      7555.04376000    -8322.45899900
  entropy T*S    EENTRO =        -0.00000000
  eigenvalues    EBANDS =      -368.85506473
  atomic energy  EATOM  =      8345.86232397
  ---------------------------------------------------
  free energy    TOTEN  =       -58.87071949 eV

  energy without entropy =      -58.87071949  energy(sigma->0) =      -58.87071949


--------------------------------------------------------------------------------------------------------




--------------------------------------- Iteration      1(  24)  ---------------------------------------


    POTLOK:  cpu time      6.1646: real time      6.1693
    SETDIJ:  cpu time      4.4233: real time      4.4266
    TRIAL :  cpu time      4.0493: real time      4.0530
    CORREC:  cpu time     12.7765: real time     12.7862
    CHARGE:  cpu time      1.0953: real time      1.0959
    --------------------------------------------
      LOOP:  cpu time     28.5126: real time     28.5378

 eigenvalue-minimisations  :     0
 total energy-change (2. order) :-0.8367342E-05  (-0.2254777E-05)
 number of electron      66.0000023 magnetization 
 augmentation part       42.4354284 magnetization 

 Free energy of the ion-electron system (eV)
  ---------------------------------------------------
  alpha Z        PSCENC =         3.29097617
  Ewald energy   TEWEN  =      4710.44008138
  -Hartree energ DENC   =    -12325.39525107
  -exchange      EXHF   =         0.00000000
  -V(xc)+E(xc)   XCENC  =       342.98900052
  PAW double counting   =      7555.18865443    -8322.66516750
  entropy T*S    EENTRO =        -0.00000000
  eigenvalues    EBANDS =      -368.58134575
  atomic energy  EATOM  =      8345.86232397
  ---------------------------------------------------
  free energy    TOTEN  =       -58.87072785 eV

  energy without entropy =      -58.87072785  energy(sigma->0) =      -58.87072785


--------------------------------------------------------------------------------------------------------




--------------------------------------- Iteration      1(  25)  ---------------------------------------


    POTLOK:  cpu time      6.1574: real time      6.1620
    SETDIJ:  cpu time      4.4211: real time      4.4243
    TRIAL :  cpu time      4.0469: real time      4.0504
    CORREC:  cpu time     12.8004: real time     12.8097
    CHARGE:  cpu time      1.0916: real time      1.0923
    --------------------------------------------
      LOOP:  cpu time     28.5196: real time     28.5444

 eigenvalue-minimisations  :     0
 total energy-change (2. order) : 0.1511338E-05  (-0.2704485E-06)
 number of electron      66.0000023 magnetization 
 augmentation part       42.4352107 magnetization 

 Free energy of the ion-electron system (eV)
  ---------------------------------------------------
  alpha Z        PSCENC =         3.29097617
  Ewald energy   TEWEN  =      4710.44008138
  -Hartree energ DENC   =    -12325.28597088
  -exchange      EXHF   =         0.00000000
  -V(xc)+E(xc)   XCENC  =       342.98287523
  PAW double counting   =      7555.12398543    -8322.56902210
  entropy T*S    EENTRO =        -0.00000000
  eigenvalues    EBANDS =      -368.71597554
  atomic energy  EATOM  =      8345.86232397
  ---------------------------------------------------
  free energy    TOTEN  =       -58.87072634 eV

  energy without entropy =      -58.87072634  energy(sigma->0) =      -58.87072634


--------------------------------------------------------------------------------------------------------




--------------------------------------- Iteration      1(  26)  ---------------------------------------


    POTLOK:  cpu time      6.1608: real time      6.1655
    SETDIJ:  cpu time      4.4096: real time      4.4129
    TRIAL :  cpu time      4.0570: real time      4.0598
    CORREC:  cpu time     13.9731: real time     13.9839
    EDDIAG:  cpu time      1.0776: real time      1.0784
    CHARGE:  cpu time      1.0955: real time      1.0962
    --------------------------------------------
      LOOP:  cpu time     30.7769: real time     30.8029

 eigenvalue-minimisations  :     0
 total energy-change (2. order) : 0.8869483E-06  (-0.1038993E-06)
 number of electron      66.0000023 magnetization 
 augmentation part       42.4351279 magnetization 

 Free energy of the ion-electron system (eV)
  ---------------------------------------------------
  alpha Z        PSCENC =         3.29097617
  Ewald energy   TEWEN  =      4710.44008138
  -Hartree energ DENC   =    -12325.25447483
  -exchange      EXHF   =         0.00000000
  -V(xc)+E(xc)   XCENC  =       342.98111448
  PAW double counting   =      7555.10534462    -8322.54141339
  entropy T*S    EENTRO =        -0.00000000
  eigenvalues    EBANDS =      -368.75467785
  atomic energy  EATOM  =      8345.86232397
  ---------------------------------------------------
  free energy    TOTEN  =       -58.87072546 eV

  energy without entropy =      -58.87072546  energy(sigma->0) =      -58.87072546


--------------------------------------------------------------------------------------------------------


  average scaling for gradient   0.9061


 average (electrostatic) potential at core
  the test charge radii are     0.9430
  (the norm of the test charge is              1.0000)
       1 -75.4345       2 -75.5527       3 -75.5522       4 -75.5527       5 -75.4337
       6 -75.4352
 
 
 
 E-fermi :  -4.3311     XC(G=0):  -0.3472     alpha+bet : -0.1189

 Fermi energy:        -4.3310534887

 k-point     1 :       0.0000    0.0000    0.0000
  band No.  band energies     occupation 
      1      -8.3574      2.00000
      2      -7.1092      2.00000
      3      -7.1088      2.00000
      4      -6.7528      2.00000
      5      -6.1796      2.00000
      6      -6.1783      2.00000
      7      -6.1523      2.00000
      8      -6.1515      2.00000
      9      -6.0789      2.00000
     10      -5.7763      2.00000
     11      -5.6693      2.00000
     12      -5.6300      2.00000
     13      -5.5469      2.00000
     14      -5.5466      2.00000
     15      -5.5039      2.00000
     16      -5.4129      2.00000
     17      -5.3851      2.00000
     18      -5.3846      2.00000
     19      -5.2767      2.00000
     20      -5.2765      2.00000
     21      -5.1785      2.00000
     22      -5.1781      2.00000
     23      -5.0628      2.00000
     24      -5.0622      2.00000
     25      -4.9993      2.00000
     26      -4.9819      2.00000
     27      -4.9817      2.00000
     28      -4.8719      2.00000
     29      -4.8715      2.00000
     30      -4.8118      2.00000
     31      -4.8109      2.00000
     32      -4.5678      2.00000
     33      -4.5675      2.00000
     34      -2.6910      0.00000
     35      -2.3615      0.00000
     36      -2.3608      0.00000
     37      -1.9825      0.00000
     38      -0.7584      0.00000
     39      -0.7580      0.00000
     40      -0.3399      0.00000
     41      -0.3397      0.00000
     42       0.0151      0.00000
     43       0.0295      0.00000
     44       0.2118      0.00000
     45       0.3803      0.00000
     46       0.3953      0.00000
     47       0.4222      0.00000
     48       0.4392      0.00000
     49       0.4642      0.00000
     50       0.4675      0.00000
     51       0.6632      0.00000
     52       0.7266      0.00000
     53       0.7309      0.00000
     54       0.7486      0.00000
     55       0.7688      0.00000
     56       0.7941      0.00000
     57       0.8065      0.00000
     58       0.8137      0.00000
     59       0.8280      0.00000
     60       0.8759      0.00000
     61       0.8858      0.00000
     62       0.9085      0.00000
     63       1.0598      0.00000
     64       1.1611      0.00000


--------------------------------------------------------------------------------------------------------


 soft charge-density along one line, spin component           1
         0         1         2         3         4         5         6         7         8         9
 total charge-density along one line
 
 pseudopotential strength for first ion, spin component:           1
-10.600   0.039  -0.002   0.024   0.001   0.960  -0.027   0.002
  0.039 -10.516   0.013   0.000  -0.023  -0.027   0.900  -0.010
 -0.002   0.013 -10.515   0.020   0.024   0.002  -0.010   0.898
  0.024   0.000   0.020 -10.556   0.038  -0.017  -0.001  -0.015
  0.001  -0.023   0.024   0.038 -10.599  -0.000   0.017  -0.016
  0.960  -0.027   0.002  -0.017  -0.000   6.518   0.021  -0.001
 -0.027   0.900  -0.010  -0.001   0.017   0.021   6.564   0.007
  0.002  -0.010   0.898  -0.015  -0.016  -0.001   0.007   6.564
 -0.017  -0.001  -0.015   0.927  -0.028   0.013   0.000   0.012
 -0.000   0.017  -0.016  -0.028   0.960   0.000  -0.013   0.013
 -0.001  -0.005  -0.008  -0.008   0.004  -0.000   0.002   0.004
 -0.001  -0.010  -0.015  -0.015   0.007   0.000   0.003   0.005
 -0.032   0.014   0.003   0.000   0.005  -0.006   0.003   0.001
  0.000  -0.005   0.016  -0.032  -0.000  -0.000  -0.001   0.003
 -0.005   0.000   0.019   0.013  -0.032  -0.001  -0.000   0.004
 -0.036   0.015   0.003   0.000   0.006  -0.015   0.006   0.001
  0.000  -0.006   0.017  -0.035  -0.000  -0.000  -0.002   0.008
 -0.005   0.000   0.021   0.015  -0.035  -0.002  -0.000   0.008
 total augmentation occupancy for first ion, spin component:           1
  1.958   0.012  -0.003   0.005   0.005   0.011  -0.011   0.002  -0.004  -0.006   0.000  -0.001   0.117  -0.013  -0.006  -0.046
  0.012   1.983   0.003  -0.001  -0.007  -0.011  -0.009  -0.001   0.003   0.004   0.015   0.005  -0.054   0.022  -0.006   0.020
 -0.003   0.003   1.984   0.004   0.005   0.002  -0.001  -0.009  -0.001  -0.006   0.024   0.009   0.002  -0.026  -0.060   0.004
  0.005  -0.001   0.004   1.978   0.005  -0.004   0.003  -0.001  -0.003  -0.005   0.025   0.011  -0.011   0.075  -0.044   0.000
  0.005  -0.007   0.005   0.005   1.969  -0.006   0.004  -0.006  -0.005   0.001  -0.014  -0.008  -0.032   0.003   0.080   0.008
  0.011  -0.011   0.002  -0.004  -0.006   0.006  -0.002  -0.000  -0.001  -0.000   0.003  -0.001   0.012  -0.002   0.002  -0.001
 -0.011  -0.009  -0.001   0.003   0.004  -0.002   0.003   0.000   0.001   0.000  -0.022  -0.000  -0.006   0.003  -0.003   0.001
  0.002  -0.001  -0.009  -0.001  -0.006  -0.000   0.000   0.003   0.000  -0.002  -0.037   0.000  -0.001  -0.001  -0.012   0.000
 -0.004   0.003  -0.001  -0.003  -0.005  -0.001   0.001   0.000   0.005  -0.002  -0.043   0.001  -0.002   0.012  -0.013   0.000
 -0.006   0.004  -0.006  -0.005   0.001  -0.000   0.000  -0.002  -0.002   0.006   0.029  -0.002  -0.002  -0.003   0.016   0.000
  0.000   0.015   0.024   0.025  -0.014   0.003  -0.022  -0.037  -0.043   0.029   1.348   0.025   0.041  -0.109   0.260  -0.006
 -0.001   0.005   0.009   0.011  -0.008  -0.001  -0.000   0.000   0.001  -0.002   0.025   0.004  -0.001   0.002  -0.004   0.000
  0.117  -0.054   0.002  -0.011  -0.032   0.012  -0.006  -0.001  -0.002  -0.002   0.041  -0.001   0.041  -0.009   0.005  -0.006
 -0.013   0.022  -0.026   0.075   0.003  -0.002   0.003  -0.001   0.012  -0.003  -0.109   0.002  -0.009   0.034  -0.025   0.001
 -0.006  -0.006  -0.060  -0.044   0.080   0.002  -0.003  -0.012  -0.013   0.016   0.260  -0.004   0.005  -0.025   0.085  -0.001
 -0.046   0.020   0.004   0.000   0.008  -0.001   0.001   0.000   0.000   0.000  -0.006   0.000  -0.006   0.001  -0.001   0.002
  0.000  -0.007   0.022  -0.045  -0.001   0.000  -0.000  -0.000  -0.001   0.000   0.016  -0.000   0.001  -0.005   0.004  -0.000
 -0.006   0.000   0.026   0.018  -0.044  -0.000   0.001   0.001   0.002  -0.002  -0.037   0.000  -0.001   0.004  -0.013   0.000


------------------------ aborting loop because EDIFF is reached ----------------------------------------


    FORLOC:  cpu time      0.0661: real time      0.0662
    FORNL :  cpu time      0.5055: real time      0.5063
    STRESS:  cpu time     15.2309: real time     15.2395
    FORCOR:  cpu time      5.6772: real time      5.6803
    OFIELD:  cpu time      0.0009: real time      0.0010

  FORCE on cell =-STRESS in cart. coord.  units (eV):
  Direction    XX          YY          ZZ          XY          YZ          ZX
  --------------------------------------------------------------------------------------
  Alpha Z     3.29098     3.29098     3.29098
  Ewald    2622.40517  2621.59468  -533.56173  -470.10860 -1282.88091 -1281.38406
  Hartree  4972.08219  4971.44410  2381.71598  -382.39475 -1043.93253 -1042.62196
  E(xc)    -457.85142  -457.85135  -458.19267    -0.05334    -0.14527    -0.14470
  Local   -8163.13062 -8161.68704 -2437.94226   849.20501  2317.83550  2315.03234
  n-local  -181.36799  -181.37797  -181.22217     0.02387     0.06572     0.06490
  augment   660.90536   660.91417   671.57119     1.66317     4.52896     4.52476
  Kinetic   542.96455   542.96575   553.89378     1.70410     4.64070     4.63796
  Fock        0.00000     0.00000     0.00000     0.00000     0.00000     0.00000
  -------------------------------------------------------------------------------------
  Total      -0.70178    -0.70667    -0.44690     0.03945     0.11218     0.10923
  in kB      -0.14055    -0.14153    -0.08950     0.00790     0.02247     0.02188
  external pressure =       -0.12 kB  Pullay stress =        0.00 kB


 VOLUME and BASIS-vectors are now :
 -----------------------------------------------------------------------------
  energy-cutoff  :      520.00
  volume of cell :     8000.00
      direct lattice vectors                 reciprocal lattice vectors
    20.000000000  0.000000000  0.000000000     0.050000000  0.000000000  0.000000000
     0.000000000 20.000000000  0.000000000     0.000000000  0.050000000  0.000000000
     0.000000000  0.000000000 20.000000000     0.000000000  0.000000000  0.050000000

  length of vectors
    20.000000000 20.000000000 20.000000000     0.050000000  0.050000000  0.050000000


 FORCES acting on ions:
    Electron-Ion                     Ewald-Force                    Non-Local-Force
 -----------------------------------------------------------------------------------------------
   0.726E+03 0.114E+03 -.307E+03   -.713E+03 -.112E+03 0.301E+03   -.124E+02 -.195E+01 0.519E+01
   0.430E+03 -.474E+03 0.116E+02   -.426E+03 0.470E+03 -.115E+02   -.324E+01 0.360E+01 -.564E-01
   -.583E+03 -.909E+02 0.249E+03   0.578E+03 0.902E+02 -.247E+03   0.442E+01 0.685E+00 -.189E+01
   0.152E+03 0.563E+03 -.263E+03   -.151E+03 -.559E+03 0.261E+03   -.114E+01 -.427E+01 0.199E+01
   -.188E+03 -.700E+03 0.329E+03   0.185E+03 0.687E+03 -.323E+03   0.320E+01 0.119E+02 -.562E+01
   -.536E+03 0.587E+03 -.195E+02   0.527E+03 -.577E+03 0.192E+02   0.915E+01 -.100E+02 0.336E+00
 -----------------------------------------------------------------------------------------------
   0.175E-01 0.130E-01 0.535E-01   0.000E+00 -.114E-12 -.533E-13   -.160E-01 -.152E-01 -.550E-01
 
 
 POSITION                                       TOTAL-FORCE (eV/Angst)
 -----------------------------------------------------------------------------------
      7.87408      9.42445     11.07116         0.015903      0.003845     -0.005288
      9.39275     10.82980     10.00842         0.058187     -0.061436     -0.003538
     11.58274     10.00357      9.50072        -0.079549     -0.009277      0.033065
      9.99455      8.59029     10.60441         0.023343      0.073303     -0.035354
     10.95807     12.17159      8.93038        -0.004216     -0.023066      0.011858
     12.13296      7.82454     10.10170        -0.013667      0.016631     -0.000742
 -----------------------------------------------------------------------------------
    total drift:                                0.001550     -0.002215     -0.001495


--------------------------------------------------------------------------------------------------------



  FREE ENERGIE OF THE ION-ELECTRON SYSTEM (eV)
  ---------------------------------------------------
  free  energy   TOTEN  =       -58.87072546 eV

  energy  without entropy=      -58.87072546  energy(sigma->0) =      -58.87072546
 


--------------------------------------------------------------------------------------------------------


    POTLOK:  cpu time     10.6154: real time     10.6223


--------------------------------------------------------------------------------------------------------


     LOOP+:  cpu time    716.8611: real time    717.6175
    4ORBIT:  cpu time      0.0000: real time      0.0000

 total amount of memory used by VASP MPI-rank0   344382. kBytes
=======================================================================

   base      :      30000. kBytes
   nonlr-proj:       6538. kBytes
   fftplans  :      28721. kBytes
   grid      :     268680. kBytes
   one-center:         93. kBytes
   wavefun   :      10350. kBytes
 
  
  
 General timing and accounting informations for this job:
 ========================================================
  
                  Total CPU time used (sec):      730.044
                            User time (sec):      726.371
                          System time (sec):        3.673
                         Elapsed time (sec):      731.875
  
                   Maximum memory used (kb):     1565840.
                   Average memory used (kb):          N/A
  
                          Minor page faults:       117672
                          Major page faults:            0
                 Voluntary context switches:         8958
