 **********************************************************************
                          MRCC program system
 **********************************************************************
 
                              Written by
     Mihaly Kallay, Peter R. Nagy, David Mester, Laszlo Gyevi-Nagy,
        Jozsef Csoka, P. Bernat Szabo, Zoltan Rolik, Gyula Samu,
     Jozsef Csontos, Bence Hegely, Adam Ganyecz, Istvan Ladjanszki,
       Lorant Szegedy, Bence Ladoczki, Klara Petrov, Mate Farkas,
                    Pal D. Mezei, and Reka A. Horvath
 
        Department of Physical Chemistry and Materials Science
            Budapest University of Technology and Economics
                  Budapest P.O.Box 91, H-1521 Hungary
 
                              www.mrcc.hu
 
                      Release date: March 18, 2022

 ************************ 2023-10-22 10:37:10 *************************
 Executing minp...

 Reading input from MINP...
 
 Input file:
 
calc=FNO-CCSD(T)
verbosity=3
mem=200GB
unit=angs
scfiguess=mo
symm=off
scfalg=locfit1
ccmaxit=400
ccsdalg=dfdirect
ccsdthreads=4
ccsdmkl=thr
ptthreads=4
lnoepsv=1e-5
naf_cor=1e-2
ECP=MCDHF-ECP-60
basis=bse_ACVTZ
basis_sm=def2-SVP
dfbasis_scf=def2-QZVPP-RI-JK
dfbasis_cor=bse_ACVTZ_mp2fit
core=0
unit=angs
geom=xyz
    6
Au6_4
Au    -0.80316731    -3.07364402     0.86469980
Au     0.62331989     0.52111256    -1.06644071
Au    -0.62426563    -0.52097751     1.06855283
Au     0.44118648    -2.04313269    -1.26425621
Au     0.80355698     3.07353963    -0.86608743
Au    -0.44063041     2.04310203     1.26353173

ghost=serialno


 
 
 Checking keyword combinations...
 
 Keywords:
 
 active=none
 agrid=ld0006-ld0590
 agrid_pssp=ld0006-ld0194
 agrid_pssp_sm=ld0006-ld0074
 basis=bse_acvtz
 basis_sm=def2-svp
 basopt=off
 bfbasis=none
 bfgsmem=10
 bfgstol=1.0d-3
 bpcompo=0.985
 bpcompv=0.98
 bpdfo=0.985
 bpocc=0.985
 bppdo=0.985
 bppdv=0.98
 bpedo=0.985
 bpedv=0.98
 calc=ccsd(t)
 ccmaxit=400
 ccprog=ccsd
 ccsdalg=dfdirect
 ccsdmkl=thr
 ccsdrest=trf
 ccsdthreads=4
 cctol=6
 charge=0
 cialg=auto
 ciguess=off
 cmpgrp=auto
 comprest=off
 core=corr
 corembed=off
 csapprox=off
 cvs=off
 dboc=off
 delocsomofact=
 dendec=cholesky
 dens=0
 dfalg=lineq
 dfbasis_cab=none
 dfbasis_cor=bse_acvtz_mp2fit
 dfbasis_scf=def2-qzvpp-ri-jk
 dfbasis_scf_sm=def2-qzvpp-ri-jk
 dfintran=drpa
 dft=off
 dhexc=adc(2)
 diag=david
 docc=
 domrad=10.d0
 drpaalg=fit
 dual=off
 dual_df=off
 ecp=mcdhf-ecp-60
 edisp=off
 edisp_embed=off
 embed=off
 etemp=300
 epert=none
 eps=
 espcharge=off
 excrad=1.0
 excrad_fin=0.100000000D-02
 fitting=coulomb
 fmm=off
 fmmord=8
 freq=off
 gamma=1.d0
 gauss=spher
 geom=xyz
 gopt=off
 ghost=serialno
 gtol=7
 grdens=off
 gridbatch_cos=2000
 grtol=10
 guido_ct=off
 hamilton=dc
 iface=none
 intalg=auto
 itol=10
 laptol=1.d-2
 lccoporder=trffirst
 lcorthr=normal
 lccrest=off
 lmp2dens=on
 lnoepso=0.d0
 lnoepsv=1e-5
 boysalg=jacobi
 localcc=off
 localcorrsymm=off
 locintrf=disk
 mact=
 maxact=off
 maxdim=100
 maxex=0
 maxmicroit=100
 mcscfiguess=hf
 mem=200gb
 mmprog=
 molden=on
 mpitasks=1
 mulmet=0
 mult=
 nacto=0
 nactv=0
 naf_amp=1.d-2
 naf_cor=1e-2
 naf_scf=off
 nafalg=albe
 naftyp=
 nchol=auto
 ndeps=1e-3
 nstate=1
 nsing=0
 nto=off
 ntrip=0
 occ=
 occri=off
 oniom=off
 oniom_eechg=off
 oniom_pcm=off
 oniom_qcorr=off
 optalg=
 optmaxit=50
 optetol=1e-6
 optex=0
 optgtol=1e-4
 optstol=1e-3
 orblocc=off
 orbloce=off
 orbloco=off
 orblocv=off
 orblocguess=cholesky
 osveps=1e-3
 ovirt=ppl
 ovltol=1e-7
 ovosnorb=80.0
 pcm=off
 popul=off
 pressure=100000
 pssp=off
 ptfreq=0.0
 ptthreads=4
 qro=off
 qscf=off
 qmmm=off
 redcost_exc=off
 redcost_tddft=off
 refdet=none
 rest=0
 rgrid=log3
 rism=off
 rohfcore=semicanonical
 rohftype=semicanonical
 scfalg=locfit1
 scf_conv=difficult
 scfdamp=0.0d0
 scfdamp_mode=off
 scfdamp_end=50
 scfdamp_dampstep=0.d0
 scfdamp_dtol=0.0d0
 scfdamp_maxfact=0.0d0
 scfdamp_minfact=0.0d0
 scfdiis=on
 scfdiis_dtol=0.0d0
 scfdiis_end=50
 scfdiis_start=2
 scfdiis_step=1
 scfdiis_watch=off
 scfdiis_wrange=10
 scfdiis_wlimit=5
 scfdiis_delmax=2
 scfdtol=7
 scfext=10
 scfguessdens=
 scfiguess=mo
 scfloc=pm
 scflshift=0.20
 scflshift_end=8
 scflshift_dtol=0.0
 scflshift_gaptol=0.20
 scfmaxit=50
 scftype=
 scftol=6
 scspe=1.d0
 scsph=1.d0
 scsps=1.2d0
 scsps_t=1.2d0
 scspt=0.33333333333333
 scspt_t=0.33333333333333
 scspv=1.d0
 spairtol=1e-4
 sqmprog=
 subminp=top
 symm=0
 talg=occ
 temp=298.15
 test=off
 theodore=off
 tlmo=0.999
 tpao=0.94
 tprint=off
 uncontract=off
 unit=angs
 usedisk=2
 verbosity=3
 wpairtol=0.100000000E-05

 ************************ 2023-10-22 10:37:11 *************************
 Executing integ...

 Allocation of 200.0 Gbytes of memory...
 
 
 Number of atoms:                  6
 Charge:                           0
 Number of electrons:            114
 Number of core electrons:         0
 Spin multiplicity:                1
 
                 Cartesian coordinates [bohr]      Atomic mass [AMU]  Z
   1  Au   -1.51776625   -5.80834540    1.63404580   196.966543      79
   2  Au    1.17790388    0.98476002   -2.01528087   196.966543      79
   3  Au   -1.17969107   -0.98450481    2.01927220   196.966543      79
   4  Au    0.83372162   -3.86096122   -2.38909799   196.966543      79
   5  Au    1.51850262    5.80814814   -1.63666804   196.966543      79
   6  Au   -0.83267080    3.86090328    2.38772892   196.966543      79
 
 This molecule is an asymmetric top.
 This molecule is planar.
 
 Point group: C1  
 Computational point group: C1  
 
 Cartesian coordinates in standard orientation [bohr]
   1  Au    6.09228135   -1.26281594   -0.00055855
   2  Au   -1.32528070    2.15921230   -0.00042783
   3  Au    1.32565004   -2.16356937    0.00069107
   4  Au    3.46481187    3.05040670    0.00042604
   5  Au   -6.09242669    1.26548581    0.00000358
   6  Au   -3.46503588   -3.04871949   -0.00013431
 
 Nuclear repulsion energy [au]:        870.088190829290
 
 
 Basis set information:
 
 Maximum angular momentum: i
 Maximum number of contracted Gaussians:   13
 Maximum number of primitive Gaussians:    13
 Spherical harmonic GTOs are used.
 
 
 Conventional basis set:
 
   1  Au bse_acvtz [ 13s 12p 11d 4f 3g | 8s 8p 7d 4f 3g ]
   2  Au bse_acvtz [ 13s 12p 11d 4f 3g | 8s 8p 7d 4f 3g ]
   3  Au bse_acvtz [ 13s 12p 11d 4f 3g | 8s 8p 7d 4f 3g ]
   4  Au bse_acvtz [ 13s 12p 11d 4f 3g | 8s 8p 7d 4f 3g ]
   5  Au bse_acvtz [ 13s 12p 11d 4f 3g | 8s 8p 7d 4f 3g ]
   6  Au bse_acvtz [ 13s 12p 11d 4f 3g | 8s 8p 7d 4f 3g ]
 
 Basis functions:
            1             2             3             4             5             6             7             8             9            10
    0    1Au1s         1Au2s         1Au3s         1Au4s         1Au5s         1Au6s         1Au7s         1Au8s         1Au1pz        1Au1py    
    1    1Au1px        1Au2pz        1Au2py        1Au2px        1Au3pz        1Au3py        1Au3px        1Au4pz        1Au4py        1Au4px    
    2    1Au5pz        1Au5py        1Au5px        1Au6pz        1Au6py        1Au6px        1Au7pz        1Au7py        1Au7px        1Au8pz    
    3    1Au8py        1Au8px        1Au1d-2       1Au1d-1       1Au1d0        1Au1d+1       1Au1d+2       1Au2d-2       1Au2d-1       1Au2d0    
    4    1Au2d+1       1Au2d+2       1Au3d-2       1Au3d-1       1Au3d0        1Au3d+1       1Au3d+2       1Au4d-2       1Au4d-1       1Au4d0    
    5    1Au4d+1       1Au4d+2       1Au5d-2       1Au5d-1       1Au5d0        1Au5d+1       1Au5d+2       1Au6d-2       1Au6d-1       1Au6d0    
    6    1Au6d+1       1Au6d+2       1Au7d-2       1Au7d-1       1Au7d0        1Au7d+1       1Au7d+2       1Au1f-3       1Au1f-2       1Au1f-1   
    7    1Au1f0        1Au1f+1       1Au1f+2       1Au1f+3       1Au2f-3       1Au2f-2       1Au2f-1       1Au2f0        1Au2f+1       1Au2f+2   
    8    1Au2f+3       1Au3f-3       1Au3f-2       1Au3f-1       1Au3f0        1Au3f+1       1Au3f+2       1Au3f+3       1Au4f-3       1Au4f-2   
    9    1Au4f-1       1Au4f0        1Au4f+1       1Au4f+2       1Au4f+3       1Au1g-4       1Au1g-3       1Au1g-2       1Au1g-1       1Au1g0    
   10    1Au1g+1       1Au1g+2       1Au1g+3       1Au1g+4       1Au2g-4       1Au2g-3       1Au2g-2       1Au2g-1       1Au2g0        1Au2g+1   
   11    1Au2g+2       1Au2g+3       1Au2g+4       1Au3g-4       1Au3g-3       1Au3g-2       1Au3g-1       1Au3g0        1Au3g+1       1Au3g+2   
   12    1Au3g+3       1Au3g+4       2Au1s         2Au2s         2Au3s         2Au4s         2Au5s         2Au6s         2Au7s         2Au8s     
   13    2Au1pz        2Au1py        2Au1px        2Au2pz        2Au2py        2Au2px        2Au3pz        2Au3py        2Au3px        2Au4pz    
   14    2Au4py        2Au4px        2Au5pz        2Au5py        2Au5px        2Au6pz        2Au6py        2Au6px        2Au7pz        2Au7py    
   15    2Au7px        2Au8pz        2Au8py        2Au8px        2Au1d-2       2Au1d-1       2Au1d0        2Au1d+1       2Au1d+2       2Au2d-2   
   16    2Au2d-1       2Au2d0        2Au2d+1       2Au2d+2       2Au3d-2       2Au3d-1       2Au3d0        2Au3d+1       2Au3d+2       2Au4d-2   
   17    2Au4d-1       2Au4d0        2Au4d+1       2Au4d+2       2Au5d-2       2Au5d-1       2Au5d0        2Au5d+1       2Au5d+2       2Au6d-2   
   18    2Au6d-1       2Au6d0        2Au6d+1       2Au6d+2       2Au7d-2       2Au7d-1       2Au7d0        2Au7d+1       2Au7d+2       2Au1f-3   
   19    2Au1f-2       2Au1f-1       2Au1f0        2Au1f+1       2Au1f+2       2Au1f+3       2Au2f-3       2Au2f-2       2Au2f-1       2Au2f0    
   20    2Au2f+1       2Au2f+2       2Au2f+3       2Au3f-3       2Au3f-2       2Au3f-1       2Au3f0        2Au3f+1       2Au3f+2       2Au3f+3   
   21    2Au4f-3       2Au4f-2       2Au4f-1       2Au4f0        2Au4f+1       2Au4f+2       2Au4f+3       2Au1g-4       2Au1g-3       2Au1g-2   
   22    2Au1g-1       2Au1g0        2Au1g+1       2Au1g+2       2Au1g+3       2Au1g+4       2Au2g-4       2Au2g-3       2Au2g-2       2Au2g-1   
   23    2Au2g0        2Au2g+1       2Au2g+2       2Au2g+3       2Au2g+4       2Au3g-4       2Au3g-3       2Au3g-2       2Au3g-1       2Au3g0    
   24    2Au3g+1       2Au3g+2       2Au3g+3       2Au3g+4       3Au1s         3Au2s         3Au3s         3Au4s         3Au5s         3Au6s     
   25    3Au7s         3Au8s         3Au1pz        3Au1py        3Au1px        3Au2pz        3Au2py        3Au2px        3Au3pz        3Au3py    
   26    3Au3px        3Au4pz        3Au4py        3Au4px        3Au5pz        3Au5py        3Au5px        3Au6pz        3Au6py        3Au6px    
   27    3Au7pz        3Au7py        3Au7px        3Au8pz        3Au8py        3Au8px        3Au1d-2       3Au1d-1       3Au1d0        3Au1d+1   
   28    3Au1d+2       3Au2d-2       3Au2d-1       3Au2d0        3Au2d+1       3Au2d+2       3Au3d-2       3Au3d-1       3Au3d0        3Au3d+1   
   29    3Au3d+2       3Au4d-2       3Au4d-1       3Au4d0        3Au4d+1       3Au4d+2       3Au5d-2       3Au5d-1       3Au5d0        3Au5d+1   
   30    3Au5d+2       3Au6d-2       3Au6d-1       3Au6d0        3Au6d+1       3Au6d+2       3Au7d-2       3Au7d-1       3Au7d0        3Au7d+1   
   31    3Au7d+2       3Au1f-3       3Au1f-2       3Au1f-1       3Au1f0        3Au1f+1       3Au1f+2       3Au1f+3       3Au2f-3       3Au2f-2   
   32    3Au2f-1       3Au2f0        3Au2f+1       3Au2f+2       3Au2f+3       3Au3f-3       3Au3f-2       3Au3f-1       3Au3f0        3Au3f+1   
   33    3Au3f+2       3Au3f+3       3Au4f-3       3Au4f-2       3Au4f-1       3Au4f0        3Au4f+1       3Au4f+2       3Au4f+3       3Au1g-4   
   34    3Au1g-3       3Au1g-2       3Au1g-1       3Au1g0        3Au1g+1       3Au1g+2       3Au1g+3       3Au1g+4       3Au2g-4       3Au2g-3   
   35    3Au2g-2       3Au2g-1       3Au2g0        3Au2g+1       3Au2g+2       3Au2g+3       3Au2g+4       3Au3g-4       3Au3g-3       3Au3g-2   
   36    3Au3g-1       3Au3g0        3Au3g+1       3Au3g+2       3Au3g+3       3Au3g+4       4Au1s         4Au2s         4Au3s         4Au4s     
   37    4Au5s         4Au6s         4Au7s         4Au8s         4Au1pz        4Au1py        4Au1px        4Au2pz        4Au2py        4Au2px    
   38    4Au3pz        4Au3py        4Au3px        4Au4pz        4Au4py        4Au4px        4Au5pz        4Au5py        4Au5px        4Au6pz    
   39    4Au6py        4Au6px        4Au7pz        4Au7py        4Au7px        4Au8pz        4Au8py        4Au8px        4Au1d-2       4Au1d-1   
   40    4Au1d0        4Au1d+1       4Au1d+2       4Au2d-2       4Au2d-1       4Au2d0        4Au2d+1       4Au2d+2       4Au3d-2       4Au3d-1   
   41    4Au3d0        4Au3d+1       4Au3d+2       4Au4d-2       4Au4d-1       4Au4d0        4Au4d+1       4Au4d+2       4Au5d-2       4Au5d-1   
   42    4Au5d0        4Au5d+1       4Au5d+2       4Au6d-2       4Au6d-1       4Au6d0        4Au6d+1       4Au6d+2       4Au7d-2       4Au7d-1   
   43    4Au7d0        4Au7d+1       4Au7d+2       4Au1f-3       4Au1f-2       4Au1f-1       4Au1f0        4Au1f+1       4Au1f+2       4Au1f+3   
   44    4Au2f-3       4Au2f-2       4Au2f-1       4Au2f0        4Au2f+1       4Au2f+2       4Au2f+3       4Au3f-3       4Au3f-2       4Au3f-1   
   45    4Au3f0        4Au3f+1       4Au3f+2       4Au3f+3       4Au4f-3       4Au4f-2       4Au4f-1       4Au4f0        4Au4f+1       4Au4f+2   
   46    4Au4f+3       4Au1g-4       4Au1g-3       4Au1g-2       4Au1g-1       4Au1g0        4Au1g+1       4Au1g+2       4Au1g+3       4Au1g+4   
   47    4Au2g-4       4Au2g-3       4Au2g-2       4Au2g-1       4Au2g0        4Au2g+1       4Au2g+2       4Au2g+3       4Au2g+4       4Au3g-4   
   48    4Au3g-3       4Au3g-2       4Au3g-1       4Au3g0        4Au3g+1       4Au3g+2       4Au3g+3       4Au3g+4       5Au1s         5Au2s     
   49    5Au3s         5Au4s         5Au5s         5Au6s         5Au7s         5Au8s         5Au1pz        5Au1py        5Au1px        5Au2pz    
   50    5Au2py        5Au2px        5Au3pz        5Au3py        5Au3px        5Au4pz        5Au4py        5Au4px        5Au5pz        5Au5py    
   51    5Au5px        5Au6pz        5Au6py        5Au6px        5Au7pz        5Au7py        5Au7px        5Au8pz        5Au8py        5Au8px    
   52    5Au1d-2       5Au1d-1       5Au1d0        5Au1d+1       5Au1d+2       5Au2d-2       5Au2d-1       5Au2d0        5Au2d+1       5Au2d+2   
   53    5Au3d-2       5Au3d-1       5Au3d0        5Au3d+1       5Au3d+2       5Au4d-2       5Au4d-1       5Au4d0        5Au4d+1       5Au4d+2   
   54    5Au5d-2       5Au5d-1       5Au5d0        5Au5d+1       5Au5d+2       5Au6d-2       5Au6d-1       5Au6d0        5Au6d+1       5Au6d+2   
   55    5Au7d-2       5Au7d-1       5Au7d0        5Au7d+1       5Au7d+2       5Au1f-3       5Au1f-2       5Au1f-1       5Au1f0        5Au1f+1   
   56    5Au1f+2       5Au1f+3       5Au2f-3       5Au2f-2       5Au2f-1       5Au2f0        5Au2f+1       5Au2f+2       5Au2f+3       5Au3f-3   
   57    5Au3f-2       5Au3f-1       5Au3f0        5Au3f+1       5Au3f+2       5Au3f+3       5Au4f-3       5Au4f-2       5Au4f-1       5Au4f0    
   58    5Au4f+1       5Au4f+2       5Au4f+3       5Au1g-4       5Au1g-3       5Au1g-2       5Au1g-1       5Au1g0        5Au1g+1       5Au1g+2   
   59    5Au1g+3       5Au1g+4       5Au2g-4       5Au2g-3       5Au2g-2       5Au2g-1       5Au2g0        5Au2g+1       5Au2g+2       5Au2g+3   
   60    5Au2g+4       5Au3g-4       5Au3g-3       5Au3g-2       5Au3g-1       5Au3g0        5Au3g+1       5Au3g+2       5Au3g+3       5Au3g+4   
   61    6Au1s         6Au2s         6Au3s         6Au4s         6Au5s         6Au6s         6Au7s         6Au8s         6Au1pz        6Au1py    
   62    6Au1px        6Au2pz        6Au2py        6Au2px        6Au3pz        6Au3py        6Au3px        6Au4pz        6Au4py        6Au4px    
   63    6Au5pz        6Au5py        6Au5px        6Au6pz        6Au6py        6Au6px        6Au7pz        6Au7py        6Au7px        6Au8pz    
   64    6Au8py        6Au8px        6Au1d-2       6Au1d-1       6Au1d0        6Au1d+1       6Au1d+2       6Au2d-2       6Au2d-1       6Au2d0    
   65    6Au2d+1       6Au2d+2       6Au3d-2       6Au3d-1       6Au3d0        6Au3d+1       6Au3d+2       6Au4d-2       6Au4d-1       6Au4d0    
   66    6Au4d+1       6Au4d+2       6Au5d-2       6Au5d-1       6Au5d0        6Au5d+1       6Au5d+2       6Au6d-2       6Au6d-1       6Au6d0    
   67    6Au6d+1       6Au6d+2       6Au7d-2       6Au7d-1       6Au7d0        6Au7d+1       6Au7d+2       6Au1f-3       6Au1f-2       6Au1f-1   
   68    6Au1f0        6Au1f+1       6Au1f+2       6Au1f+3       6Au2f-3       6Au2f-2       6Au2f-1       6Au2f0        6Au2f+1       6Au2f+2   
   69    6Au2f+3       6Au3f-3       6Au3f-2       6Au3f-1       6Au3f0        6Au3f+1       6Au3f+2       6Au3f+3       6Au4f-3       6Au4f-2   
   70    6Au4f-1       6Au4f0        6Au4f+1       6Au4f+2       6Au4f+3       6Au1g-4       6Au1g-3       6Au1g-2       6Au1g-1       6Au1g0    
   71    6Au1g+1       6Au1g+2       6Au1g+3       6Au1g+4       6Au2g-4       6Au2g-3       6Au2g-2       6Au2g-1       6Au2g0        6Au2g+1   
   72    6Au2g+2       6Au2g+3       6Au2g+4       6Au3g-4       6Au3g-3       6Au3g-2       6Au3g-1       6Au3g0        6Au3g+1       6Au3g+2   
   73    6Au3g+3       6Au3g+4   
 
 Maximum number of basis functions per shell:   35
 Total number of basis functions:    732
 
 
 Fitting basis set for the SCF calculation:
 
   1  Au def2-qzvpp-ri-jk [ 13s 12p 11d 9f 5g 3h 2i | 13s 11p 10d 8f 4g 3h 2i ]
   2  Au def2-qzvpp-ri-jk [ 13s 12p 11d 9f 5g 3h 2i | 13s 11p 10d 8f 4g 3h 2i ]
   3  Au def2-qzvpp-ri-jk [ 13s 12p 11d 9f 5g 3h 2i | 13s 11p 10d 8f 4g 3h 2i ]
   4  Au def2-qzvpp-ri-jk [ 13s 12p 11d 9f 5g 3h 2i | 13s 11p 10d 8f 4g 3h 2i ]
   5  Au def2-qzvpp-ri-jk [ 13s 12p 11d 9f 5g 3h 2i | 13s 11p 10d 8f 4g 3h 2i ]
   6  Au def2-qzvpp-ri-jk [ 13s 12p 11d 9f 5g 3h 2i | 13s 11p 10d 8f 4g 3h 2i ]
 
 Basis functions:
            1             2             3             4             5             6             7             8             9            10
    0    1Au1s         1Au2s         1Au3s         1Au4s         1Au5s         1Au6s         1Au7s         1Au8s         1Au9s         1Au10s    
    1    1Au11s        1Au12s        1Au13s        1Au1pz        1Au1py        1Au1px        1Au2pz        1Au2py        1Au2px        1Au3pz    
    2    1Au3py        1Au3px        1Au4pz        1Au4py        1Au4px        1Au5pz        1Au5py        1Au5px        1Au6pz        1Au6py    
    3    1Au6px        1Au7pz        1Au7py        1Au7px        1Au8pz        1Au8py        1Au8px        1Au9pz        1Au9py        1Au9px    
    4    1Au10pz       1Au10py       1Au10px       1Au11pz       1Au11py       1Au11px       1Au1d-2       1Au1d-1       1Au1d0        1Au1d+1   
    5    1Au1d+2       1Au2d-2       1Au2d-1       1Au2d0        1Au2d+1       1Au2d+2       1Au3d-2       1Au3d-1       1Au3d0        1Au3d+1   
    6    1Au3d+2       1Au4d-2       1Au4d-1       1Au4d0        1Au4d+1       1Au4d+2       1Au5d-2       1Au5d-1       1Au5d0        1Au5d+1   
    7    1Au5d+2       1Au6d-2       1Au6d-1       1Au6d0        1Au6d+1       1Au6d+2       1Au7d-2       1Au7d-1       1Au7d0        1Au7d+1   
    8    1Au7d+2       1Au8d-2       1Au8d-1       1Au8d0        1Au8d+1       1Au8d+2       1Au9d-2       1Au9d-1       1Au9d0        1Au9d+1   
    9    1Au9d+2       1Au10d-2      1Au10d-1      1Au10d0       1Au10d+1      1Au10d+2      1Au1f-3       1Au1f-2       1Au1f-1       1Au1f0    
   10    1Au1f+1       1Au1f+2       1Au1f+3       1Au2f-3       1Au2f-2       1Au2f-1       1Au2f0        1Au2f+1       1Au2f+2       1Au2f+3   
   11    1Au3f-3       1Au3f-2       1Au3f-1       1Au3f0        1Au3f+1       1Au3f+2       1Au3f+3       1Au4f-3       1Au4f-2       1Au4f-1   
   12    1Au4f0        1Au4f+1       1Au4f+2       1Au4f+3       1Au5f-3       1Au5f-2       1Au5f-1       1Au5f0        1Au5f+1       1Au5f+2   
   13    1Au5f+3       1Au6f-3       1Au6f-2       1Au6f-1       1Au6f0        1Au6f+1       1Au6f+2       1Au6f+3       1Au7f-3       1Au7f-2   
   14    1Au7f-1       1Au7f0        1Au7f+1       1Au7f+2       1Au7f+3       1Au8f-3       1Au8f-2       1Au8f-1       1Au8f0        1Au8f+1   
   15    1Au8f+2       1Au8f+3       1Au1g-4       1Au1g-3       1Au1g-2       1Au1g-1       1Au1g0        1Au1g+1       1Au1g+2       1Au1g+3   
   16    1Au1g+4       1Au2g-4       1Au2g-3       1Au2g-2       1Au2g-1       1Au2g0        1Au2g+1       1Au2g+2       1Au2g+3       1Au2g+4   
   17    1Au3g-4       1Au3g-3       1Au3g-2       1Au3g-1       1Au3g0        1Au3g+1       1Au3g+2       1Au3g+3       1Au3g+4       1Au4g-4   
   18    1Au4g-3       1Au4g-2       1Au4g-1       1Au4g0        1Au4g+1       1Au4g+2       1Au4g+3       1Au4g+4       1Au1h-5       1Au1h-4   
   19    1Au1h-3       1Au1h-2       1Au1h-1       1Au1h0        1Au1h+1       1Au1h+2       1Au1h+3       1Au1h+4       1Au1h+5       1Au2h-5   
   20    1Au2h-4       1Au2h-3       1Au2h-2       1Au2h-1       1Au2h0        1Au2h+1       1Au2h+2       1Au2h+3       1Au2h+4       1Au2h+5   
   21    1Au3h-5       1Au3h-4       1Au3h-3       1Au3h-2       1Au3h-1       1Au3h0        1Au3h+1       1Au3h+2       1Au3h+3       1Au3h+4   
   22    1Au3h+5       1Au1i-6       1Au1i-5       1Au1i-4       1Au1i-3       1Au1i-2       1Au1i-1       1Au1i0        1Au1i+1       1Au1i+2   
   23    1Au1i+3       1Au1i+4       1Au1i+5       1Au1i+6       1Au2i-6       1Au2i-5       1Au2i-4       1Au2i-3       1Au2i-2       1Au2i-1   
   24    1Au2i0        1Au2i+1       1Au2i+2       1Au2i+3       1Au2i+4       1Au2i+5       1Au2i+6       2Au1s         2Au2s         2Au3s     
   25    2Au4s         2Au5s         2Au6s         2Au7s         2Au8s         2Au9s         2Au10s        2Au11s        2Au12s        2Au13s    
   26    2Au1pz        2Au1py        2Au1px        2Au2pz        2Au2py        2Au2px        2Au3pz        2Au3py        2Au3px        2Au4pz    
   27    2Au4py        2Au4px        2Au5pz        2Au5py        2Au5px        2Au6pz        2Au6py        2Au6px        2Au7pz        2Au7py    
   28    2Au7px        2Au8pz        2Au8py        2Au8px        2Au9pz        2Au9py        2Au9px        2Au10pz       2Au10py       2Au10px   
   29    2Au11pz       2Au11py       2Au11px       2Au1d-2       2Au1d-1       2Au1d0        2Au1d+1       2Au1d+2       2Au2d-2       2Au2d-1   
   30    2Au2d0        2Au2d+1       2Au2d+2       2Au3d-2       2Au3d-1       2Au3d0        2Au3d+1       2Au3d+2       2Au4d-2       2Au4d-1   
   31    2Au4d0        2Au4d+1       2Au4d+2       2Au5d-2       2Au5d-1       2Au5d0        2Au5d+1       2Au5d+2       2Au6d-2       2Au6d-1   
   32    2Au6d0        2Au6d+1       2Au6d+2       2Au7d-2       2Au7d-1       2Au7d0        2Au7d+1       2Au7d+2       2Au8d-2       2Au8d-1   
   33    2Au8d0        2Au8d+1       2Au8d+2       2Au9d-2       2Au9d-1       2Au9d0        2Au9d+1       2Au9d+2       2Au10d-2      2Au10d-1  
   34    2Au10d0       2Au10d+1      2Au10d+2      2Au1f-3       2Au1f-2       2Au1f-1       2Au1f0        2Au1f+1       2Au1f+2       2Au1f+3   
   35    2Au2f-3       2Au2f-2       2Au2f-1       2Au2f0        2Au2f+1       2Au2f+2       2Au2f+3       2Au3f-3       2Au3f-2       2Au3f-1   
   36    2Au3f0        2Au3f+1       2Au3f+2       2Au3f+3       2Au4f-3       2Au4f-2       2Au4f-1       2Au4f0        2Au4f+1       2Au4f+2   
   37    2Au4f+3       2Au5f-3       2Au5f-2       2Au5f-1       2Au5f0        2Au5f+1       2Au5f+2       2Au5f+3       2Au6f-3       2Au6f-2   
   38    2Au6f-1       2Au6f0        2Au6f+1       2Au6f+2       2Au6f+3       2Au7f-3       2Au7f-2       2Au7f-1       2Au7f0        2Au7f+1   
   39    2Au7f+2       2Au7f+3       2Au8f-3       2Au8f-2       2Au8f-1       2Au8f0        2Au8f+1       2Au8f+2       2Au8f+3       2Au1g-4   
   40    2Au1g-3       2Au1g-2       2Au1g-1       2Au1g0        2Au1g+1       2Au1g+2       2Au1g+3       2Au1g+4       2Au2g-4       2Au2g-3   
   41    2Au2g-2       2Au2g-1       2Au2g0        2Au2g+1       2Au2g+2       2Au2g+3       2Au2g+4       2Au3g-4       2Au3g-3       2Au3g-2   
   42    2Au3g-1       2Au3g0        2Au3g+1       2Au3g+2       2Au3g+3       2Au3g+4       2Au4g-4       2Au4g-3       2Au4g-2       2Au4g-1   
   43    2Au4g0        2Au4g+1       2Au4g+2       2Au4g+3       2Au4g+4       2Au1h-5       2Au1h-4       2Au1h-3       2Au1h-2       2Au1h-1   
   44    2Au1h0        2Au1h+1       2Au1h+2       2Au1h+3       2Au1h+4       2Au1h+5       2Au2h-5       2Au2h-4       2Au2h-3       2Au2h-2   
   45    2Au2h-1       2Au2h0        2Au2h+1       2Au2h+2       2Au2h+3       2Au2h+4       2Au2h+5       2Au3h-5       2Au3h-4       2Au3h-3   
   46    2Au3h-2       2Au3h-1       2Au3h0        2Au3h+1       2Au3h+2       2Au3h+3       2Au3h+4       2Au3h+5       2Au1i-6       2Au1i-5   
   47    2Au1i-4       2Au1i-3       2Au1i-2       2Au1i-1       2Au1i0        2Au1i+1       2Au1i+2       2Au1i+3       2Au1i+4       2Au1i+5   
   48    2Au1i+6       2Au2i-6       2Au2i-5       2Au2i-4       2Au2i-3       2Au2i-2       2Au2i-1       2Au2i0        2Au2i+1       2Au2i+2   
   49    2Au2i+3       2Au2i+4       2Au2i+5       2Au2i+6       3Au1s         3Au2s         3Au3s         3Au4s         3Au5s         3Au6s     
   50    3Au7s         3Au8s         3Au9s         3Au10s        3Au11s        3Au12s        3Au13s        3Au1pz        3Au1py        3Au1px    
   51    3Au2pz        3Au2py        3Au2px        3Au3pz        3Au3py        3Au3px        3Au4pz        3Au4py        3Au4px        3Au5pz    
   52    3Au5py        3Au5px        3Au6pz        3Au6py        3Au6px        3Au7pz        3Au7py        3Au7px        3Au8pz        3Au8py    
   53    3Au8px        3Au9pz        3Au9py        3Au9px        3Au10pz       3Au10py       3Au10px       3Au11pz       3Au11py       3Au11px   
   54    3Au1d-2       3Au1d-1       3Au1d0        3Au1d+1       3Au1d+2       3Au2d-2       3Au2d-1       3Au2d0        3Au2d+1       3Au2d+2   
   55    3Au3d-2       3Au3d-1       3Au3d0        3Au3d+1       3Au3d+2       3Au4d-2       3Au4d-1       3Au4d0        3Au4d+1       3Au4d+2   
   56    3Au5d-2       3Au5d-1       3Au5d0        3Au5d+1       3Au5d+2       3Au6d-2       3Au6d-1       3Au6d0        3Au6d+1       3Au6d+2   
   57    3Au7d-2       3Au7d-1       3Au7d0        3Au7d+1       3Au7d+2       3Au8d-2       3Au8d-1       3Au8d0        3Au8d+1       3Au8d+2   
   58    3Au9d-2       3Au9d-1       3Au9d0        3Au9d+1       3Au9d+2       3Au10d-2      3Au10d-1      3Au10d0       3Au10d+1      3Au10d+2  
   59    3Au1f-3       3Au1f-2       3Au1f-1       3Au1f0        3Au1f+1       3Au1f+2       3Au1f+3       3Au2f-3       3Au2f-2       3Au2f-1   
   60    3Au2f0        3Au2f+1       3Au2f+2       3Au2f+3       3Au3f-3       3Au3f-2       3Au3f-1       3Au3f0        3Au3f+1       3Au3f+2   
   61    3Au3f+3       3Au4f-3       3Au4f-2       3Au4f-1       3Au4f0        3Au4f+1       3Au4f+2       3Au4f+3       3Au5f-3       3Au5f-2   
   62    3Au5f-1       3Au5f0        3Au5f+1       3Au5f+2       3Au5f+3       3Au6f-3       3Au6f-2       3Au6f-1       3Au6f0        3Au6f+1   
   63    3Au6f+2       3Au6f+3       3Au7f-3       3Au7f-2       3Au7f-1       3Au7f0        3Au7f+1       3Au7f+2       3Au7f+3       3Au8f-3   
   64    3Au8f-2       3Au8f-1       3Au8f0        3Au8f+1       3Au8f+2       3Au8f+3       3Au1g-4       3Au1g-3       3Au1g-2       3Au1g-1   
   65    3Au1g0        3Au1g+1       3Au1g+2       3Au1g+3       3Au1g+4       3Au2g-4       3Au2g-3       3Au2g-2       3Au2g-1       3Au2g0    
   66    3Au2g+1       3Au2g+2       3Au2g+3       3Au2g+4       3Au3g-4       3Au3g-3       3Au3g-2       3Au3g-1       3Au3g0        3Au3g+1   
   67    3Au3g+2       3Au3g+3       3Au3g+4       3Au4g-4       3Au4g-3       3Au4g-2       3Au4g-1       3Au4g0        3Au4g+1       3Au4g+2   
   68    3Au4g+3       3Au4g+4       3Au1h-5       3Au1h-4       3Au1h-3       3Au1h-2       3Au1h-1       3Au1h0        3Au1h+1       3Au1h+2   
   69    3Au1h+3       3Au1h+4       3Au1h+5       3Au2h-5       3Au2h-4       3Au2h-3       3Au2h-2       3Au2h-1       3Au2h0        3Au2h+1   
   70    3Au2h+2       3Au2h+3       3Au2h+4       3Au2h+5       3Au3h-5       3Au3h-4       3Au3h-3       3Au3h-2       3Au3h-1       3Au3h0    
   71    3Au3h+1       3Au3h+2       3Au3h+3       3Au3h+4       3Au3h+5       3Au1i-6       3Au1i-5       3Au1i-4       3Au1i-3       3Au1i-2   
   72    3Au1i-1       3Au1i0        3Au1i+1       3Au1i+2       3Au1i+3       3Au1i+4       3Au1i+5       3Au1i+6       3Au2i-6       3Au2i-5   
   73    3Au2i-4       3Au2i-3       3Au2i-2       3Au2i-1       3Au2i0        3Au2i+1       3Au2i+2       3Au2i+3       3Au2i+4       3Au2i+5   
   74    3Au2i+6       4Au1s         4Au2s         4Au3s         4Au4s         4Au5s         4Au6s         4Au7s         4Au8s         4Au9s     
   75    4Au10s        4Au11s        4Au12s        4Au13s        4Au1pz        4Au1py        4Au1px        4Au2pz        4Au2py        4Au2px    
   76    4Au3pz        4Au3py        4Au3px        4Au4pz        4Au4py        4Au4px        4Au5pz        4Au5py        4Au5px        4Au6pz    
   77    4Au6py        4Au6px        4Au7pz        4Au7py        4Au7px        4Au8pz        4Au8py        4Au8px        4Au9pz        4Au9py    
   78    4Au9px        4Au10pz       4Au10py       4Au10px       4Au11pz       4Au11py       4Au11px       4Au1d-2       4Au1d-1       4Au1d0    
   79    4Au1d+1       4Au1d+2       4Au2d-2       4Au2d-1       4Au2d0        4Au2d+1       4Au2d+2       4Au3d-2       4Au3d-1       4Au3d0    
   80    4Au3d+1       4Au3d+2       4Au4d-2       4Au4d-1       4Au4d0        4Au4d+1       4Au4d+2       4Au5d-2       4Au5d-1       4Au5d0    
   81    4Au5d+1       4Au5d+2       4Au6d-2       4Au6d-1       4Au6d0        4Au6d+1       4Au6d+2       4Au7d-2       4Au7d-1       4Au7d0    
   82    4Au7d+1       4Au7d+2       4Au8d-2       4Au8d-1       4Au8d0        4Au8d+1       4Au8d+2       4Au9d-2       4Au9d-1       4Au9d0    
   83    4Au9d+1       4Au9d+2       4Au10d-2      4Au10d-1      4Au10d0       4Au10d+1      4Au10d+2      4Au1f-3       4Au1f-2       4Au1f-1   
   84    4Au1f0        4Au1f+1       4Au1f+2       4Au1f+3       4Au2f-3       4Au2f-2       4Au2f-1       4Au2f0        4Au2f+1       4Au2f+2   
   85    4Au2f+3       4Au3f-3       4Au3f-2       4Au3f-1       4Au3f0        4Au3f+1       4Au3f+2       4Au3f+3       4Au4f-3       4Au4f-2   
   86    4Au4f-1       4Au4f0        4Au4f+1       4Au4f+2       4Au4f+3       4Au5f-3       4Au5f-2       4Au5f-1       4Au5f0        4Au5f+1   
   87    4Au5f+2       4Au5f+3       4Au6f-3       4Au6f-2       4Au6f-1       4Au6f0        4Au6f+1       4Au6f+2       4Au6f+3       4Au7f-3   
   88    4Au7f-2       4Au7f-1       4Au7f0        4Au7f+1       4Au7f+2       4Au7f+3       4Au8f-3       4Au8f-2       4Au8f-1       4Au8f0    
   89    4Au8f+1       4Au8f+2       4Au8f+3       4Au1g-4       4Au1g-3       4Au1g-2       4Au1g-1       4Au1g0        4Au1g+1       4Au1g+2   
   90    4Au1g+3       4Au1g+4       4Au2g-4       4Au2g-3       4Au2g-2       4Au2g-1       4Au2g0        4Au2g+1       4Au2g+2       4Au2g+3   
   91    4Au2g+4       4Au3g-4       4Au3g-3       4Au3g-2       4Au3g-1       4Au3g0        4Au3g+1       4Au3g+2       4Au3g+3       4Au3g+4   
   92    4Au4g-4       4Au4g-3       4Au4g-2       4Au4g-1       4Au4g0        4Au4g+1       4Au4g+2       4Au4g+3       4Au4g+4       4Au1h-5   
   93    4Au1h-4       4Au1h-3       4Au1h-2       4Au1h-1       4Au1h0        4Au1h+1       4Au1h+2       4Au1h+3       4Au1h+4       4Au1h+5   
   94    4Au2h-5       4Au2h-4       4Au2h-3       4Au2h-2       4Au2h-1       4Au2h0        4Au2h+1       4Au2h+2       4Au2h+3       4Au2h+4   
   95    4Au2h+5       4Au3h-5       4Au3h-4       4Au3h-3       4Au3h-2       4Au3h-1       4Au3h0        4Au3h+1       4Au3h+2       4Au3h+3   
   96    4Au3h+4       4Au3h+5       4Au1i-6       4Au1i-5       4Au1i-4       4Au1i-3       4Au1i-2       4Au1i-1       4Au1i0        4Au1i+1   
   97    4Au1i+2       4Au1i+3       4Au1i+4       4Au1i+5       4Au1i+6       4Au2i-6       4Au2i-5       4Au2i-4       4Au2i-3       4Au2i-2   
   98    4Au2i-1       4Au2i0        4Au2i+1       4Au2i+2       4Au2i+3       4Au2i+4       4Au2i+5       4Au2i+6       5Au1s         5Au2s     
   99    5Au3s         5Au4s         5Au5s         5Au6s         5Au7s         5Au8s         5Au9s         5Au10s        5Au11s        5Au12s    
  100    5Au13s        5Au1pz        5Au1py        5Au1px        5Au2pz        5Au2py        5Au2px        5Au3pz        5Au3py        5Au3px    
  101    5Au4pz        5Au4py        5Au4px        5Au5pz        5Au5py        5Au5px        5Au6pz        5Au6py        5Au6px        5Au7pz    
  102    5Au7py        5Au7px        5Au8pz        5Au8py        5Au8px        5Au9pz        5Au9py        5Au9px        5Au10pz       5Au10py   
  103    5Au10px       5Au11pz       5Au11py       5Au11px       5Au1d-2       5Au1d-1       5Au1d0        5Au1d+1       5Au1d+2       5Au2d-2   
  104    5Au2d-1       5Au2d0        5Au2d+1       5Au2d+2       5Au3d-2       5Au3d-1       5Au3d0        5Au3d+1       5Au3d+2       5Au4d-2   
  105    5Au4d-1       5Au4d0        5Au4d+1       5Au4d+2       5Au5d-2       5Au5d-1       5Au5d0        5Au5d+1       5Au5d+2       5Au6d-2   
  106    5Au6d-1       5Au6d0        5Au6d+1       5Au6d+2       5Au7d-2       5Au7d-1       5Au7d0        5Au7d+1       5Au7d+2       5Au8d-2   
  107    5Au8d-1       5Au8d0        5Au8d+1       5Au8d+2       5Au9d-2       5Au9d-1       5Au9d0        5Au9d+1       5Au9d+2       5Au10d-2  
  108    5Au10d-1      5Au10d0       5Au10d+1      5Au10d+2      5Au1f-3       5Au1f-2       5Au1f-1       5Au1f0        5Au1f+1       5Au1f+2   
  109    5Au1f+3       5Au2f-3       5Au2f-2       5Au2f-1       5Au2f0        5Au2f+1       5Au2f+2       5Au2f+3       5Au3f-3       5Au3f-2   
  110    5Au3f-1       5Au3f0        5Au3f+1       5Au3f+2       5Au3f+3       5Au4f-3       5Au4f-2       5Au4f-1       5Au4f0        5Au4f+1   
  111    5Au4f+2       5Au4f+3       5Au5f-3       5Au5f-2       5Au5f-1       5Au5f0        5Au5f+1       5Au5f+2       5Au5f+3       5Au6f-3   
  112    5Au6f-2       5Au6f-1       5Au6f0        5Au6f+1       5Au6f+2       5Au6f+3       5Au7f-3       5Au7f-2       5Au7f-1       5Au7f0    
  113    5Au7f+1       5Au7f+2       5Au7f+3       5Au8f-3       5Au8f-2       5Au8f-1       5Au8f0        5Au8f+1       5Au8f+2       5Au8f+3   
  114    5Au1g-4       5Au1g-3       5Au1g-2       5Au1g-1       5Au1g0        5Au1g+1       5Au1g+2       5Au1g+3       5Au1g+4       5Au2g-4   
  115    5Au2g-3       5Au2g-2       5Au2g-1       5Au2g0        5Au2g+1       5Au2g+2       5Au2g+3       5Au2g+4       5Au3g-4       5Au3g-3   
  116    5Au3g-2       5Au3g-1       5Au3g0        5Au3g+1       5Au3g+2       5Au3g+3       5Au3g+4       5Au4g-4       5Au4g-3       5Au4g-2   
  117    5Au4g-1       5Au4g0        5Au4g+1       5Au4g+2       5Au4g+3       5Au4g+4       5Au1h-5       5Au1h-4       5Au1h-3       5Au1h-2   
  118    5Au1h-1       5Au1h0        5Au1h+1       5Au1h+2       5Au1h+3       5Au1h+4       5Au1h+5       5Au2h-5       5Au2h-4       5Au2h-3   
  119    5Au2h-2       5Au2h-1       5Au2h0        5Au2h+1       5Au2h+2       5Au2h+3       5Au2h+4       5Au2h+5       5Au3h-5       5Au3h-4   
  120    5Au3h-3       5Au3h-2       5Au3h-1       5Au3h0        5Au3h+1       5Au3h+2       5Au3h+3       5Au3h+4       5Au3h+5       5Au1i-6   
  121    5Au1i-5       5Au1i-4       5Au1i-3       5Au1i-2       5Au1i-1       5Au1i0        5Au1i+1       5Au1i+2       5Au1i+3       5Au1i+4   
  122    5Au1i+5       5Au1i+6       5Au2i-6       5Au2i-5       5Au2i-4       5Au2i-3       5Au2i-2       5Au2i-1       5Au2i0        5Au2i+1   
  123    5Au2i+2       5Au2i+3       5Au2i+4       5Au2i+5       5Au2i+6       6Au1s         6Au2s         6Au3s         6Au4s         6Au5s     
  124    6Au6s         6Au7s         6Au8s         6Au9s         6Au10s        6Au11s        6Au12s        6Au13s        6Au1pz        6Au1py    
  125    6Au1px        6Au2pz        6Au2py        6Au2px        6Au3pz        6Au3py        6Au3px        6Au4pz        6Au4py        6Au4px    
  126    6Au5pz        6Au5py        6Au5px        6Au6pz        6Au6py        6Au6px        6Au7pz        6Au7py        6Au7px        6Au8pz    
  127    6Au8py        6Au8px        6Au9pz        6Au9py        6Au9px        6Au10pz       6Au10py       6Au10px       6Au11pz       6Au11py   
  128    6Au11px       6Au1d-2       6Au1d-1       6Au1d0        6Au1d+1       6Au1d+2       6Au2d-2       6Au2d-1       6Au2d0        6Au2d+1   
  129    6Au2d+2       6Au3d-2       6Au3d-1       6Au3d0        6Au3d+1       6Au3d+2       6Au4d-2       6Au4d-1       6Au4d0        6Au4d+1   
  130    6Au4d+2       6Au5d-2       6Au5d-1       6Au5d0        6Au5d+1       6Au5d+2       6Au6d-2       6Au6d-1       6Au6d0        6Au6d+1   
  131    6Au6d+2       6Au7d-2       6Au7d-1       6Au7d0        6Au7d+1       6Au7d+2       6Au8d-2       6Au8d-1       6Au8d0        6Au8d+1   
  132    6Au8d+2       6Au9d-2       6Au9d-1       6Au9d0        6Au9d+1       6Au9d+2       6Au10d-2      6Au10d-1      6Au10d0       6Au10d+1  
  133    6Au10d+2      6Au1f-3       6Au1f-2       6Au1f-1       6Au1f0        6Au1f+1       6Au1f+2       6Au1f+3       6Au2f-3       6Au2f-2   
  134    6Au2f-1       6Au2f0        6Au2f+1       6Au2f+2       6Au2f+3       6Au3f-3       6Au3f-2       6Au3f-1       6Au3f0        6Au3f+1   
  135    6Au3f+2       6Au3f+3       6Au4f-3       6Au4f-2       6Au4f-1       6Au4f0        6Au4f+1       6Au4f+2       6Au4f+3       6Au5f-3   
  136    6Au5f-2       6Au5f-1       6Au5f0        6Au5f+1       6Au5f+2       6Au5f+3       6Au6f-3       6Au6f-2       6Au6f-1       6Au6f0    
  137    6Au6f+1       6Au6f+2       6Au6f+3       6Au7f-3       6Au7f-2       6Au7f-1       6Au7f0        6Au7f+1       6Au7f+2       6Au7f+3   
  138    6Au8f-3       6Au8f-2       6Au8f-1       6Au8f0        6Au8f+1       6Au8f+2       6Au8f+3       6Au1g-4       6Au1g-3       6Au1g-2   
  139    6Au1g-1       6Au1g0        6Au1g+1       6Au1g+2       6Au1g+3       6Au1g+4       6Au2g-4       6Au2g-3       6Au2g-2       6Au2g-1   
  140    6Au2g0        6Au2g+1       6Au2g+2       6Au2g+3       6Au2g+4       6Au3g-4       6Au3g-3       6Au3g-2       6Au3g-1       6Au3g0    
  141    6Au3g+1       6Au3g+2       6Au3g+3       6Au3g+4       6Au4g-4       6Au4g-3       6Au4g-2       6Au4g-1       6Au4g0        6Au4g+1   
  142    6Au4g+2       6Au4g+3       6Au4g+4       6Au1h-5       6Au1h-4       6Au1h-3       6Au1h-2       6Au1h-1       6Au1h0        6Au1h+1   
  143    6Au1h+2       6Au1h+3       6Au1h+4       6Au1h+5       6Au2h-5       6Au2h-4       6Au2h-3       6Au2h-2       6Au2h-1       6Au2h0    
  144    6Au2h+1       6Au2h+2       6Au2h+3       6Au2h+4       6Au2h+5       6Au3h-5       6Au3h-4       6Au3h-3       6Au3h-2       6Au3h-1   
  145    6Au3h0        6Au3h+1       6Au3h+2       6Au3h+3       6Au3h+4       6Au3h+5       6Au1i-6       6Au1i-5       6Au1i-4       6Au1i-3   
  146    6Au1i-2       6Au1i-1       6Au1i0        6Au1i+1       6Au1i+2       6Au1i+3       6Au1i+4       6Au1i+5       6Au1i+6       6Au2i-6   
  147    6Au2i-5       6Au2i-4       6Au2i-3       6Au2i-2       6Au2i-1       6Au2i0        6Au2i+1       6Au2i+2       6Au2i+3       6Au2i+4   
  148    6Au2i+5       6Au2i+6   
 
 Maximum number of basis functions per shell:   56
 Total number of basis functions:   1482
 
 
 Fitting basis set for the correlation calculation:
 
   1  Au bse_acvtz_mp2fit [ 13s 13p 12d 10f 8g 5h 4i | 13s 13p 12d 10f 8g 5h 4i ]
   2  Au bse_acvtz_mp2fit [ 13s 13p 12d 10f 8g 5h 4i | 13s 13p 12d 10f 8g 5h 4i ]
   3  Au bse_acvtz_mp2fit [ 13s 13p 12d 10f 8g 5h 4i | 13s 13p 12d 10f 8g 5h 4i ]
   4  Au bse_acvtz_mp2fit [ 13s 13p 12d 10f 8g 5h 4i | 13s 13p 12d 10f 8g 5h 4i ]
   5  Au bse_acvtz_mp2fit [ 13s 13p 12d 10f 8g 5h 4i | 13s 13p 12d 10f 8g 5h 4i ]
   6  Au bse_acvtz_mp2fit [ 13s 13p 12d 10f 8g 5h 4i | 13s 13p 12d 10f 8g 5h 4i ]
 
 Basis functions:
            1             2             3             4             5             6             7             8             9            10
    0    1Au1s         1Au2s         1Au3s         1Au4s         1Au5s         1Au6s         1Au7s         1Au8s         1Au9s         1Au10s    
    1    1Au11s        1Au12s        1Au13s        1Au1pz        1Au1py        1Au1px        1Au2pz        1Au2py        1Au2px        1Au3pz    
    2    1Au3py        1Au3px        1Au4pz        1Au4py        1Au4px        1Au5pz        1Au5py        1Au5px        1Au6pz        1Au6py    
    3    1Au6px        1Au7pz        1Au7py        1Au7px        1Au8pz        1Au8py        1Au8px        1Au9pz        1Au9py        1Au9px    
    4    1Au10pz       1Au10py       1Au10px       1Au11pz       1Au11py       1Au11px       1Au12pz       1Au12py       1Au12px       1Au13pz   
    5    1Au13py       1Au13px       1Au1d-2       1Au1d-1       1Au1d0        1Au1d+1       1Au1d+2       1Au2d-2       1Au2d-1       1Au2d0    
    6    1Au2d+1       1Au2d+2       1Au3d-2       1Au3d-1       1Au3d0        1Au3d+1       1Au3d+2       1Au4d-2       1Au4d-1       1Au4d0    
    7    1Au4d+1       1Au4d+2       1Au5d-2       1Au5d-1       1Au5d0        1Au5d+1       1Au5d+2       1Au6d-2       1Au6d-1       1Au6d0    
    8    1Au6d+1       1Au6d+2       1Au7d-2       1Au7d-1       1Au7d0        1Au7d+1       1Au7d+2       1Au8d-2       1Au8d-1       1Au8d0    
    9    1Au8d+1       1Au8d+2       1Au9d-2       1Au9d-1       1Au9d0        1Au9d+1       1Au9d+2       1Au10d-2      1Au10d-1      1Au10d0   
   10    1Au10d+1      1Au10d+2      1Au11d-2      1Au11d-1      1Au11d0       1Au11d+1      1Au11d+2      1Au12d-2      1Au12d-1      1Au12d0   
   11    1Au12d+1      1Au12d+2      1Au1f-3       1Au1f-2       1Au1f-1       1Au1f0        1Au1f+1       1Au1f+2       1Au1f+3       1Au2f-3   
   12    1Au2f-2       1Au2f-1       1Au2f0        1Au2f+1       1Au2f+2       1Au2f+3       1Au3f-3       1Au3f-2       1Au3f-1       1Au3f0    
   13    1Au3f+1       1Au3f+2       1Au3f+3       1Au4f-3       1Au4f-2       1Au4f-1       1Au4f0        1Au4f+1       1Au4f+2       1Au4f+3   
   14    1Au5f-3       1Au5f-2       1Au5f-1       1Au5f0        1Au5f+1       1Au5f+2       1Au5f+3       1Au6f-3       1Au6f-2       1Au6f-1   
   15    1Au6f0        1Au6f+1       1Au6f+2       1Au6f+3       1Au7f-3       1Au7f-2       1Au7f-1       1Au7f0        1Au7f+1       1Au7f+2   
   16    1Au7f+3       1Au8f-3       1Au8f-2       1Au8f-1       1Au8f0        1Au8f+1       1Au8f+2       1Au8f+3       1Au9f-3       1Au9f-2   
   17    1Au9f-1       1Au9f0        1Au9f+1       1Au9f+2       1Au9f+3       1Au10f-3      1Au10f-2      1Au10f-1      1Au10f0       1Au10f+1  
   18    1Au10f+2      1Au10f+3      1Au1g-4       1Au1g-3       1Au1g-2       1Au1g-1       1Au1g0        1Au1g+1       1Au1g+2       1Au1g+3   
   19    1Au1g+4       1Au2g-4       1Au2g-3       1Au2g-2       1Au2g-1       1Au2g0        1Au2g+1       1Au2g+2       1Au2g+3       1Au2g+4   
   20    1Au3g-4       1Au3g-3       1Au3g-2       1Au3g-1       1Au3g0        1Au3g+1       1Au3g+2       1Au3g+3       1Au3g+4       1Au4g-4   
   21    1Au4g-3       1Au4g-2       1Au4g-1       1Au4g0        1Au4g+1       1Au4g+2       1Au4g+3       1Au4g+4       1Au5g-4       1Au5g-3   
   22    1Au5g-2       1Au5g-1       1Au5g0        1Au5g+1       1Au5g+2       1Au5g+3       1Au5g+4       1Au6g-4       1Au6g-3       1Au6g-2   
   23    1Au6g-1       1Au6g0        1Au6g+1       1Au6g+2       1Au6g+3       1Au6g+4       1Au7g-4       1Au7g-3       1Au7g-2       1Au7g-1   
   24    1Au7g0        1Au7g+1       1Au7g+2       1Au7g+3       1Au7g+4       1Au8g-4       1Au8g-3       1Au8g-2       1Au8g-1       1Au8g0    
   25    1Au8g+1       1Au8g+2       1Au8g+3       1Au8g+4       1Au1h-5       1Au1h-4       1Au1h-3       1Au1h-2       1Au1h-1       1Au1h0    
   26    1Au1h+1       1Au1h+2       1Au1h+3       1Au1h+4       1Au1h+5       1Au2h-5       1Au2h-4       1Au2h-3       1Au2h-2       1Au2h-1   
   27    1Au2h0        1Au2h+1       1Au2h+2       1Au2h+3       1Au2h+4       1Au2h+5       1Au3h-5       1Au3h-4       1Au3h-3       1Au3h-2   
   28    1Au3h-1       1Au3h0        1Au3h+1       1Au3h+2       1Au3h+3       1Au3h+4       1Au3h+5       1Au4h-5       1Au4h-4       1Au4h-3   
   29    1Au4h-2       1Au4h-1       1Au4h0        1Au4h+1       1Au4h+2       1Au4h+3       1Au4h+4       1Au4h+5       1Au5h-5       1Au5h-4   
   30    1Au5h-3       1Au5h-2       1Au5h-1       1Au5h0        1Au5h+1       1Au5h+2       1Au5h+3       1Au5h+4       1Au5h+5       1Au1i-6   
   31    1Au1i-5       1Au1i-4       1Au1i-3       1Au1i-2       1Au1i-1       1Au1i0        1Au1i+1       1Au1i+2       1Au1i+3       1Au1i+4   
   32    1Au1i+5       1Au1i+6       1Au2i-6       1Au2i-5       1Au2i-4       1Au2i-3       1Au2i-2       1Au2i-1       1Au2i0        1Au2i+1   
   33    1Au2i+2       1Au2i+3       1Au2i+4       1Au2i+5       1Au2i+6       1Au3i-6       1Au3i-5       1Au3i-4       1Au3i-3       1Au3i-2   
   34    1Au3i-1       1Au3i0        1Au3i+1       1Au3i+2       1Au3i+3       1Au3i+4       1Au3i+5       1Au3i+6       1Au4i-6       1Au4i-5   
   35    1Au4i-4       1Au4i-3       1Au4i-2       1Au4i-1       1Au4i0        1Au4i+1       1Au4i+2       1Au4i+3       1Au4i+4       1Au4i+5   
   36    1Au4i+6       2Au1s         2Au2s         2Au3s         2Au4s         2Au5s         2Au6s         2Au7s         2Au8s         2Au9s     
   37    2Au10s        2Au11s        2Au12s        2Au13s        2Au1pz        2Au1py        2Au1px        2Au2pz        2Au2py        2Au2px    
   38    2Au3pz        2Au3py        2Au3px        2Au4pz        2Au4py        2Au4px        2Au5pz        2Au5py        2Au5px        2Au6pz    
   39    2Au6py        2Au6px        2Au7pz        2Au7py        2Au7px        2Au8pz        2Au8py        2Au8px        2Au9pz        2Au9py    
   40    2Au9px        2Au10pz       2Au10py       2Au10px       2Au11pz       2Au11py       2Au11px       2Au12pz       2Au12py       2Au12px   
   41    2Au13pz       2Au13py       2Au13px       2Au1d-2       2Au1d-1       2Au1d0        2Au1d+1       2Au1d+2       2Au2d-2       2Au2d-1   
   42    2Au2d0        2Au2d+1       2Au2d+2       2Au3d-2       2Au3d-1       2Au3d0        2Au3d+1       2Au3d+2       2Au4d-2       2Au4d-1   
   43    2Au4d0        2Au4d+1       2Au4d+2       2Au5d-2       2Au5d-1       2Au5d0        2Au5d+1       2Au5d+2       2Au6d-2       2Au6d-1   
   44    2Au6d0        2Au6d+1       2Au6d+2       2Au7d-2       2Au7d-1       2Au7d0        2Au7d+1       2Au7d+2       2Au8d-2       2Au8d-1   
   45    2Au8d0        2Au8d+1       2Au8d+2       2Au9d-2       2Au9d-1       2Au9d0        2Au9d+1       2Au9d+2       2Au10d-2      2Au10d-1  
   46    2Au10d0       2Au10d+1      2Au10d+2      2Au11d-2      2Au11d-1      2Au11d0       2Au11d+1      2Au11d+2      2Au12d-2      2Au12d-1  
   47    2Au12d0       2Au12d+1      2Au12d+2      2Au1f-3       2Au1f-2       2Au1f-1       2Au1f0        2Au1f+1       2Au1f+2       2Au1f+3   
   48    2Au2f-3       2Au2f-2       2Au2f-1       2Au2f0        2Au2f+1       2Au2f+2       2Au2f+3       2Au3f-3       2Au3f-2       2Au3f-1   
   49    2Au3f0        2Au3f+1       2Au3f+2       2Au3f+3       2Au4f-3       2Au4f-2       2Au4f-1       2Au4f0        2Au4f+1       2Au4f+2   
   50    2Au4f+3       2Au5f-3       2Au5f-2       2Au5f-1       2Au5f0        2Au5f+1       2Au5f+2       2Au5f+3       2Au6f-3       2Au6f-2   
   51    2Au6f-1       2Au6f0        2Au6f+1       2Au6f+2       2Au6f+3       2Au7f-3       2Au7f-2       2Au7f-1       2Au7f0        2Au7f+1   
   52    2Au7f+2       2Au7f+3       2Au8f-3       2Au8f-2       2Au8f-1       2Au8f0        2Au8f+1       2Au8f+2       2Au8f+3       2Au9f-3   
   53    2Au9f-2       2Au9f-1       2Au9f0        2Au9f+1       2Au9f+2       2Au9f+3       2Au10f-3      2Au10f-2      2Au10f-1      2Au10f0   
   54    2Au10f+1      2Au10f+2      2Au10f+3      2Au1g-4       2Au1g-3       2Au1g-2       2Au1g-1       2Au1g0        2Au1g+1       2Au1g+2   
   55    2Au1g+3       2Au1g+4       2Au2g-4       2Au2g-3       2Au2g-2       2Au2g-1       2Au2g0        2Au2g+1       2Au2g+2       2Au2g+3   
   56    2Au2g+4       2Au3g-4       2Au3g-3       2Au3g-2       2Au3g-1       2Au3g0        2Au3g+1       2Au3g+2       2Au3g+3       2Au3g+4   
   57    2Au4g-4       2Au4g-3       2Au4g-2       2Au4g-1       2Au4g0        2Au4g+1       2Au4g+2       2Au4g+3       2Au4g+4       2Au5g-4   
   58    2Au5g-3       2Au5g-2       2Au5g-1       2Au5g0        2Au5g+1       2Au5g+2       2Au5g+3       2Au5g+4       2Au6g-4       2Au6g-3   
   59    2Au6g-2       2Au6g-1       2Au6g0        2Au6g+1       2Au6g+2       2Au6g+3       2Au6g+4       2Au7g-4       2Au7g-3       2Au7g-2   
   60    2Au7g-1       2Au7g0        2Au7g+1       2Au7g+2       2Au7g+3       2Au7g+4       2Au8g-4       2Au8g-3       2Au8g-2       2Au8g-1   
   61    2Au8g0        2Au8g+1       2Au8g+2       2Au8g+3       2Au8g+4       2Au1h-5       2Au1h-4       2Au1h-3       2Au1h-2       2Au1h-1   
   62    2Au1h0        2Au1h+1       2Au1h+2       2Au1h+3       2Au1h+4       2Au1h+5       2Au2h-5       2Au2h-4       2Au2h-3       2Au2h-2   
   63    2Au2h-1       2Au2h0        2Au2h+1       2Au2h+2       2Au2h+3       2Au2h+4       2Au2h+5       2Au3h-5       2Au3h-4       2Au3h-3   
   64    2Au3h-2       2Au3h-1       2Au3h0        2Au3h+1       2Au3h+2       2Au3h+3       2Au3h+4       2Au3h+5       2Au4h-5       2Au4h-4   
   65    2Au4h-3       2Au4h-2       2Au4h-1       2Au4h0        2Au4h+1       2Au4h+2       2Au4h+3       2Au4h+4       2Au4h+5       2Au5h-5   
   66    2Au5h-4       2Au5h-3       2Au5h-2       2Au5h-1       2Au5h0        2Au5h+1       2Au5h+2       2Au5h+3       2Au5h+4       2Au5h+5   
   67    2Au1i-6       2Au1i-5       2Au1i-4       2Au1i-3       2Au1i-2       2Au1i-1       2Au1i0        2Au1i+1       2Au1i+2       2Au1i+3   
   68    2Au1i+4       2Au1i+5       2Au1i+6       2Au2i-6       2Au2i-5       2Au2i-4       2Au2i-3       2Au2i-2       2Au2i-1       2Au2i0    
   69    2Au2i+1       2Au2i+2       2Au2i+3       2Au2i+4       2Au2i+5       2Au2i+6       2Au3i-6       2Au3i-5       2Au3i-4       2Au3i-3   
   70    2Au3i-2       2Au3i-1       2Au3i0        2Au3i+1       2Au3i+2       2Au3i+3       2Au3i+4       2Au3i+5       2Au3i+6       2Au4i-6   
   71    2Au4i-5       2Au4i-4       2Au4i-3       2Au4i-2       2Au4i-1       2Au4i0        2Au4i+1       2Au4i+2       2Au4i+3       2Au4i+4   
   72    2Au4i+5       2Au4i+6       3Au1s         3Au2s         3Au3s         3Au4s         3Au5s         3Au6s         3Au7s         3Au8s     
   73    3Au9s         3Au10s        3Au11s        3Au12s        3Au13s        3Au1pz        3Au1py        3Au1px        3Au2pz        3Au2py    
   74    3Au2px        3Au3pz        3Au3py        3Au3px        3Au4pz        3Au4py        3Au4px        3Au5pz        3Au5py        3Au5px    
   75    3Au6pz        3Au6py        3Au6px        3Au7pz        3Au7py        3Au7px        3Au8pz        3Au8py        3Au8px        3Au9pz    
   76    3Au9py        3Au9px        3Au10pz       3Au10py       3Au10px       3Au11pz       3Au11py       3Au11px       3Au12pz       3Au12py   
   77    3Au12px       3Au13pz       3Au13py       3Au13px       3Au1d-2       3Au1d-1       3Au1d0        3Au1d+1       3Au1d+2       3Au2d-2   
   78    3Au2d-1       3Au2d0        3Au2d+1       3Au2d+2       3Au3d-2       3Au3d-1       3Au3d0        3Au3d+1       3Au3d+2       3Au4d-2   
   79    3Au4d-1       3Au4d0        3Au4d+1       3Au4d+2       3Au5d-2       3Au5d-1       3Au5d0        3Au5d+1       3Au5d+2       3Au6d-2   
   80    3Au6d-1       3Au6d0        3Au6d+1       3Au6d+2       3Au7d-2       3Au7d-1       3Au7d0        3Au7d+1       3Au7d+2       3Au8d-2   
   81    3Au8d-1       3Au8d0        3Au8d+1       3Au8d+2       3Au9d-2       3Au9d-1       3Au9d0        3Au9d+1       3Au9d+2       3Au10d-2  
   82    3Au10d-1      3Au10d0       3Au10d+1      3Au10d+2      3Au11d-2      3Au11d-1      3Au11d0       3Au11d+1      3Au11d+2      3Au12d-2  
   83    3Au12d-1      3Au12d0       3Au12d+1      3Au12d+2      3Au1f-3       3Au1f-2       3Au1f-1       3Au1f0        3Au1f+1       3Au1f+2   
   84    3Au1f+3       3Au2f-3       3Au2f-2       3Au2f-1       3Au2f0        3Au2f+1       3Au2f+2       3Au2f+3       3Au3f-3       3Au3f-2   
   85    3Au3f-1       3Au3f0        3Au3f+1       3Au3f+2       3Au3f+3       3Au4f-3       3Au4f-2       3Au4f-1       3Au4f0        3Au4f+1   
   86    3Au4f+2       3Au4f+3       3Au5f-3       3Au5f-2       3Au5f-1       3Au5f0        3Au5f+1       3Au5f+2       3Au5f+3       3Au6f-3   
   87    3Au6f-2       3Au6f-1       3Au6f0        3Au6f+1       3Au6f+2       3Au6f+3       3Au7f-3       3Au7f-2       3Au7f-1       3Au7f0    
   88    3Au7f+1       3Au7f+2       3Au7f+3       3Au8f-3       3Au8f-2       3Au8f-1       3Au8f0        3Au8f+1       3Au8f+2       3Au8f+3   
   89    3Au9f-3       3Au9f-2       3Au9f-1       3Au9f0        3Au9f+1       3Au9f+2       3Au9f+3       3Au10f-3      3Au10f-2      3Au10f-1  
   90    3Au10f0       3Au10f+1      3Au10f+2      3Au10f+3      3Au1g-4       3Au1g-3       3Au1g-2       3Au1g-1       3Au1g0        3Au1g+1   
   91    3Au1g+2       3Au1g+3       3Au1g+4       3Au2g-4       3Au2g-3       3Au2g-2       3Au2g-1       3Au2g0        3Au2g+1       3Au2g+2   
   92    3Au2g+3       3Au2g+4       3Au3g-4       3Au3g-3       3Au3g-2       3Au3g-1       3Au3g0        3Au3g+1       3Au3g+2       3Au3g+3   
   93    3Au3g+4       3Au4g-4       3Au4g-3       3Au4g-2       3Au4g-1       3Au4g0        3Au4g+1       3Au4g+2       3Au4g+3       3Au4g+4   
   94    3Au5g-4       3Au5g-3       3Au5g-2       3Au5g-1       3Au5g0        3Au5g+1       3Au5g+2       3Au5g+3       3Au5g+4       3Au6g-4   
   95    3Au6g-3       3Au6g-2       3Au6g-1       3Au6g0        3Au6g+1       3Au6g+2       3Au6g+3       3Au6g+4       3Au7g-4       3Au7g-3   
   96    3Au7g-2       3Au7g-1       3Au7g0        3Au7g+1       3Au7g+2       3Au7g+3       3Au7g+4       3Au8g-4       3Au8g-3       3Au8g-2   
   97    3Au8g-1       3Au8g0        3Au8g+1       3Au8g+2       3Au8g+3       3Au8g+4       3Au1h-5       3Au1h-4       3Au1h-3       3Au1h-2   
   98    3Au1h-1       3Au1h0        3Au1h+1       3Au1h+2       3Au1h+3       3Au1h+4       3Au1h+5       3Au2h-5       3Au2h-4       3Au2h-3   
   99    3Au2h-2       3Au2h-1       3Au2h0        3Au2h+1       3Au2h+2       3Au2h+3       3Au2h+4       3Au2h+5       3Au3h-5       3Au3h-4   
  100    3Au3h-3       3Au3h-2       3Au3h-1       3Au3h0        3Au3h+1       3Au3h+2       3Au3h+3       3Au3h+4       3Au3h+5       3Au4h-5   
  101    3Au4h-4       3Au4h-3       3Au4h-2       3Au4h-1       3Au4h0        3Au4h+1       3Au4h+2       3Au4h+3       3Au4h+4       3Au4h+5   
  102    3Au5h-5       3Au5h-4       3Au5h-3       3Au5h-2       3Au5h-1       3Au5h0        3Au5h+1       3Au5h+2       3Au5h+3       3Au5h+4   
  103    3Au5h+5       3Au1i-6       3Au1i-5       3Au1i-4       3Au1i-3       3Au1i-2       3Au1i-1       3Au1i0        3Au1i+1       3Au1i+2   
  104    3Au1i+3       3Au1i+4       3Au1i+5       3Au1i+6       3Au2i-6       3Au2i-5       3Au2i-4       3Au2i-3       3Au2i-2       3Au2i-1   
  105    3Au2i0        3Au2i+1       3Au2i+2       3Au2i+3       3Au2i+4       3Au2i+5       3Au2i+6       3Au3i-6       3Au3i-5       3Au3i-4   
  106    3Au3i-3       3Au3i-2       3Au3i-1       3Au3i0        3Au3i+1       3Au3i+2       3Au3i+3       3Au3i+4       3Au3i+5       3Au3i+6   
  107    3Au4i-6       3Au4i-5       3Au4i-4       3Au4i-3       3Au4i-2       3Au4i-1       3Au4i0        3Au4i+1       3Au4i+2       3Au4i+3   
  108    3Au4i+4       3Au4i+5       3Au4i+6       4Au1s         4Au2s         4Au3s         4Au4s         4Au5s         4Au6s         4Au7s     
  109    4Au8s         4Au9s         4Au10s        4Au11s        4Au12s        4Au13s        4Au1pz        4Au1py        4Au1px        4Au2pz    
  110    4Au2py        4Au2px        4Au3pz        4Au3py        4Au3px        4Au4pz        4Au4py        4Au4px        4Au5pz        4Au5py    
  111    4Au5px        4Au6pz        4Au6py        4Au6px        4Au7pz        4Au7py        4Au7px        4Au8pz        4Au8py        4Au8px    
  112    4Au9pz        4Au9py        4Au9px        4Au10pz       4Au10py       4Au10px       4Au11pz       4Au11py       4Au11px       4Au12pz   
  113    4Au12py       4Au12px       4Au13pz       4Au13py       4Au13px       4Au1d-2       4Au1d-1       4Au1d0        4Au1d+1       4Au1d+2   
  114    4Au2d-2       4Au2d-1       4Au2d0        4Au2d+1       4Au2d+2       4Au3d-2       4Au3d-1       4Au3d0        4Au3d+1       4Au3d+2   
  115    4Au4d-2       4Au4d-1       4Au4d0        4Au4d+1       4Au4d+2       4Au5d-2       4Au5d-1       4Au5d0        4Au5d+1       4Au5d+2   
  116    4Au6d-2       4Au6d-1       4Au6d0        4Au6d+1       4Au6d+2       4Au7d-2       4Au7d-1       4Au7d0        4Au7d+1       4Au7d+2   
  117    4Au8d-2       4Au8d-1       4Au8d0        4Au8d+1       4Au8d+2       4Au9d-2       4Au9d-1       4Au9d0        4Au9d+1       4Au9d+2   
  118    4Au10d-2      4Au10d-1      4Au10d0       4Au10d+1      4Au10d+2      4Au11d-2      4Au11d-1      4Au11d0       4Au11d+1      4Au11d+2  
  119    4Au12d-2      4Au12d-1      4Au12d0       4Au12d+1      4Au12d+2      4Au1f-3       4Au1f-2       4Au1f-1       4Au1f0        4Au1f+1   
  120    4Au1f+2       4Au1f+3       4Au2f-3       4Au2f-2       4Au2f-1       4Au2f0        4Au2f+1       4Au2f+2       4Au2f+3       4Au3f-3   
  121    4Au3f-2       4Au3f-1       4Au3f0        4Au3f+1       4Au3f+2       4Au3f+3       4Au4f-3       4Au4f-2       4Au4f-1       4Au4f0    
  122    4Au4f+1       4Au4f+2       4Au4f+3       4Au5f-3       4Au5f-2       4Au5f-1       4Au5f0        4Au5f+1       4Au5f+2       4Au5f+3   
  123    4Au6f-3       4Au6f-2       4Au6f-1       4Au6f0        4Au6f+1       4Au6f+2       4Au6f+3       4Au7f-3       4Au7f-2       4Au7f-1   
  124    4Au7f0        4Au7f+1       4Au7f+2       4Au7f+3       4Au8f-3       4Au8f-2       4Au8f-1       4Au8f0        4Au8f+1       4Au8f+2   
  125    4Au8f+3       4Au9f-3       4Au9f-2       4Au9f-1       4Au9f0        4Au9f+1       4Au9f+2       4Au9f+3       4Au10f-3      4Au10f-2  
  126    4Au10f-1      4Au10f0       4Au10f+1      4Au10f+2      4Au10f+3      4Au1g-4       4Au1g-3       4Au1g-2       4Au1g-1       4Au1g0    
  127    4Au1g+1       4Au1g+2       4Au1g+3       4Au1g+4       4Au2g-4       4Au2g-3       4Au2g-2       4Au2g-1       4Au2g0        4Au2g+1   
  128    4Au2g+2       4Au2g+3       4Au2g+4       4Au3g-4       4Au3g-3       4Au3g-2       4Au3g-1       4Au3g0        4Au3g+1       4Au3g+2   
  129    4Au3g+3       4Au3g+4       4Au4g-4       4Au4g-3       4Au4g-2       4Au4g-1       4Au4g0        4Au4g+1       4Au4g+2       4Au4g+3   
  130    4Au4g+4       4Au5g-4       4Au5g-3       4Au5g-2       4Au5g-1       4Au5g0        4Au5g+1       4Au5g+2       4Au5g+3       4Au5g+4   
  131    4Au6g-4       4Au6g-3       4Au6g-2       4Au6g-1       4Au6g0        4Au6g+1       4Au6g+2       4Au6g+3       4Au6g+4       4Au7g-4   
  132    4Au7g-3       4Au7g-2       4Au7g-1       4Au7g0        4Au7g+1       4Au7g+2       4Au7g+3       4Au7g+4       4Au8g-4       4Au8g-3   
  133    4Au8g-2       4Au8g-1       4Au8g0        4Au8g+1       4Au8g+2       4Au8g+3       4Au8g+4       4Au1h-5       4Au1h-4       4Au1h-3   
  134    4Au1h-2       4Au1h-1       4Au1h0        4Au1h+1       4Au1h+2       4Au1h+3       4Au1h+4       4Au1h+5       4Au2h-5       4Au2h-4   
  135    4Au2h-3       4Au2h-2       4Au2h-1       4Au2h0        4Au2h+1       4Au2h+2       4Au2h+3       4Au2h+4       4Au2h+5       4Au3h-5   
  136    4Au3h-4       4Au3h-3       4Au3h-2       4Au3h-1       4Au3h0        4Au3h+1       4Au3h+2       4Au3h+3       4Au3h+4       4Au3h+5   
  137    4Au4h-5       4Au4h-4       4Au4h-3       4Au4h-2       4Au4h-1       4Au4h0        4Au4h+1       4Au4h+2       4Au4h+3       4Au4h+4   
  138    4Au4h+5       4Au5h-5       4Au5h-4       4Au5h-3       4Au5h-2       4Au5h-1       4Au5h0        4Au5h+1       4Au5h+2       4Au5h+3   
  139    4Au5h+4       4Au5h+5       4Au1i-6       4Au1i-5       4Au1i-4       4Au1i-3       4Au1i-2       4Au1i-1       4Au1i0        4Au1i+1   
  140    4Au1i+2       4Au1i+3       4Au1i+4       4Au1i+5       4Au1i+6       4Au2i-6       4Au2i-5       4Au2i-4       4Au2i-3       4Au2i-2   
  141    4Au2i-1       4Au2i0        4Au2i+1       4Au2i+2       4Au2i+3       4Au2i+4       4Au2i+5       4Au2i+6       4Au3i-6       4Au3i-5   
  142    4Au3i-4       4Au3i-3       4Au3i-2       4Au3i-1       4Au3i0        4Au3i+1       4Au3i+2       4Au3i+3       4Au3i+4       4Au3i+5   
  143    4Au3i+6       4Au4i-6       4Au4i-5       4Au4i-4       4Au4i-3       4Au4i-2       4Au4i-1       4Au4i0        4Au4i+1       4Au4i+2   
  144    4Au4i+3       4Au4i+4       4Au4i+5       4Au4i+6       5Au1s         5Au2s         5Au3s         5Au4s         5Au5s         5Au6s     
  145    5Au7s         5Au8s         5Au9s         5Au10s        5Au11s        5Au12s        5Au13s        5Au1pz        5Au1py        5Au1px    
  146    5Au2pz        5Au2py        5Au2px        5Au3pz        5Au3py        5Au3px        5Au4pz        5Au4py        5Au4px        5Au5pz    
  147    5Au5py        5Au5px        5Au6pz        5Au6py        5Au6px        5Au7pz        5Au7py        5Au7px        5Au8pz        5Au8py    
  148    5Au8px        5Au9pz        5Au9py        5Au9px        5Au10pz       5Au10py       5Au10px       5Au11pz       5Au11py       5Au11px   
  149    5Au12pz       5Au12py       5Au12px       5Au13pz       5Au13py       5Au13px       5Au1d-2       5Au1d-1       5Au1d0        5Au1d+1   
  150    5Au1d+2       5Au2d-2       5Au2d-1       5Au2d0        5Au2d+1       5Au2d+2       5Au3d-2       5Au3d-1       5Au3d0        5Au3d+1   
  151    5Au3d+2       5Au4d-2       5Au4d-1       5Au4d0        5Au4d+1       5Au4d+2       5Au5d-2       5Au5d-1       5Au5d0        5Au5d+1   
  152    5Au5d+2       5Au6d-2       5Au6d-1       5Au6d0        5Au6d+1       5Au6d+2       5Au7d-2       5Au7d-1       5Au7d0        5Au7d+1   
  153    5Au7d+2       5Au8d-2       5Au8d-1       5Au8d0        5Au8d+1       5Au8d+2       5Au9d-2       5Au9d-1       5Au9d0        5Au9d+1   
  154    5Au9d+2       5Au10d-2      5Au10d-1      5Au10d0       5Au10d+1      5Au10d+2      5Au11d-2      5Au11d-1      5Au11d0       5Au11d+1  
  155    5Au11d+2      5Au12d-2      5Au12d-1      5Au12d0       5Au12d+1      5Au12d+2      5Au1f-3       5Au1f-2       5Au1f-1       5Au1f0    
  156    5Au1f+1       5Au1f+2       5Au1f+3       5Au2f-3       5Au2f-2       5Au2f-1       5Au2f0        5Au2f+1       5Au2f+2       5Au2f+3   
  157    5Au3f-3       5Au3f-2       5Au3f-1       5Au3f0        5Au3f+1       5Au3f+2       5Au3f+3       5Au4f-3       5Au4f-2       5Au4f-1   
  158    5Au4f0        5Au4f+1       5Au4f+2       5Au4f+3       5Au5f-3       5Au5f-2       5Au5f-1       5Au5f0        5Au5f+1       5Au5f+2   
  159    5Au5f+3       5Au6f-3       5Au6f-2       5Au6f-1       5Au6f0        5Au6f+1       5Au6f+2       5Au6f+3       5Au7f-3       5Au7f-2   
  160    5Au7f-1       5Au7f0        5Au7f+1       5Au7f+2       5Au7f+3       5Au8f-3       5Au8f-2       5Au8f-1       5Au8f0        5Au8f+1   
  161    5Au8f+2       5Au8f+3       5Au9f-3       5Au9f-2       5Au9f-1       5Au9f0        5Au9f+1       5Au9f+2       5Au9f+3       5Au10f-3  
  162    5Au10f-2      5Au10f-1      5Au10f0       5Au10f+1      5Au10f+2      5Au10f+3      5Au1g-4       5Au1g-3       5Au1g-2       5Au1g-1   
  163    5Au1g0        5Au1g+1       5Au1g+2       5Au1g+3       5Au1g+4       5Au2g-4       5Au2g-3       5Au2g-2       5Au2g-1       5Au2g0    
  164    5Au2g+1       5Au2g+2       5Au2g+3       5Au2g+4       5Au3g-4       5Au3g-3       5Au3g-2       5Au3g-1       5Au3g0        5Au3g+1   
  165    5Au3g+2       5Au3g+3       5Au3g+4       5Au4g-4       5Au4g-3       5Au4g-2       5Au4g-1       5Au4g0        5Au4g+1       5Au4g+2   
  166    5Au4g+3       5Au4g+4       5Au5g-4       5Au5g-3       5Au5g-2       5Au5g-1       5Au5g0        5Au5g+1       5Au5g+2       5Au5g+3   
  167    5Au5g+4       5Au6g-4       5Au6g-3       5Au6g-2       5Au6g-1       5Au6g0        5Au6g+1       5Au6g+2       5Au6g+3       5Au6g+4   
  168    5Au7g-4       5Au7g-3       5Au7g-2       5Au7g-1       5Au7g0        5Au7g+1       5Au7g+2       5Au7g+3       5Au7g+4       5Au8g-4   
  169    5Au8g-3       5Au8g-2       5Au8g-1       5Au8g0        5Au8g+1       5Au8g+2       5Au8g+3       5Au8g+4       5Au1h-5       5Au1h-4   
  170    5Au1h-3       5Au1h-2       5Au1h-1       5Au1h0        5Au1h+1       5Au1h+2       5Au1h+3       5Au1h+4       5Au1h+5       5Au2h-5   
  171    5Au2h-4       5Au2h-3       5Au2h-2       5Au2h-1       5Au2h0        5Au2h+1       5Au2h+2       5Au2h+3       5Au2h+4       5Au2h+5   
  172    5Au3h-5       5Au3h-4       5Au3h-3       5Au3h-2       5Au3h-1       5Au3h0        5Au3h+1       5Au3h+2       5Au3h+3       5Au3h+4   
  173    5Au3h+5       5Au4h-5       5Au4h-4       5Au4h-3       5Au4h-2       5Au4h-1       5Au4h0        5Au4h+1       5Au4h+2       5Au4h+3   
  174    5Au4h+4       5Au4h+5       5Au5h-5       5Au5h-4       5Au5h-3       5Au5h-2       5Au5h-1       5Au5h0        5Au5h+1       5Au5h+2   
  175    5Au5h+3       5Au5h+4       5Au5h+5       5Au1i-6       5Au1i-5       5Au1i-4       5Au1i-3       5Au1i-2       5Au1i-1       5Au1i0    
  176    5Au1i+1       5Au1i+2       5Au1i+3       5Au1i+4       5Au1i+5       5Au1i+6       5Au2i-6       5Au2i-5       5Au2i-4       5Au2i-3   
  177    5Au2i-2       5Au2i-1       5Au2i0        5Au2i+1       5Au2i+2       5Au2i+3       5Au2i+4       5Au2i+5       5Au2i+6       5Au3i-6   
  178    5Au3i-5       5Au3i-4       5Au3i-3       5Au3i-2       5Au3i-1       5Au3i0        5Au3i+1       5Au3i+2       5Au3i+3       5Au3i+4   
  179    5Au3i+5       5Au3i+6       5Au4i-6       5Au4i-5       5Au4i-4       5Au4i-3       5Au4i-2       5Au4i-1       5Au4i0        5Au4i+1   
  180    5Au4i+2       5Au4i+3       5Au4i+4       5Au4i+5       5Au4i+6       6Au1s         6Au2s         6Au3s         6Au4s         6Au5s     
  181    6Au6s         6Au7s         6Au8s         6Au9s         6Au10s        6Au11s        6Au12s        6Au13s        6Au1pz        6Au1py    
  182    6Au1px        6Au2pz        6Au2py        6Au2px        6Au3pz        6Au3py        6Au3px        6Au4pz        6Au4py        6Au4px    
  183    6Au5pz        6Au5py        6Au5px        6Au6pz        6Au6py        6Au6px        6Au7pz        6Au7py        6Au7px        6Au8pz    
  184    6Au8py        6Au8px        6Au9pz        6Au9py        6Au9px        6Au10pz       6Au10py       6Au10px       6Au11pz       6Au11py   
  185    6Au11px       6Au12pz       6Au12py       6Au12px       6Au13pz       6Au13py       6Au13px       6Au1d-2       6Au1d-1       6Au1d0    
  186    6Au1d+1       6Au1d+2       6Au2d-2       6Au2d-1       6Au2d0        6Au2d+1       6Au2d+2       6Au3d-2       6Au3d-1       6Au3d0    
  187    6Au3d+1       6Au3d+2       6Au4d-2       6Au4d-1       6Au4d0        6Au4d+1       6Au4d+2       6Au5d-2       6Au5d-1       6Au5d0    
  188    6Au5d+1       6Au5d+2       6Au6d-2       6Au6d-1       6Au6d0        6Au6d+1       6Au6d+2       6Au7d-2       6Au7d-1       6Au7d0    
  189    6Au7d+1       6Au7d+2       6Au8d-2       6Au8d-1       6Au8d0        6Au8d+1       6Au8d+2       6Au9d-2       6Au9d-1       6Au9d0    
  190    6Au9d+1       6Au9d+2       6Au10d-2      6Au10d-1      6Au10d0       6Au10d+1      6Au10d+2      6Au11d-2      6Au11d-1      6Au11d0   
  191    6Au11d+1      6Au11d+2      6Au12d-2      6Au12d-1      6Au12d0       6Au12d+1      6Au12d+2      6Au1f-3       6Au1f-2       6Au1f-1   
  192    6Au1f0        6Au1f+1       6Au1f+2       6Au1f+3       6Au2f-3       6Au2f-2       6Au2f-1       6Au2f0        6Au2f+1       6Au2f+2   
  193    6Au2f+3       6Au3f-3       6Au3f-2       6Au3f-1       6Au3f0        6Au3f+1       6Au3f+2       6Au3f+3       6Au4f-3       6Au4f-2   
  194    6Au4f-1       6Au4f0        6Au4f+1       6Au4f+2       6Au4f+3       6Au5f-3       6Au5f-2       6Au5f-1       6Au5f0        6Au5f+1   
  195    6Au5f+2       6Au5f+3       6Au6f-3       6Au6f-2       6Au6f-1       6Au6f0        6Au6f+1       6Au6f+2       6Au6f+3       6Au7f-3   
  196    6Au7f-2       6Au7f-1       6Au7f0        6Au7f+1       6Au7f+2       6Au7f+3       6Au8f-3       6Au8f-2       6Au8f-1       6Au8f0    
  197    6Au8f+1       6Au8f+2       6Au8f+3       6Au9f-3       6Au9f-2       6Au9f-1       6Au9f0        6Au9f+1       6Au9f+2       6Au9f+3   
  198    6Au10f-3      6Au10f-2      6Au10f-1      6Au10f0       6Au10f+1      6Au10f+2      6Au10f+3      6Au1g-4       6Au1g-3       6Au1g-2   
  199    6Au1g-1       6Au1g0        6Au1g+1       6Au1g+2       6Au1g+3       6Au1g+4       6Au2g-4       6Au2g-3       6Au2g-2       6Au2g-1   
  200    6Au2g0        6Au2g+1       6Au2g+2       6Au2g+3       6Au2g+4       6Au3g-4       6Au3g-3       6Au3g-2       6Au3g-1       6Au3g0    
  201    6Au3g+1       6Au3g+2       6Au3g+3       6Au3g+4       6Au4g-4       6Au4g-3       6Au4g-2       6Au4g-1       6Au4g0        6Au4g+1   
  202    6Au4g+2       6Au4g+3       6Au4g+4       6Au5g-4       6Au5g-3       6Au5g-2       6Au5g-1       6Au5g0        6Au5g+1       6Au5g+2   
  203    6Au5g+3       6Au5g+4       6Au6g-4       6Au6g-3       6Au6g-2       6Au6g-1       6Au6g0        6Au6g+1       6Au6g+2       6Au6g+3   
  204    6Au6g+4       6Au7g-4       6Au7g-3       6Au7g-2       6Au7g-1       6Au7g0        6Au7g+1       6Au7g+2       6Au7g+3       6Au7g+4   
  205    6Au8g-4       6Au8g-3       6Au8g-2       6Au8g-1       6Au8g0        6Au8g+1       6Au8g+2       6Au8g+3       6Au8g+4       6Au1h-5   
  206    6Au1h-4       6Au1h-3       6Au1h-2       6Au1h-1       6Au1h0        6Au1h+1       6Au1h+2       6Au1h+3       6Au1h+4       6Au1h+5   
  207    6Au2h-5       6Au2h-4       6Au2h-3       6Au2h-2       6Au2h-1       6Au2h0        6Au2h+1       6Au2h+2       6Au2h+3       6Au2h+4   
  208    6Au2h+5       6Au3h-5       6Au3h-4       6Au3h-3       6Au3h-2       6Au3h-1       6Au3h0        6Au3h+1       6Au3h+2       6Au3h+3   
  209    6Au3h+4       6Au3h+5       6Au4h-5       6Au4h-4       6Au4h-3       6Au4h-2       6Au4h-1       6Au4h0        6Au4h+1       6Au4h+2   
  210    6Au4h+3       6Au4h+4       6Au4h+5       6Au5h-5       6Au5h-4       6Au5h-3       6Au5h-2       6Au5h-1       6Au5h0        6Au5h+1   
  211    6Au5h+2       6Au5h+3       6Au5h+4       6Au5h+5       6Au1i-6       6Au1i-5       6Au1i-4       6Au1i-3       6Au1i-2       6Au1i-1   
  212    6Au1i0        6Au1i+1       6Au1i+2       6Au1i+3       6Au1i+4       6Au1i+5       6Au1i+6       6Au2i-6       6Au2i-5       6Au2i-4   
  213    6Au2i-3       6Au2i-2       6Au2i-1       6Au2i0        6Au2i+1       6Au2i+2       6Au2i+3       6Au2i+4       6Au2i+5       6Au2i+6   
  214    6Au3i-6       6Au3i-5       6Au3i-4       6Au3i-3       6Au3i-2       6Au3i-1       6Au3i0        6Au3i+1       6Au3i+2       6Au3i+3   
  215    6Au3i+4       6Au3i+5       6Au3i+6       6Au4i-6       6Au4i-5       6Au4i-4       6Au4i-3       6Au4i-2       6Au4i-1       6Au4i0    
  216    6Au4i+1       6Au4i+2       6Au4i+3       6Au4i+4       6Au4i+5       6Au4i+6   
 
 Maximum number of basis functions per shell:   72
 Total number of basis functions:   2166
 
 
 Effective core potentials:
 
   1  Au mcdhf-ecp-60        
   2  Au mcdhf-ecp-60        
   3  Au mcdhf-ecp-60        
   4  Au mcdhf-ecp-60        
   5  Au mcdhf-ecp-60        
   6  Au mcdhf-ecp-60        
 
 Character table for point group C1:
 
          E  
    A     1
 
 Number of basis functions per irrep:
    A     732
 
 
 Calculation of overlap integrals...
 CPU time [min]:     0.122                   Wall time [min]:     0.008
 
 Calculation of the square root of the overlap matrix...
 Minimum eigenvalue of the overlap matrix: 0.599187E-05
 CPU time [min]:     0.201                   Wall time [min]:     0.010
 
 Calculation of kinetic energy integrals...
 CPU time [min]:     0.209                   Wall time [min]:     0.010
 Calculation of dipole moment integrals...
 CPU time [min]:     0.219                   Wall time [min]:     0.011
 Calculation of nuclear attraction integrals...
 CPU time [min]:     0.227                   Wall time [min]:     0.011
 Calculation of core potential integrals...
 CPU time [min]:     7.485                   Wall time [min]:     7.170
 
 Calculation of prescreening integrals...
 CPU time [min]:    25.425                   Wall time [min]:     7.694
 
 Calculation of two-center Coulomb integrals...
   1% done.
  12% done.
  23% done.
  36% done.
  49% done.
  63% done.
  75% done.
  88% done.
 100% done.
 CPU time [min]:    25.443                   Wall time [min]:     7.694
 
 Cholesky decomposition of the two-center matrix...
 Reciprocal of the condition number:  0.277814E-05
 CPU time [min]:    25.532                   Wall time [min]:     7.697
 

 ************************ 2023-10-22 10:44:53 *************************
 Executing scf...

 @scfsetup: integrals calculated directly
            mrcc/integ direct run
 @scfsetup: calculating on full matrices
            not using symmetry adapted basis
 @scfsetup: diis switched on
 @scfsetup: number of steps to extrapolate from  10
 @scfsetup: tolerance in energy deviation    0.100000E-05
            tolerance in density deviation    0.100000E-06
 @scfsetup: maximum number of iterations:  50
 @scfsetup: restricted closed shell hf calc
 @scfsetup: restarting scf from MOCOEF file
 @scfsetup: occupation set:
            from initial orbitals
 @scfsetup: Parameter-set for SCF acceleration: difficult
 @scfsetup: diis runs from iteration:   2
 @scfsetup: diis runs to iteration:  50
 @scfsetup: diis runs in every iteration
 @scfsetup: diiswatch is disabled                   
 @scfsetup: diis dtol criteria to switch on:      0.0000E+00
           (or the iteration number below is reached)
 @scfsetup: damping is turned off.
 @scfsetup: dynamic level shifting
            tolarance in HOMO-LUMO gap:  0.200
            tolarance in density deviation:     0.0000E+00
            iteration step criteria to turn level shifting off: 8
 Allocation of 200.0 Gbytes of memory...
 ======================================================================
 ITERATION STEP   1
 CPU time [min]:     0.044                   Wall time [min]:     0.005
 

 SCF control                  : initial
 Damping factor/level shift   : 0.000/0.200
 DIIS [start/end/frequency]   :   2 / 50 /  1

 Constructing Fock-matrix...
 
 Pipek-Mezey localization...
 Step  Convergence
   1  38.649283602358
   2  12.460023974760
   3   9.548538869306
   4   3.696780558255
   5   0.561131261204
   6   0.038683395690
   7   0.018475391821
   8   0.000193611235
   9   0.000042678785
  10   0.000002416110
  11   0.000000279638
 CPU time [min]:     0.096                   Wall time [min]:     0.007
 
 Constructing local fitting domains...
 Maximum number of atoms in fitting domains:    6
 Average number of atoms in fitting domains:    6.0
 
 First step of Coulomb + first step of exchange...
 Exchange contribution is evaluated for MOs 1 to 57.
   1% done.
  12% done.
  25% done.
  40% done.
  58% done.
  69% done.
  86% done.
 100% done.
 CPU time [min]:     2.367                   Wall time [min]:     0.070
 
 Fitting and assembly step of exchange...
 CPU time [min]:     2.537                   Wall time [min]:     0.075
 
 Second step of Coulomb...
   1% done.
  12% done.
  25% done.
  40% done.
  58% done.
  69% done.
  86% done.
 100% done.
 CPU time [min]:     3.304                   Wall time [min]:     0.096
 
 Gradient norm:      2.1608E+01
 RMS of [F,P]:                                         0.00118957802178
 RMS of difference density:                            0.00193256186934
 Gap [au]:  0.15558906
 ALPHA OCC:  57
 BETA  OCC:  57
 
 ***HARTREE-FOCK ENERGY IN STEP   1 IS       -808.6921698260380253 [AU]
 ======================================================================
 ITERATION STEP   2
 CPU time [min]:     3.376                   Wall time [min]:     0.098
 

 SCF control                  : diis
 Damping factor/level shift   : 0.000/0.200
 DIIS [start/end/frequency]   :   2 / 50 /  1

 Constructing Fock-matrix...
 
 Pipek-Mezey localization...
 Step  Convergence
   1   6.041468781297
   2   4.273422711660
   3   1.774414267789
   4   0.435791725618
   5   0.184112882903
   6   0.002142391271
   7   0.000208302794
   8   0.000009164621
   9   0.000001972745
  10   0.000000115773
 CPU time [min]:     3.427                   Wall time [min]:     0.100
 
 Constructing local fitting domains...
 Maximum number of atoms in fitting domains:    6
 Average number of atoms in fitting domains:    6.0
 
 First step of Coulomb + first step of exchange...
 Exchange contribution is evaluated for MOs 1 to 57.
   1% done.
  12% done.
  25% done.
  40% done.
  58% done.
  69% done.
  86% done.
 100% done.
 CPU time [min]:     5.631                   Wall time [min]:     0.161
 
 Fitting and assembly step of exchange...
 CPU time [min]:     5.797                   Wall time [min]:     0.166
 
 Second step of Coulomb...
   1% done.
  12% done.
  25% done.
  40% done.
  58% done.
  69% done.
  86% done.
 100% done.
 CPU time [min]:     6.564                   Wall time [min]:     0.187
 
 Gradient norm:      2.1608E+01
 DIIS is running in this iteration step.
 RMS of [F,P]:                                         0.00034699576651
 RMS of difference density:                            0.00033462685937
 Gap [au]:  0.15298167
 ALPHA OCC:  57
 BETA  OCC:  57
 
 ***HARTREE-FOCK ENERGY IN STEP   2 IS       -808.7648004502761978 [AU]
 
 Step comparison  Energy Drift [au]  DIIS error drift  Gradient drift
        1            7.2631E-02         8.4258E-04       0.0000E+00
        2            8.0876E+02         1.0000E-07       0.0000E+00
 ======================================================================
 ITERATION STEP   3
 CPU time [min]:     6.637                   Wall time [min]:     0.189
 

 SCF control                  : diis
 Damping factor/level shift   : 0.000/0.200
 DIIS [start/end/frequency]   :   2 / 50 /  1

 Constructing Fock-matrix...
 
 Pipek-Mezey localization...
 Step  Convergence
   1   9.296992304029
   2   5.728261048910
   3   6.082832054824
   4   0.877122991865
   5   0.049921240946
   6   0.005419019554
   7   0.000370942755
   8   0.000062227447
   9   0.000012776186
  10   0.000003055686
  11   0.000000709146
  12   0.000000162667
  13   0.000000036952
  14   0.000000008355
  15   0.000000001885
  16   0.000000000425
  17   0.000000000096
  18   0.000000000021
  19   0.000000000005
  20   0.000000000001
  21   0.000000000000
 CPU time [min]:     6.713                   Wall time [min]:     0.191
 
 Constructing local fitting domains...
 Local fitting domains are unchanged.
 
 First step of Coulomb + first step of exchange...
 Exchange contribution is evaluated for MOs 1 to 57.
   1% done.
[...]
  143    4Au3i+6       4Au4i-6       4Au4i-5       4Au4i-4       4Au4i-3       4Au4i-2       4Au4i-1       4Au4i0        4Au4i+1       4Au4i+2   
  144    4Au4i+3       4Au4i+4       4Au4i+5       4Au4i+6       5Au1s         5Au2s         5Au3s         5Au4s         5Au5s         5Au6s     
  145    5Au7s         5Au8s         5Au9s         5Au10s        5Au11s        5Au12s        5Au13s        5Au1pz        5Au1py        5Au1px    
  146    5Au2pz        5Au2py        5Au2px        5Au3pz        5Au3py        5Au3px        5Au4pz        5Au4py        5Au4px        5Au5pz    
  147    5Au5py        5Au5px        5Au6pz        5Au6py        5Au6px        5Au7pz        5Au7py        5Au7px        5Au8pz        5Au8py    
  148    5Au8px        5Au9pz        5Au9py        5Au9px        5Au10pz       5Au10py       5Au10px       5Au11pz       5Au11py       5Au11px   
  149    5Au12pz       5Au12py       5Au12px       5Au13pz       5Au13py       5Au13px       5Au1d-2       5Au1d-1       5Au1d0        5Au1d+1   
  150    5Au1d+2       5Au2d-2       5Au2d-1       5Au2d0        5Au2d+1       5Au2d+2       5Au3d-2       5Au3d-1       5Au3d0        5Au3d+1   
  151    5Au3d+2       5Au4d-2       5Au4d-1       5Au4d0        5Au4d+1       5Au4d+2       5Au5d-2       5Au5d-1       5Au5d0        5Au5d+1   
  152    5Au5d+2       5Au6d-2       5Au6d-1       5Au6d0        5Au6d+1       5Au6d+2       5Au7d-2       5Au7d-1       5Au7d0        5Au7d+1   
  153    5Au7d+2       5Au8d-2       5Au8d-1       5Au8d0        5Au8d+1       5Au8d+2       5Au9d-2       5Au9d-1       5Au9d0        5Au9d+1   
  154    5Au9d+2       5Au10d-2      5Au10d-1      5Au10d0       5Au10d+1      5Au10d+2      5Au11d-2      5Au11d-1      5Au11d0       5Au11d+1  
  155    5Au11d+2      5Au12d-2      5Au12d-1      5Au12d0       5Au12d+1      5Au12d+2      5Au1f-3       5Au1f-2       5Au1f-1       5Au1f0    
  156    5Au1f+1       5Au1f+2       5Au1f+3       5Au2f-3       5Au2f-2       5Au2f-1       5Au2f0        5Au2f+1       5Au2f+2       5Au2f+3   
  157    5Au3f-3       5Au3f-2       5Au3f-1       5Au3f0        5Au3f+1       5Au3f+2       5Au3f+3       5Au4f-3       5Au4f-2       5Au4f-1   
  158    5Au4f0        5Au4f+1       5Au4f+2       5Au4f+3       5Au5f-3       5Au5f-2       5Au5f-1       5Au5f0        5Au5f+1       5Au5f+2   
  159    5Au5f+3       5Au6f-3       5Au6f-2       5Au6f-1       5Au6f0        5Au6f+1       5Au6f+2       5Au6f+3       5Au7f-3       5Au7f-2   
  160    5Au7f-1       5Au7f0        5Au7f+1       5Au7f+2       5Au7f+3       5Au8f-3       5Au8f-2       5Au8f-1       5Au8f0        5Au8f+1   
  161    5Au8f+2       5Au8f+3       5Au9f-3       5Au9f-2       5Au9f-1       5Au9f0        5Au9f+1       5Au9f+2       5Au9f+3       5Au10f-3  
  162    5Au10f-2      5Au10f-1      5Au10f0       5Au10f+1      5Au10f+2      5Au10f+3      5Au1g-4       5Au1g-3       5Au1g-2       5Au1g-1   
  163    5Au1g0        5Au1g+1       5Au1g+2       5Au1g+3       5Au1g+4       5Au2g-4       5Au2g-3       5Au2g-2       5Au2g-1       5Au2g0    
  164    5Au2g+1       5Au2g+2       5Au2g+3       5Au2g+4       5Au3g-4       5Au3g-3       5Au3g-2       5Au3g-1       5Au3g0        5Au3g+1   
  165    5Au3g+2       5Au3g+3       5Au3g+4       5Au4g-4       5Au4g-3       5Au4g-2       5Au4g-1       5Au4g0        5Au4g+1       5Au4g+2   
  166    5Au4g+3       5Au4g+4       5Au5g-4       5Au5g-3       5Au5g-2       5Au5g-1       5Au5g0        5Au5g+1       5Au5g+2       5Au5g+3   
  167    5Au5g+4       5Au6g-4       5Au6g-3       5Au6g-2       5Au6g-1       5Au6g0        5Au6g+1       5Au6g+2       5Au6g+3       5Au6g+4   
  168    5Au7g-4       5Au7g-3       5Au7g-2       5Au7g-1       5Au7g0        5Au7g+1       5Au7g+2       5Au7g+3       5Au7g+4       5Au8g-4   
  169    5Au8g-3       5Au8g-2       5Au8g-1       5Au8g0        5Au8g+1       5Au8g+2       5Au8g+3       5Au8g+4       5Au1h-5       5Au1h-4   
  170    5Au1h-3       5Au1h-2       5Au1h-1       5Au1h0        5Au1h+1       5Au1h+2       5Au1h+3       5Au1h+4       5Au1h+5       5Au2h-5   
  171    5Au2h-4       5Au2h-3       5Au2h-2       5Au2h-1       5Au2h0        5Au2h+1       5Au2h+2       5Au2h+3       5Au2h+4       5Au2h+5   
  172    5Au3h-5       5Au3h-4       5Au3h-3       5Au3h-2       5Au3h-1       5Au3h0        5Au3h+1       5Au3h+2       5Au3h+3       5Au3h+4   
  173    5Au3h+5       5Au4h-5       5Au4h-4       5Au4h-3       5Au4h-2       5Au4h-1       5Au4h0        5Au4h+1       5Au4h+2       5Au4h+3   
  174    5Au4h+4       5Au4h+5       5Au5h-5       5Au5h-4       5Au5h-3       5Au5h-2       5Au5h-1       5Au5h0        5Au5h+1       5Au5h+2   
  175    5Au5h+3       5Au5h+4       5Au5h+5       5Au1i-6       5Au1i-5       5Au1i-4       5Au1i-3       5Au1i-2       5Au1i-1       5Au1i0    
  176    5Au1i+1       5Au1i+2       5Au1i+3       5Au1i+4       5Au1i+5       5Au1i+6       5Au2i-6       5Au2i-5       5Au2i-4       5Au2i-3   
  177    5Au2i-2       5Au2i-1       5Au2i0        5Au2i+1       5Au2i+2       5Au2i+3       5Au2i+4       5Au2i+5       5Au2i+6       5Au3i-6   
  178    5Au3i-5       5Au3i-4       5Au3i-3       5Au3i-2       5Au3i-1       5Au3i0        5Au3i+1       5Au3i+2       5Au3i+3       5Au3i+4   
  179    5Au3i+5       5Au3i+6       5Au4i-6       5Au4i-5       5Au4i-4       5Au4i-3       5Au4i-2       5Au4i-1       5Au4i0        5Au4i+1   
  180    5Au4i+2       5Au4i+3       5Au4i+4       5Au4i+5       5Au4i+6       6Au1s         6Au2s         6Au3s         6Au4s         6Au5s     
  181    6Au6s         6Au7s         6Au8s         6Au9s         6Au10s        6Au11s        6Au12s        6Au13s        6Au1pz        6Au1py    
  182    6Au1px        6Au2pz        6Au2py        6Au2px        6Au3pz        6Au3py        6Au3px        6Au4pz        6Au4py        6Au4px    
  183    6Au5pz        6Au5py        6Au5px        6Au6pz        6Au6py        6Au6px        6Au7pz        6Au7py        6Au7px        6Au8pz    
  184    6Au8py        6Au8px        6Au9pz        6Au9py        6Au9px        6Au10pz       6Au10py       6Au10px       6Au11pz       6Au11py   
  185    6Au11px       6Au12pz       6Au12py       6Au12px       6Au13pz       6Au13py       6Au13px       6Au1d-2       6Au1d-1       6Au1d0    
  186    6Au1d+1       6Au1d+2       6Au2d-2       6Au2d-1       6Au2d0        6Au2d+1       6Au2d+2       6Au3d-2       6Au3d-1       6Au3d0    
  187    6Au3d+1       6Au3d+2       6Au4d-2       6Au4d-1       6Au4d0        6Au4d+1       6Au4d+2       6Au5d-2       6Au5d-1       6Au5d0    
  188    6Au5d+1       6Au5d+2       6Au6d-2       6Au6d-1       6Au6d0        6Au6d+1       6Au6d+2       6Au7d-2       6Au7d-1       6Au7d0    
  189    6Au7d+1       6Au7d+2       6Au8d-2       6Au8d-1       6Au8d0        6Au8d+1       6Au8d+2       6Au9d-2       6Au9d-1       6Au9d0    
  190    6Au9d+1       6Au9d+2       6Au10d-2      6Au10d-1      6Au10d0       6Au10d+1      6Au10d+2      6Au11d-2      6Au11d-1      6Au11d0   
  191    6Au11d+1      6Au11d+2      6Au12d-2      6Au12d-1      6Au12d0       6Au12d+1      6Au12d+2      6Au1f-3       6Au1f-2       6Au1f-1   
  192    6Au1f0        6Au1f+1       6Au1f+2       6Au1f+3       6Au2f-3       6Au2f-2       6Au2f-1       6Au2f0        6Au2f+1       6Au2f+2   
  193    6Au2f+3       6Au3f-3       6Au3f-2       6Au3f-1       6Au3f0        6Au3f+1       6Au3f+2       6Au3f+3       6Au4f-3       6Au4f-2   
  194    6Au4f-1       6Au4f0        6Au4f+1       6Au4f+2       6Au4f+3       6Au5f-3       6Au5f-2       6Au5f-1       6Au5f0        6Au5f+1   
  195    6Au5f+2       6Au5f+3       6Au6f-3       6Au6f-2       6Au6f-1       6Au6f0        6Au6f+1       6Au6f+2       6Au6f+3       6Au7f-3   
  196    6Au7f-2       6Au7f-1       6Au7f0        6Au7f+1       6Au7f+2       6Au7f+3       6Au8f-3       6Au8f-2       6Au8f-1       6Au8f0    
  197    6Au8f+1       6Au8f+2       6Au8f+3       6Au9f-3       6Au9f-2       6Au9f-1       6Au9f0        6Au9f+1       6Au9f+2       6Au9f+3   
  198    6Au10f-3      6Au10f-2      6Au10f-1      6Au10f0       6Au10f+1      6Au10f+2      6Au10f+3      6Au1g-4       6Au1g-3       6Au1g-2   
  199    6Au1g-1       6Au1g0        6Au1g+1       6Au1g+2       6Au1g+3       6Au1g+4       6Au2g-4       6Au2g-3       6Au2g-2       6Au2g-1   
  200    6Au2g0        6Au2g+1       6Au2g+2       6Au2g+3       6Au2g+4       6Au3g-4       6Au3g-3       6Au3g-2       6Au3g-1       6Au3g0    
  201    6Au3g+1       6Au3g+2       6Au3g+3       6Au3g+4       6Au4g-4       6Au4g-3       6Au4g-2       6Au4g-1       6Au4g0        6Au4g+1   
  202    6Au4g+2       6Au4g+3       6Au4g+4       6Au5g-4       6Au5g-3       6Au5g-2       6Au5g-1       6Au5g0        6Au5g+1       6Au5g+2   
  203    6Au5g+3       6Au5g+4       6Au6g-4       6Au6g-3       6Au6g-2       6Au6g-1       6Au6g0        6Au6g+1       6Au6g+2       6Au6g+3   
  204    6Au6g+4       6Au7g-4       6Au7g-3       6Au7g-2       6Au7g-1       6Au7g0        6Au7g+1       6Au7g+2       6Au7g+3       6Au7g+4   
  205    6Au8g-4       6Au8g-3       6Au8g-2       6Au8g-1       6Au8g0        6Au8g+1       6Au8g+2       6Au8g+3       6Au8g+4       6Au1h-5   
  206    6Au1h-4       6Au1h-3       6Au1h-2       6Au1h-1       6Au1h0        6Au1h+1       6Au1h+2       6Au1h+3       6Au1h+4       6Au1h+5   
  207    6Au2h-5       6Au2h-4       6Au2h-3       6Au2h-2       6Au2h-1       6Au2h0        6Au2h+1       6Au2h+2       6Au2h+3       6Au2h+4   
  208    6Au2h+5       6Au3h-5       6Au3h-4       6Au3h-3       6Au3h-2       6Au3h-1       6Au3h0        6Au3h+1       6Au3h+2       6Au3h+3   
  209    6Au3h+4       6Au3h+5       6Au4h-5       6Au4h-4       6Au4h-3       6Au4h-2       6Au4h-1       6Au4h0        6Au4h+1       6Au4h+2   
  210    6Au4h+3       6Au4h+4       6Au4h+5       6Au5h-5       6Au5h-4       6Au5h-3       6Au5h-2       6Au5h-1       6Au5h0        6Au5h+1   
  211    6Au5h+2       6Au5h+3       6Au5h+4       6Au5h+5       6Au1i-6       6Au1i-5       6Au1i-4       6Au1i-3       6Au1i-2       6Au1i-1   
  212    6Au1i0        6Au1i+1       6Au1i+2       6Au1i+3       6Au1i+4       6Au1i+5       6Au1i+6       6Au2i-6       6Au2i-5       6Au2i-4   
  213    6Au2i-3       6Au2i-2       6Au2i-1       6Au2i0        6Au2i+1       6Au2i+2       6Au2i+3       6Au2i+4       6Au2i+5       6Au2i+6   
  214    6Au3i-6       6Au3i-5       6Au3i-4       6Au3i-3       6Au3i-2       6Au3i-1       6Au3i0        6Au3i+1       6Au3i+2       6Au3i+3   
  215    6Au3i+4       6Au3i+5       6Au3i+6       6Au4i-6       6Au4i-5       6Au4i-4       6Au4i-3       6Au4i-2       6Au4i-1       6Au4i0    
  216    6Au4i+1       6Au4i+2       6Au4i+3       6Au4i+4       6Au4i+5       6Au4i+6   
 
 Maximum number of basis functions per shell:   72
 Total number of basis functions:   2166
 
 
 Effective core potentials:
 
   1  Au mcdhf-ecp-60        
   2  Au mcdhf-ecp-60        
   3  Au mcdhf-ecp-60        
   4  Au mcdhf-ecp-60        
   5  Au mcdhf-ecp-60        
   6  Au mcdhf-ecp-60        
 
 Calculation of prescreening integrals...
 CPU time [min]:    18.077                   Wall time [min]:     0.533
 
 Calculation of two-center Coulomb integrals...
   1% done.
  12% done.
  23% done.
  34% done.
  45% done.
  56% done.
  69% done.
  84% done.
  95% done.
 100% done.
 CPU time [min]:    18.125                   Wall time [min]:     0.534
 
 Cholesky decomposition of the inverse of the two-center matrix...
 CPU time [min]:    18.239                   Wall time [min]:     0.538
 
 Calculation of three-center Coulomb integrals...
   1% done.
  12% done.
  25% done.
  40% done.
  58% done.
  69% done.
  86% done.
 100% done.
 CPU time [min]:    28.099                   Wall time [min]:     0.814

 ************************ 2023-10-22 10:47:14 *************************
 Executing drpa...

 Three-index integral transformation
 
 Allocation of 200.0 Gbytes of memory...
 Minimal memory requirement for (ai|P) and (ij|P) integrals:      124.8 MB

 Calculating (ai|P) and (ij|P) integrals...
 Number of integral batches:    1
 Occupied indices per batch:   57
 
 Transforming integrals of batch 1...
 CPU time [min]:   200.342                   Wall time [min]:     6.937
 

 Constructing MP2 natural orbitals...

 Threshold for individual occupations:     1.0000E-05
 Corresponding cummulative occupation threshold:  0.99986986  0.99986491
 Total number of virtual orbitals:     675
 Number of virtual natural orbitals:   539  (79.85%)
 
 Transforming (ai|P) integrals to the NO basis...
 Number of integral batches:    1
 Occupied indices per batch:   57
 
 Transforming integrals of batch 1 to the NO basis...
 CPU time [min]:   294.573                   Wall time [min]:    10.379

 Calculating (ab|P) integrals...
 Minimal memory requirement for (ab|P) integrals:       74.6 MB
 Number of integral batches:    1
 Virtual indices per batch:   539

 Transforming integrals of batch 1...
 CPU time [min]:   329.196                   Wall time [min]:    12.554
 

 Constructing natural auxiliary functions...

 Threshold for eigenvalues:     1.0000E-02
 Total number of auxiliary functions:    2166
 Number of natural auxiliary functions:  1657  (76.50%)

 Transforming (ai|P) and (ij|P) integrals to the NAF basis...
 Number of integral batches:    1
 Occupied indices per batch:   57
 
 Transforming integrals of batch 1 to the NAF basis...
 CPU time [min]:   423.549                   Wall time [min]:    15.991

 Transforming (ab|P) integrals to the NAF basis...
 Number of integral batches:    1
 Virtual indices per batch:   539

 Transforming integrals of batch 1 to the NAF basis...
 CPU time [min]:   424.646                   Wall time [min]:    16.294
 

 Results in full basis:
 
 
 Reference energy [au]:                      -808.775096483563
 DF-MP2 singlet pair energy [au]:              -3.190571316074
 DF-MP2 triplet pair energy [au]:              -1.529437474877
 DF-SCS-MP2 correlation energy [au]:           -4.338498070914
 DF-SCS-MP2 energy [au]:                     -813.113594554477
 DF-SOS-MP2 correlation energy [au]:           -4.147742710896
 DF-SOS-MP2 energy [au]:                     -812.922839194459
 DF-MP2 correlation energy [au]:               -4.720008790951
 DF-MP2 energy [au]:                         -813.495105274513

 Results in FNO basis:
 
 
 Reference energy [au]:                      -808.775096483563
 DF-MP2 singlet pair energy [au]:              -3.185994744632
 DF-MP2 triplet pair energy [au]:              -1.528702768391
 DF-SCS-MP2 correlation energy [au]:           -4.332761283022
 DF-SCS-MP2 energy [au]:                     -813.107857766585
 DF-SOS-MP2 correlation energy [au]:           -4.141793168022
 DF-SOS-MP2 energy [au]:                     -812.916889651584
 DF-MP2 correlation energy [au]:               -4.714697513023
 DF-MP2 energy [au]:                         -813.489793996586

 Results in NAF basis:
 
 
 Reference energy [au]:                      -808.775096483563
 DF-MP2 singlet pair energy [au]:              -3.185937925520
 DF-MP2 triplet pair energy [au]:              -1.528718367039
 DF-SCS-MP2 correlation energy [au]:           -4.332698299637
 DF-SCS-MP2 energy [au]:                     -813.107794783200
 DF-SOS-MP2 correlation energy [au]:           -4.141719303176
 DF-SOS-MP2 energy [au]:                     -812.916815786739
 DF-MP2 correlation energy [au]:               -4.714656292559
 DF-MP2 energy [au]:                         -813.489752776122

 ************************ 2023-10-22 11:03:34 *************************
 Executing ccsd...

 Allocation of 200.0 Gbytes of memory...

 Direct DF-CCSD(T) calculation
 
 Convergence criterion:  1.0E-06
 
 Number of occupied/virtual/auxiliary orbitals:    57   539  1657
  33019.28 MB is the minimal memory requirement for (T)
  14303.85 MB is the minimal memory requirement for CCSD
 
 Reference energy [au]:            -808.775096483563
 T1 contribution [au]:                0.000000000000
 Same spin MP2 energy [au]:          -1.528710532516
 Opposite spin MP2 energy [au]:      -3.185966287957
 MP2 correlation energy [au]:        -4.714676820473
 Total MP2 energy [au]:            -813.489773304035
 MP2 correction [au]:                -0.005331970478
 
 
 CPU time [min]:    17.814                   Wall time [min]:     5.564
 
 Starting CCSD iterations...
 
                     Residual norm          Energy
 Iteration  1        0.696110994355     -812.902113432355
 Iteration  2        0.276421275106     -813.076131435454
 Iteration  3        0.059503204067     -813.109028075396
 Iteration  4        0.035064853464     -813.115463375385
 Iteration  5        0.017663745736     -813.110091933917
 Iteration  6        0.011181715310     -813.108146225436
 Iteration  7        0.005997464579     -813.109815555389
 Iteration  8        0.003334754964     -813.110514113567
 Iteration  9        0.001617048674     -813.110393679359
 Iteration 10        0.000949538365     -813.110337084452
 Iteration 11        0.000497480993     -813.110343998560
 Iteration 12        0.000293740271     -813.110331104319
 Iteration 13        0.000169438010     -813.110318276215
 Iteration 14        0.000097156576     -813.110325306956
 Iteration 15        0.000052798054     -813.110331918441
 Iteration 16        0.000028808716     -813.110329751045
 Iteration 17        0.000015380196     -813.110328262044
 Iteration 18        0.000008899845     -813.110328785525
 Iteration 19        0.000005460436     -813.110329067940
 
 CCSD iteration has converged in 19 steps.
   204798.42 MB memory was utilized by CCSD
 
 T1 diagnostic:      2.248E-02            D1 diagnostic:      1.482E-01
 
 T1 contribution [au]:                                  0.000000000000
 PPL energy contribution [au]:                          0.666949827701
 Scaled PPL energy contribution [au]:                   0.667639862071

 OS-PPL energy contribution [au]:                       0.494372530714
 Scaled OS-PPL energy contribution [au]:                0.495022083800
 SS-PPL energy contribution [au]:                       0.172577296986
 Scaled SS-PPL energy contribution [au]:                0.172653245559

 Opposite spin CCSD energy [au]:                       -3.054719596610
 Same spin CCSD energy [au]:                           -1.280534233609
 CCSD correlation energy [au]:                         -4.335253830219
 CCSD correlation energy + MP2 correction [au]:        -4.340585800697
 CCSD correlation energy + MP2 + PPL corr. [au]:       -4.339895766326
 Total CCSD energy [au]:                             -813.110350313781
 Total CCSD energy + MP2 correction [au]:            -813.115682284259
 Total CCSD energy + MP2 + PPL corr. [au]:           -813.114992249889
 
 CPU time [min]:  7927.641                   Wall time [min]:   296.683
 
 Calculation of (T) correction...
 
 
   104127.03 MB memory is utilized for (T)

 0%       25%       50%       75%       100%
 |---------|---------|---------|---------| 
 
 (T) correction [au]:                                    -0.212158316325
 (T*) correction [au]:                                   -0.212398252575
 (T+) correction [au]:                                   -0.212357743852
 CCSD(T) correlation energy [au]:                        -4.547412146543
 CCSD(T) correlation energy + MP2 correction [au]:       -4.552744117021
 CCSD(T+) correlation en. + MP2 + PPL corr. [au]:        -4.552253510178
 Total CCSD(T) energy [au]:                            -813.322508630106
 Total CCSD(T) energy + MP2 correction [au]:           -813.327840600584
 Total CCSD(T+) energy + MP2 + PPL corr. [au]:         -813.327349993741
 
 CPU time [min]: 38994.290                   Wall time [min]:  1174.813
 
 ************************ 2023-10-23 06:38:24 *************************
                      Normal termination of mrcc.
 **********************************************************************
