 vasp.6.3.0 20Jan22 (build Apr  1 2022 16:44:48) complex                         
 executed on        HPECrayEX_GCC date 2022.11.18  08:12:43
 running 2048 mpi-ranks, with    1 threads/rank
 distrk:  each k-point on 1024 cores,    2 groups
 distr:  one band on NCORE=   4 cores,  256 groups


--------------------------------------------------------------------------------------------------------


 INCAR:
   SYSTEM = MgO-rocksalt
   ISMEAR = 0
   SIGMA = 0.05
   EDIFF = 1E-6
   ALGO = ALL
   ISTART = 0
   IBRION = -1
   NSW = 0
   ISYM = 2
   DIPOL = 0.5 0.5 0.5
   IDIPOL = 3
   LDIPOL = .TRUE.
   GGA = PE
   IVDW = 1
   ENCUT = 520
   PREC = Accurate
   LASPH = .TRUE.
   LREAL = Auto
   ISPIN = 1
   NELM = 200
   NELMIN = 8
   NCORE = 4
   KPAR = 2
   LWAVE = .FALSE.
   LCHARG = .FALSE.

 POTCAR:    PAW_PBE Cu 22Jun2005                  
 POTCAR:    PAW_PBE Cu 22Jun2005                  
   SHA256 =  0e71e558f37a4e8407882b4609ceaae59938afaad9ced71dfe8490308a0ab630 Cu/POTCAR             
   COPYR  = (c) Copyright 22Jun2005 Georg Kresse                                                    
   COPYR  = This file is part of the software VASP. Any use, copying, and all other rights are regul
   COPYR  = If you do not have a valid VASP license, you may not use, copy or distribute this file. 
   VRHFIN =Cu: d10 p1                                                                               
   LEXCH  = PE                                                                                      
   EATOM  =  1390.9808 eV,  102.2342 Ry                                                             
                                                                                                    
   TITEL  = PAW_PBE Cu 22Jun2005                                                                    
   LULTRA =        F    use ultrasoft PP ?                                                          
   IUNSCR =        1    unscreen: 0-lin 1-nonlin 2-no                                               
   RPACOR =    2.000    partial core radius                                                         
   POMASS =   63.546; ZVAL   =   11.000    mass and valenz                                          
   RCORE  =    2.300    outmost cutoff radius                                                       
   RWIGS  =    2.200; RWIGS  =    1.164    wigner-seitz radius (au A)                               
   ENMAX  =  295.446; ENMIN  =  221.585 eV                                                          
   ICORE  =        3    local potential                                                             
   LCOR   =        T    correct aug charges                                                         
   LPAW   =        T    paw PP                                                                      
   EAUG   =  586.980                                                                                
   DEXC   =    0.000                                                                                
   RMAX   =    2.344    core radius for proj-oper                                                   
   RAUG   =    1.300    factor for augmentation sphere                                              
   RDEP   =    2.302    radius for radial grids                                                     
   RDEPT  =    1.771    core radius for aug-charge                                                  
                                                                                                    
   Atomic configuration                                                                             
    9 entries                                                                                       
     n  l   j            E        occ.                                                              
     1  0  0.50     -8850.2468   2.0000                                                             
     2  0  0.50     -1062.3498   2.0000                                                             
     2  1  1.50      -916.8226   6.0000                                                             
     3  0  0.50      -114.6929   2.0000                                                             
     3  1  1.50       -72.1325   6.0000                                                             
     3  2  2.50        -5.0394  10.0000                                                             
     4  0  0.50        -4.6097   1.0000                                                             
     4  1  0.50        -4.0817   0.0000                                                             
     4  3  2.50        -1.3606   0.0000                                                             
   Description                                                                                      
     l       E           TYP  RCUT    TYP  RCUT                                                     
     2     -5.0393973     23  2.200                                                                 
     2     10.8846608     23  2.200                                                                 
     0     -4.6097109     23  2.200                                                                 
     0      8.2520465     23  2.200                                                                 
     1     -2.7211652     23  2.200                                                                 
     1     21.7055443     23  2.200                                                                 
     3      2.7211652     23  2.300                                                                 
  local pseudopotential read in
  partial core-charges read in
  partial kinetic energy density read in
  atomic valenz-charges read in
  non local Contribution for L=           2  read in
    real space projection operators read in
  non local Contribution for L=           2  read in
    real space projection operators read in
  non local Contribution for L=           0  read in
    real space projection operators read in
  non local Contribution for L=           0  read in
    real space projection operators read in
  non local Contribution for L=           1  read in
    real space projection operators read in
  non local Contribution for L=           1  read in
    real space projection operators read in
    PAW grid and wavefunctions read in

   number of l-projection  operators is LMAX  =           6
   number of lm-projection operators is LMMAX =          18

 -----------------------------------------------------------------------------
|                                                                             |
|               ----> ADVICE to this user running VASP <----                  |
|                                                                             |
|     You have a (more or less) 'small supercell' and for smaller cells       |
|     it is recommended to use the reciprocal-space projection scheme!        |
|     The real-space optimization is not efficient for small cells and it     |
|     is also less accurate ...                                               |
|     Therefore, set LREAL=.FALSE. in the INCAR file.                         |
|                                                                             |
 -----------------------------------------------------------------------------

 Optimization of the real space projectors (new method)

 maximal supplied QI-value         = 16.25
 optimisation between [QCUT,QGAM] = [ 11.54, 23.24] = [ 37.28,151.24] Ry 
 Optimized for a Real-space Cutoff    1.53 Angstroem

   l    n(q)    QCUT    max X(q) W(low)/X(q) W(high)/X(q)  e(spline) 
   2     10    11.539     4.610    0.96E-04    0.13E-03    0.19E-06
   2     10    11.539     8.522    0.16E-03    0.21E-03    0.28E-06
   0     11    11.539    51.609    0.45E-04    0.31E-04    0.11E-06
   0     11    11.539    27.747    0.39E-04    0.29E-04    0.10E-06
   1     10    11.539    20.408    0.70E-05    0.38E-04    0.18E-06
   1     10    11.539    13.425    0.66E-05    0.34E-04    0.17E-06
  PAW_PBE Cu 22Jun2005                  :
 energy of atom  1       EATOM=-1390.9808
 kinetic energy error for atom=    0.0037 (will be added to EATOM!!)


 POSCAR: Cu
  positions in direct lattice
  No initial velocities read in
 exchange correlation table for  LEXCH =        8
   RHO(1)=    0.500       N(1)  =     2000
   RHO(2)=  100.500       N(2)  =     4000



--------------------------------------------------------------------------------------------------------


 ion  position               nearest neighbor table
   1  0.487  0.413  0.634-   2 2.23
   2  0.413  0.487  0.634-   1 2.23

  LATTYP: Found a simple tetragonal cell.
 ALAT       =    21.1388521970
 C/A-ratio  =     1.0461251639
  
  Lattice vectors:
  
 A1 = (  21.1388521970,   0.0000000000,   0.0000000000)
 A2 = (   0.0000000000,  21.1388521970,   0.0000000000)
 A3 = (   0.0000000000,   0.0000000000,  22.1138852197)


Analysis of symmetry for initial positions (statically):
=====================================================================
 Subroutine PRICEL returns:
 Original cell was already a primitive cell.
 

 Routine SETGRP: Setting up the symmetry group for a 
 simple tetragonal supercell.


 Subroutine GETGRP returns: Found  8 space group operations
 (whereof  2 operations were pure point group operations)
 out of a pool of 16 trial point group operations.


The static configuration has the point symmetry C_1h.
 The point group associated with its full space group is D_2h.


Analysis of symmetry for dynamics (positions and initial velocities):
=====================================================================
 Subroutine PRICEL returns:
 Original cell was already a primitive cell.
 

 Routine SETGRP: Setting up the symmetry group for a 
 simple tetragonal supercell.


 Subroutine GETGRP returns: Found  8 space group operations
 (whereof  2 operations were pure point group operations)
 out of a pool of 16 trial point group operations.


The dynamic configuration has the point symmetry C_1h.
 The point group associated with its full space group is D_2h.


 Subroutine INISYM returns: Found  8 space group operations
 (whereof  2 operations are pure point group operations),
 and found     1 'primitive' translations


----------------------------------------------------------------------------------------

                                     Primitive cell                                     

  volume of cell :    9881.6133

  direct lattice vectors                    reciprocal lattice vectors
    21.138852197  0.000000000  0.000000000     0.047306258  0.000000000  0.000000000
     0.000000000 21.138852197  0.000000000     0.000000000  0.047306258  0.000000000
     0.000000000  0.000000000 22.113885220     0.000000000  0.000000000  0.045220457

  length of vectors
    21.138852197 21.138852197 22.113885220     0.047306258  0.047306258  0.045220457

  position of ions in fractional coordinates (direct lattice)
     0.487233885  0.412766122  0.633890230
     0.412766091  0.487233915  0.633890230

  ion indices of the primitive-cell ions
   primitive index   ion index
                 1           1
                 2           2

----------------------------------------------------------------------------------------



 KPOINTS: KPOINTS created by Atomic Simulation Env

Automatic generation of k-mesh.
 Grid dimensions read from file:
 generate k-points for:    1    1    1

 Generating k-lattice:

  Cartesian coordinates                     Fractional coordinates (reciprocal lattice)
     0.047306258  0.000000000  0.000000000     1.000000000  0.000000000  0.000000000
     0.000000000  0.047306258  0.000000000     0.000000000  1.000000000  0.000000000
     0.000000000  0.000000000  0.045220457     0.000000000  0.000000000  1.000000000

  Length of vectors
     0.047306258  0.047306258  0.045220457

  Shift w.r.t. Gamma in fractional coordinates (k-lattice)
     0.000000000  0.000000000  0.000000000

 
 Subroutine IBZKPT returns following result:
 ===========================================
 
 Found      1 irreducible k-points:
 
 Following reciprocal coordinates:
            Coordinates               Weight
  0.000000  0.000000  0.000000      1.000000
 
 Following cartesian coordinates:
            Coordinates               Weight
  0.000000  0.000000  0.000000      1.000000
 


--------------------------------------------------------------------------------------------------------




 Dimension of arrays:
   k-points           NKPTS =      1   k-points in BZ     NKDIM =      1   number of bands    NBANDS=    256
   number of dos      NEDOS =    301   number of ions     NIONS =      2
   non local maximal  LDIM  =      6   non local SUM 2l+1 LMDIM =     18
   total plane-waves  NPLWV = ******
   max r-space proj   IRMAX =   6628   max aug-charges    IRDMAX=  12805
   dimension x,y,z NGX =   160 NGY =  160 NGZ =  168
   dimension x,y,z NGXF=   320 NGYF=  320 NGZF=  336
   support grid    NGXF=   320 NGYF=  320 NGZF=  336
   ions per type =               2
   NGX,Y,Z   is equivalent  to a cutoff of  12.58, 12.58, 12.63 a.u.
   NGXF,Y,Z  is equivalent  to a cutoff of  25.17, 25.17, 25.26 a.u.

 SYSTEM =  MgO-rocksalt                            
 POSCAR =  Cu                                      

 Startparameter for this run:
   NWRITE =      2    write-flag & timer
   PREC   = accura    normal or accurate (medium, high low for compatibility)
   ISTART =      0    job   : 0-new  1-cont  2-samecut
   ICHARG =      2    charge: 1-file 2-atom 10-const
   ISPIN  =      1    spin polarized calculation?
   LNONCOLLINEAR =      F non collinear calculations
   LSORBIT =      F    spin-orbit coupling
   INIWAV =      1    electr: 0-lowe 1-rand  2-diag
   LASPH  =      T    aspherical Exc in radial PAW
 Electronic Relaxation 1
   ENCUT  =  520.0 eV  38.22 Ry    6.18 a.u.  39.30 39.30 41.12*2*pi/ulx,y,z
   ENINI  =  520.0     initial cutoff
   ENAUG  =  587.0 eV  augmentation charge cutoff
   NELM   =    200;   NELMIN=  8; NELMDL= -5     # of ELM steps 
   EDIFF  = 0.1E-05   stopping-criterion for ELM
   LREAL  =      T    real-space projection
   NLSPLINE    = F    spline interpolate recip. space projectors
   LCOMPAT=      F    compatible to vasp.4.4
   GGA_COMPAT  = T    GGA compatible to vasp.4.4-vasp.4.6
   LMAXPAW     = -100 max onsite density
   LMAXMIX     =    2 max onsite mixed and CHGCAR
   VOSKOWN=      0    Vosko Wilk Nusair interpolation
   ROPT   =   -0.00025
 Ionic relaxation
   EDIFFG = 0.1E-04   stopping-criterion for IOM
   NSW    =      0    number of steps for IOM
   NBLOCK =      1;   KBLOCK =      1    inner block; outer block 
   IBRION =     -1    ionic relax: 0-MD 1-quasi-New 2-CG
   NFREE  =      0    steps in history (QN), initial steepest desc. (CG)
   ISIF   =      2    stress and relaxation
   IWAVPR =     10    prediction:  0-non 1-charg 2-wave 3-comb
   ISYM   =      2    0-nonsym 1-usesym 2-fastsym
   LCORR  =      T    Harris-Foulkes like correction to forces

   POTIM  = 0.5000    time-step for ionic-motion
   TEIN   =    0.0    initial temperature
   TEBEG  =    0.0;   TEEND  =   0.0 temperature during run
   SMASS  =  -3.00    Nose mass-parameter (am)
   estimated Nose-frequenzy (Omega)   =  0.10E-29 period in steps = 0.13E+47 mass=  -0.102E-25a.u.
   SCALEE = 1.0000    scale energy and forces
   NPACO  =    256;   APACO  = 10.0  distance and # of slots for P.C.
   PSTRESS=    0.0 pullay stress

  Mass of Ions in am
   POMASS =  63.55
  Ionic Valenz
   ZVAL   =  11.00
  Atomic Wigner-Seitz radii
   RWIGS  =  -1.00
  virtual crystal weights 
   VCA    =   1.00
   NELECT =      22.0000    total number of electrons
   NUPDOWN=      -1.0000    fix difference up-down

 DOS related values:
   EMIN   =  10.00;   EMAX   =-10.00  energy-range for DOS
   EFERMI =   0.00
   ISMEAR =     0;   SIGMA  =   0.05  broadening in eV -4-tet -1-fermi 0-gaus

 Electronic relaxation 2 (details)
   IALGO  =     58    algorithm
   LDIAG  =      T    sub-space diagonalisation (order eigenvalues)
   LSUBROT=      F    optimize rotation matrix (better conditioning)
   TURBO    =      0    0=normal 1=particle mesh
   IRESTART =      0    0=no restart 2=restart with 2 vectors
   NREBOOT  =      0    no. of reboots
   NMIN     =      0    reboot dimension
   EREF     =   0.00    reference energy to select bands
   IMIX   =      4    mixing-type and parameters
     AMIX     =   0.40;   BMIX     =  1.00
     AMIX_MAG =   1.60;   BMIX_MAG =  1.00
     AMIN     =   0.10
     WC   =   100.;   INIMIX=   1;  MIXPRE=   1;  MAXMIX= -45

 Intra band minimization:
   WEIMIN = 0.0000     energy-eigenvalue tresh-hold
   EBREAK =  0.98E-09  absolut break condition
   DEPER  =   0.30     relativ break condition  

   TIME   =   0.40     timestep for ELM

  volume/ion in A,a.u.               =    4940.81     33342.21
  Fermi-wavevector in a.u.,A,eV,Ry     =   0.213767  0.403960  0.621734  0.045696
  Thomas-Fermi vector in A             =   0.985879

 Write flags
   LWAVE        =      F    write WAVECAR
   LDOWNSAMPLE  =      F    k-point downsampling of WAVECAR
   LCHARG       =      F    write CHGCAR
   LVTOT        =      F    write LOCPOT, total local potential
   LVHAR        =      F    write LOCPOT, Hartree potential only
   LELF         =      F    write electronic localiz. function (ELF)
   LORBIT       =      0    0 simple, 1 ext, 2 COOP (PROOUT), +10 PAW based schemes


 Dipole corrections
   LMONO  =      F    monopole corrections only (constant potential shift)
   LDIPOL =      T    correct potential (dipole corrections)
   IDIPOL =      3    1-x, 2-y, 3-z, 4-all directions 
   EPSILON=  1.0000000 bulk dielectric constant

 Exchange correlation treatment:
   GGA     =    PE    GGA type
   LEXCH   =     8    internal setting for exchange type
   LIBXC   =     F    Libxc                    
   VOSKOWN =     0    Vosko Wilk Nusair interpolation
   LHFCALC =     F    Hartree Fock is set to
   LHFONE  =     F    Hartree Fock one center treatment
   AEXX    =    0.0000 exact exchange contribution

 Linear response parameters
   LEPSILON=     F    determine dielectric tensor
   LRPA    =     F    only Hartree local field effects (RPA)
   LNABLA  =     F    use nabla operator in PAW spheres
   LVEL    =     F    velocity operator in full k-point grid
   CSHIFT  =0.1000    complex shift for real part using Kramers Kronig
   OMEGAMAX=  -1.0    maximum frequency
   DEG_THRESHOLD= 0.2000000E-02 threshold for treating states as degnerate
   RTIME   =   -0.100 relaxation time in fs
  (WPLASMAI=    0.000 imaginary part of plasma frequency in eV, 0.658/RTIME)
   DFIELD  = 0.0000000 0.0000000 0.0000000 field for delta impulse in time

  Optional k-point grid parameters
   LKPOINTS_OPT  =     F    use optional k-point grid
   KPOINTS_OPT_MODE=     1    mode for optional k-point grid

 Orbital magnetization related:
   ORBITALMAG=     F  switch on orbital magnetization
   LCHIMAG   =     F  perturbation theory with respect to B field
   DQ        =  0.001000  dq finite difference perturbation B field
   LLRAUG    =     F  two centre corrections for induced B field



--------------------------------------------------------------------------------------------------------


 Static calculation
 charge density and potential will be updated during run
 non-spin polarized calculation
 Conjugate gradient for all bands (Freysoldt, et al. PRB 79, 241103 (2009))
 preconditioned conjugated gradient                                        
 perform sub-space diagonalisation
    before iterative eigenvector-optimisation
 modified Broyden-mixing scheme, WC =      100.0
 initial mixing is a Kerker type mixing with AMIX =  0.4000 and BMIX =      1.0000
 Hartree-type preconditioning will be used
 using additional bands          245
 real space projection scheme for non local part
 use partial core corrections
 no Harris-corrections to forces 
 use gradient corrections 
 use of overlap-Matrix (Vanderbilt PP)
 Gauss-broadening in eV      SIGMA  =   0.05


--------------------------------------------------------------------------------------------------------


  energy-cutoff  :      520.00
  volume of cell :     9881.61
      direct lattice vectors                 reciprocal lattice vectors
    21.138852197  0.000000000  0.000000000     0.047306258  0.000000000  0.000000000
     0.000000000 21.138852197  0.000000000     0.000000000  0.047306258  0.000000000
     0.000000000  0.000000000 22.113885220     0.000000000  0.000000000  0.045220457

  length of vectors
    21.138852197 21.138852197 22.113885220     0.047306258  0.047306258  0.045220457



 k-points in units of 2pi/SCALE and weight: KPOINTS created by Atomic Simulation Env
   0.00000000  0.00000000  0.00000000       1.000

 k-points in reciprocal lattice and weights: KPOINTS created by Atomic Simulation Env
   0.00000000  0.00000000  0.00000000       1.000

 position of ions in fractional coordinates (direct lattice) 
   0.48723388  0.41276612  0.63389023
   0.41276609  0.48723391  0.63389023

 position of ions in cartesian coordinates  (Angst):
  10.29956507  8.72540203 14.01777580
   8.72540140 10.29956571 14.01777580



--------------------------------------------------------------------------------------------------------


 k-point   1 :   0.0000 0.0000 0.0000  plane waves:  265979

 maximum and minimum number of plane-waves per node :     66495    66494

 maximum number of plane-waves:    265979
 maximum index in each direction: 
   IXMAX=   39   IYMAX=   39   IZMAX=   41
   IXMIN=  -39   IYMIN=  -39   IZMIN=  -41


 real space projection operators:
  total allocation   :       1802.25 KBytes
  max/ min on nodes  :        457.31        443.81


 parallel 3D FFT for wavefunctions:
    minimum data exchange during FFTs selected (reduces bandwidth)
 parallel 3D FFT for charge:
    minimum data exchange during FFTs selected (reduces bandwidth)


 total amount of memory used by VASP MPI-rank0   117476. kBytes
=======================================================================

   base      :      30000. kBytes
   nonlr-proj:        786. kBytes
   fftplans  :      35177. kBytes
   grid      :      48291. kBytes
   one-center:         15. kBytes
   wavefun   :       3207. kBytes

     INWAV:  cpu time      0.0001: real time      0.0003
 Broyden mixing: mesh for mixing (old mesh)
   NGX = 79   NGY = 79   NGZ = 83
  (NGX  =320   NGY  =320   NGZ  =336)
  gives a total of 518003 points

 initial charge density was supplied:
 charge density of overlapping atoms calculated
 number of electron      22.0000000 magnetization 
 keeping initial charge density in first step


--------------------------------------------------------------------------------------------------------


 Maximum index for non-local projection operator         1626
 Maximum index for augmentation-charges            0 (set IRDMAX)


--------------------------------------------------------------------------------------------------------


 First call to EWALD:  gamma=   0.083
 Maximum number of real-space cells 3x 3x 3
 Maximum number of reciprocal cells 3x 3x 3

    FEWALD:  cpu time      0.0010: real time      0.0010


--------------------------------------- Iteration      1(   1)  ---------------------------------------


    POTLOK:  cpu time      0.1915: real time      0.1922
    SETDIJ:  cpu time      0.1197: real time      0.1199
    TRIAL :  cpu time      2.7975: real time      2.7981
    CORREC:  cpu time      0.0017: real time      0.0017
    --------------------------------------------
      LOOP:  cpu time      3.1123: real time      3.1138

 eigenvalue-minimisations  :   512
 total energy-change (2. order) : 0.1054439E+03  (-0.5610791E+03)
 number of electron      22.0000000 magnetization 
 augmentation part       22.0000000 magnetization 

 DIPCOR: dipole corrections for dipol
 direction  3 min pos     1,
 dipolmoment           0.000000      0.000000     -0.000046 electrons x Angstroem
 Tr[quadrupol]     -4008.098173

 energy correction for charged system         0.000000 eV
 dipol+quadrupol energy correction           -0.000000 eV
 added-field ion interaction          0.000059 eV  (added to PSCEN)


 Free energy of the ion-electron system (eV)
  ---------------------------------------------------
  alpha Z        PSCENC =         0.29609510
  Ewald energy   TEWEN  =       324.17739724
  -Hartree energ DENC   =     -2866.31557744
  -exchange      EXHF   =         0.00000000
  -V(xc)+E(xc)   XCENC  =        88.15741784
  PAW double counting   =      2456.41331976    -2668.09693425
  entropy T*S    EENTRO =        -0.02453693
  eigenvalues    EBANDS =       -11.11734977
  atomic energy  EATOM  =      2781.95410799
  ---------------------------------------------------
  free energy    TOTEN  =       105.44393952 eV

  energy without entropy =      105.46847646  energy(sigma->0) =      105.45620799


--------------------------------------------------------------------------------------------------------




--------------------------------------- Iteration      1(   2)  ---------------------------------------


    TRIAL :  cpu time      3.0152: real time      3.0162
    CORREC:  cpu time      0.0003: real time      0.0003
    --------------------------------------------
      LOOP:  cpu time      3.0221: real time      3.0360

 eigenvalue-minimisations  :   512
 total energy-change (2. order) :-0.1080270E+03  (-0.1077495E+03)
 number of electron      22.0000000 magnetization 
 augmentation part       22.0000000 magnetization 

 DIPCOR: dipole corrections for dipol
 direction  3 min pos     1,
 dipolmoment           0.000000      0.000000     -0.000046 electrons x Angstroem
 Tr[quadrupol]     -4008.098173

 energy correction for charged system         0.000000 eV
 dipol+quadrupol energy correction           -0.000000 eV
 added-field ion interaction          0.000059 eV  (added to PSCEN)


 Free energy of the ion-electron system (eV)
  ---------------------------------------------------
  alpha Z        PSCENC =         0.29609510
  Ewald energy   TEWEN  =       324.17739724
  -Hartree energ DENC   =     -2866.31557744
  -exchange      EXHF   =         0.00000000
  -V(xc)+E(xc)   XCENC  =        88.15741784
  PAW double counting   =      2456.41331976    -2668.09693425
  entropy T*S    EENTRO =        -0.00000000
  eigenvalues    EBANDS =      -119.16883957
  atomic energy  EATOM  =      2781.95410799
  ---------------------------------------------------
  free energy    TOTEN  =        -2.58301335 eV

  energy without entropy =       -2.58301335  energy(sigma->0) =       -2.58301335


--------------------------------------------------------------------------------------------------------




--------------------------------------- Iteration      1(   3)  ---------------------------------------


    TRIAL :  cpu time      2.9870: real time      2.9877
    CORREC:  cpu time      0.0004: real time      0.0004
    --------------------------------------------
      LOOP:  cpu time      2.9923: real time      3.0075

 eigenvalue-minimisations  :   512
 total energy-change (2. order) :-0.6233922E+00  (-0.6233922E+00)
 number of electron      22.0000000 magnetization 
 augmentation part       22.0000000 magnetization 

 DIPCOR: dipole corrections for dipol
 direction  3 min pos     1,
 dipolmoment           0.000000      0.000000     -0.000046 electrons x Angstroem
 Tr[quadrupol]     -4008.098173

 energy correction for charged system         0.000000 eV
 dipol+quadrupol energy correction           -0.000000 eV
 added-field ion interaction          0.000059 eV  (added to PSCEN)


 Free energy of the ion-electron system (eV)
  ---------------------------------------------------
  alpha Z        PSCENC =         0.29609510
  Ewald energy   TEWEN  =       324.17739724
  -Hartree energ DENC   =     -2866.31557744
  -exchange      EXHF   =         0.00000000
  -V(xc)+E(xc)   XCENC  =        88.15741784
  PAW double counting   =      2456.41331976    -2668.09693425
  entropy T*S    EENTRO =        -0.00000000
  eigenvalues    EBANDS =      -119.79223177
  atomic energy  EATOM  =      2781.95410799
  ---------------------------------------------------
  free energy    TOTEN  =        -3.20640554 eV

  energy without entropy =       -3.20640554  energy(sigma->0) =       -3.20640554


--------------------------------------------------------------------------------------------------------




--------------------------------------- Iteration      1(   4)  ---------------------------------------


    TRIAL :  cpu time      2.9662: real time      2.9670
    CORREC:  cpu time      0.0003: real time      0.0003
    --------------------------------------------
      LOOP:  cpu time      2.9811: real time      2.9823

 eigenvalue-minimisations  :   512
 total energy-change (2. order) :-0.4103992E-02  (-0.4103993E-02)
 number of electron      22.0000000 magnetization 
 augmentation part       22.0000000 magnetization 

 DIPCOR: dipole corrections for dipol
 direction  3 min pos     1,
 dipolmoment           0.000000      0.000000     -0.000046 electrons x Angstroem
 Tr[quadrupol]     -4008.098173

 energy correction for charged system         0.000000 eV
 dipol+quadrupol energy correction           -0.000000 eV
 added-field ion interaction          0.000059 eV  (added to PSCEN)


 Free energy of the ion-electron system (eV)
  ---------------------------------------------------
  alpha Z        PSCENC =         0.29609510
  Ewald energy   TEWEN  =       324.17739724
  -Hartree energ DENC   =     -2866.31557744
  -exchange      EXHF   =         0.00000000
  -V(xc)+E(xc)   XCENC  =        88.15741784
  PAW double counting   =      2456.41331976    -2668.09693425
  entropy T*S    EENTRO =        -0.00000000
  eigenvalues    EBANDS =      -119.79633576
  atomic energy  EATOM  =      2781.95410799
  ---------------------------------------------------
  free energy    TOTEN  =        -3.21050953 eV

  energy without entropy =       -3.21050953  energy(sigma->0) =       -3.21050953


--------------------------------------------------------------------------------------------------------




--------------------------------------- Iteration      1(   5)  ---------------------------------------


    TRIAL :  cpu time     15.7567: real time     15.7611
    CORREC:  cpu time      0.0004: real time      0.0004
    CHARGE:  cpu time      0.6050: real time      0.6054
    --------------------------------------------
      LOOP:  cpu time     16.3668: real time     16.3825

 eigenvalue-minimisations  :  1024
 total energy-change (2. order) :-0.4079092E-04  (-0.4079062E-04)
 number of electron      22.0000061 magnetization 
 augmentation part       14.0597181 magnetization 

 DIPCOR: dipole corrections for dipol
 direction  3 min pos     1,
 dipolmoment           0.000000      0.000000     -0.000046 electrons x Angstroem
 Tr[quadrupol]     -4008.098173

 energy correction for charged system         0.000000 eV
 dipol+quadrupol energy correction           -0.000000 eV
 added-field ion interaction          0.000059 eV  (added to PSCEN)


 Free energy of the ion-electron system (eV)
  ---------------------------------------------------
  alpha Z        PSCENC =         0.29609510
  Ewald energy   TEWEN  =       324.17739724
  -Hartree energ DENC   =     -2866.31557744
  -exchange      EXHF   =         0.00000000
  -V(xc)+E(xc)   XCENC  =        88.15741784
  PAW double counting   =      2456.41331976    -2668.09693425
  entropy T*S    EENTRO =        -0.00000000
  eigenvalues    EBANDS =      -119.79637655
  atomic energy  EATOM  =      2781.95410799
  ---------------------------------------------------
  free energy    TOTEN  =        -3.21055032 eV

  energy without entropy =       -3.21055032  energy(sigma->0) =       -3.21055032


--------------------------------------------------------------------------------------------------------




--------------------------------------- Iteration      1(   6)  ---------------------------------------


    POTLOK:  cpu time      0.1349: real time      0.1353
    SETDIJ:  cpu time      0.1155: real time      0.1155
    TRIAL :  cpu time     26.1495: real time     26.1639
    CORREC:  cpu time      0.9792: real time      0.9805
    CHARGE:  cpu time      0.4533: real time      0.4533
    --------------------------------------------
      LOOP:  cpu time     27.8519: real time     27.8683

 eigenvalue-minimisations  :     0
 total energy-change (2. order) : 0.1109604E+01  (-0.3382912E+00)
 number of electron      22.0000062 magnetization 
 augmentation part       14.2836399 magnetization 

 DIPCOR: dipole corrections for dipol
 direction  3 min pos     1,
 dipolmoment           0.000000      0.000000     -0.002243 electrons x Angstroem
 Tr[quadrupol]     -4008.249263

 energy correction for charged system         0.000000 eV
 dipol+quadrupol energy correction           -0.000000 eV
 added-field ion interaction          0.002892 eV  (added to PSCEN)


 Free energy of the ion-electron system (eV)
  ---------------------------------------------------
  alpha Z        PSCENC =         0.29601371
  Ewald energy   TEWEN  =       324.17739724
  -Hartree energ DENC   =     -2857.85063886
  -exchange      EXHF   =         0.00000000
  -V(xc)+E(xc)   XCENC  =        86.97935662
  PAW double counting   =      2523.31364633    -2730.60149302
  entropy T*S    EENTRO =        -0.00000000
  eigenvalues    EBANDS =      -130.36933591
  atomic energy  EATOM  =      2781.95410799
  ---------------------------------------------------
  free energy    TOTEN  =        -2.10094591 eV

  energy without entropy =       -2.10094591  energy(sigma->0) =       -2.10094591


--------------------------------------------------------------------------------------------------------




--------------------------------------- Iteration      1(   7)  ---------------------------------------


    POTLOK:  cpu time      0.1354: real time      0.1354
    SETDIJ:  cpu time      0.1076: real time      0.1077
    TRIAL :  cpu time      0.3542: real time      0.3542
    CORREC:  cpu time      0.8652: real time      0.8654
    CHARGE:  cpu time      0.4559: real time      0.4559
    --------------------------------------------
      LOOP:  cpu time      1.9244: real time      1.9376

 eigenvalue-minimisations  :     0
 total energy-change (2. order) :-0.3263764E+00  (-0.2449951E+00)
 number of electron      22.0000062 magnetization 
 augmentation part       14.2349616 magnetization 

 DIPCOR: dipole corrections for dipol
 direction  3 min pos     1,
 dipolmoment           0.000000      0.000000     -0.000882 electrons x Angstroem
 Tr[quadrupol]     -4008.065043

 energy correction for charged system         0.000000 eV
 dipol+quadrupol energy correction           -0.000000 eV
 added-field ion interaction          0.001137 eV  (added to PSCEN)


 Free energy of the ion-electron system (eV)
  ---------------------------------------------------
  alpha Z        PSCENC =         0.29637464
  Ewald energy   TEWEN  =       324.17739724
  -Hartree energ DENC   =     -2883.67414541
  -exchange      EXHF   =         0.00000000
  -V(xc)+E(xc)   XCENC  =        88.14285838
  PAW double counting   =      2537.89425956    -2753.69686473
  entropy T*S    EENTRO =        -0.00000000
  eigenvalues    EBANDS =       -97.52130994
  atomic energy  EATOM  =      2781.95410799
  ---------------------------------------------------
  free energy    TOTEN  =        -2.42732228 eV

  energy without entropy =       -2.42732228  energy(sigma->0) =       -2.42732228


--------------------------------------------------------------------------------------------------------




--------------------------------------- Iteration      1(   8)  ---------------------------------------


    POTLOK:  cpu time      0.1356: real time      0.1356
    SETDIJ:  cpu time      0.1107: real time      0.1108
    TRIAL :  cpu time      0.3498: real time      0.3499
    CORREC:  cpu time      0.8691: real time      0.8692
    CHARGE:  cpu time      0.4549: real time      0.4550
    --------------------------------------------
      LOOP:  cpu time      1.9371: real time      1.9378

 eigenvalue-minimisations  :     0
 total energy-change (2. order) :-0.2441218E+00  (-0.4392255E-01)
 number of electron      22.0000062 magnetization 
 augmentation part       14.2868581 magnetization 

 DIPCOR: dipole corrections for dipol
 direction  3 min pos     1,
 dipolmoment           0.000000      0.000000     -0.000634 electrons x Angstroem
 Tr[quadrupol]     -4008.095579

 energy correction for charged system         0.000000 eV
 dipol+quadrupol energy correction           -0.000000 eV
 added-field ion interaction          0.000817 eV  (added to PSCEN)


 Free energy of the ion-electron system (eV)
  ---------------------------------------------------
  alpha Z        PSCENC =         0.29760761
  Ewald energy   TEWEN  =       324.17739724
  -Hartree energ DENC   =     -2867.29655222
  -exchange      EXHF   =         0.00000000
  -V(xc)+E(xc)   XCENC  =        87.71125617
  PAW double counting   =      2524.87089800    -2737.62113812
  entropy T*S    EENTRO =        -0.00000000
  eigenvalues    EBANDS =      -116.76502071
  atomic energy  EATOM  =      2781.95410799
  ---------------------------------------------------
  free energy    TOTEN  =        -2.67144405 eV

  energy without entropy =       -2.67144405  energy(sigma->0) =       -2.67144405


--------------------------------------------------------------------------------------------------------




--------------------------------------- Iteration      1(   9)  ---------------------------------------


    POTLOK:  cpu time      0.1355: real time      0.1355
    SETDIJ:  cpu time      0.1068: real time      0.1068
    TRIAL :  cpu time      0.3465: real time      0.3468
    CORREC:  cpu time      0.8643: real time      0.8646
    CHARGE:  cpu time      0.4571: real time      0.4571
    --------------------------------------------
      LOOP:  cpu time      1.9165: real time      1.9286

 eigenvalue-minimisations  :     0
 total energy-change (2. order) :-0.4403169E-01  (-0.1699254E-01)
 number of electron      22.0000062 magnetization 
 augmentation part       14.2493628 magnetization 

 DIPCOR: dipole corrections for dipol
 direction  3 min pos     1,
 dipolmoment           0.000000      0.000000     -0.000038 electrons x Angstroem
 Tr[quadrupol]     -4008.096978

 energy correction for charged system         0.000000 eV
 dipol+quadrupol energy correction           -0.000000 eV
 added-field ion interaction          0.000049 eV  (added to PSCEN)


 Free energy of the ion-electron system (eV)
  ---------------------------------------------------
  alpha Z        PSCENC =         0.29674588
  Ewald energy   TEWEN  =       324.17739724
  -Hartree energ DENC   =     -2874.27148544
  -exchange      EXHF   =         0.00000000
  -V(xc)+E(xc)   XCENC  =        88.00813481
  PAW double counting   =      2531.10325565    -2745.62244910
  entropy T*S    EENTRO =        -0.00000000
  eigenvalues    EBANDS =      -108.36118277
  atomic energy  EATOM  =      2781.95410799
  ---------------------------------------------------
  free energy    TOTEN  =        -2.71547574 eV

  energy without entropy =       -2.71547574  energy(sigma->0) =       -2.71547574


--------------------------------------------------------------------------------------------------------




--------------------------------------- Iteration      1(  10)  ---------------------------------------


    POTLOK:  cpu time      0.1409: real time      0.1409
    SETDIJ:  cpu time      0.1074: real time      0.1074
    TRIAL :  cpu time      0.3495: real time      0.3498
    CORREC:  cpu time      0.8641: real time      0.8643
    CHARGE:  cpu time      0.4560: real time      0.4560
    --------------------------------------------
      LOOP:  cpu time      1.9278: real time      1.9389

 eigenvalue-minimisations  :     0
 total energy-change (2. order) :-0.1694676E-01  (-0.1233875E-01)
 number of electron      22.0000062 magnetization 
 augmentation part       14.2690087 magnetization 

 DIPCOR: dipole corrections for dipol
 direction  3 min pos     1,
 dipolmoment           0.000000      0.000000     -0.000013 electrons x Angstroem
 Tr[quadrupol]     -4008.110203

 energy correction for charged system         0.000000 eV
 dipol+quadrupol energy correction           -0.000000 eV
 added-field ion interaction          0.000017 eV  (added to PSCEN)


 Free energy of the ion-electron system (eV)
  ---------------------------------------------------
  alpha Z        PSCENC =         0.29625581
  Ewald energy   TEWEN  =       324.17739724
  -Hartree energ DENC   =     -2869.42924277
  -exchange      EXHF   =         0.00000000
  -V(xc)+E(xc)   XCENC  =        87.80591515
  PAW double counting   =      2528.85874186    -2741.70454665
  entropy T*S    EENTRO =        -0.00000000
  eigenvalues    EBANDS =      -114.69105112
  atomic energy  EATOM  =      2781.95410799
  ---------------------------------------------------
  free energy    TOTEN  =        -2.73242250 eV

  energy without entropy =       -2.73242250  energy(sigma->0) =       -2.73242250


--------------------------------------------------------------------------------------------------------




--------------------------------------- Iteration      1(  11)  ---------------------------------------


    POTLOK:  cpu time      0.1370: real time      0.1370
    SETDIJ:  cpu time      0.1113: real time      0.1113
    TRIAL :  cpu time      0.3457: real time      0.3459
    CORREC:  cpu time      0.8630: real time      0.8632
    CHARGE:  cpu time      0.4581: real time      0.4582
    --------------------------------------------
      LOOP:  cpu time      1.9216: real time      1.9329

 eigenvalue-minimisations  :     0
 total energy-change (2. order) :-0.1240675E-01  (-0.1204753E-02)
 number of electron      22.0000062 magnetization 
 augmentation part       14.2583986 magnetization 

 DIPCOR: dipole corrections for dipol
 direction  3 min pos     1,
 dipolmoment           0.000000      0.000000      0.000015 electrons x Angstroem
 Tr[quadrupol]     -4008.106654

 energy correction for charged system         0.000000 eV
 dipol+quadrupol energy correction           -0.000000 eV
 added-field ion interaction         -0.000019 eV  (added to PSCEN)


 Free energy of the ion-electron system (eV)
  ---------------------------------------------------
  alpha Z        PSCENC =         0.29602225
  Ewald energy   TEWEN  =       324.17739724
  -Hartree energ DENC   =     -2871.43204487
  -exchange      EXHF   =         0.00000000
  -V(xc)+E(xc)   XCENC  =        87.90100210
  PAW double counting   =      2529.51265306    -2742.84995581
  entropy T*S    EENTRO =        -0.00000000
  eigenvalues    EBANDS =      -112.30401120
  atomic energy  EATOM  =      2781.95410799
  ---------------------------------------------------
  free energy    TOTEN  =        -2.74482925 eV

  energy without entropy =       -2.74482925  energy(sigma->0) =       -2.74482925


--------------------------------------------------------------------------------------------------------




--------------------------------------- Iteration      1(  12)  ---------------------------------------


    POTLOK:  cpu time      0.1389: real time      0.1389
    SETDIJ:  cpu time      0.1031: real time      0.1031
    TRIAL :  cpu time      0.3466: real time      0.3471
    CORREC:  cpu time      0.8535: real time      0.8535
    CHARGE:  cpu time      0.4546: real time      0.4548
    --------------------------------------------
      LOOP:  cpu time      1.9044: real time      1.9141

 eigenvalue-minimisations  :     0
 total energy-change (2. order) :-0.1204928E-02  (-0.1261092E-02)
 number of electron      22.0000062 magnetization 
 augmentation part       14.2666612 magnetization 

 DIPCOR: dipole corrections for dipol
 direction  3 min pos     1,
 dipolmoment           0.000000      0.000000      0.000017 electrons x Angstroem
 Tr[quadrupol]     -4008.109759

 energy correction for charged system         0.000000 eV
 dipol+quadrupol energy correction           -0.000000 eV
 added-field ion interaction         -0.000022 eV  (added to PSCEN)


 Free energy of the ion-electron system (eV)
  ---------------------------------------------------
  alpha Z        PSCENC =         0.29601683
  Ewald energy   TEWEN  =       324.17739724
  -Hartree energ DENC   =     -2869.76732341
  -exchange      EXHF   =         0.00000000
  -V(xc)+E(xc)   XCENC  =        87.83501560
  PAW double counting   =      2528.26408369    -2741.13911563
  entropy T*S    EENTRO =        -0.00000000
  eigenvalues    EBANDS =      -114.36621648
  atomic energy  EATOM  =      2781.95410799
  ---------------------------------------------------
  free energy    TOTEN  =        -2.74603418 eV

  energy without entropy =       -2.74603418  energy(sigma->0) =       -2.74603418


--------------------------------------------------------------------------------------------------------




--------------------------------------- Iteration      1(  13)  ---------------------------------------


    POTLOK:  cpu time      0.1288: real time      0.1288
    SETDIJ:  cpu time      0.1141: real time      0.1141
    TRIAL :  cpu time      0.3456: real time      0.3456
    CORREC:  cpu time      0.8583: real time      0.8586
    CHARGE:  cpu time      0.4550: real time      0.4551
    --------------------------------------------
      LOOP:  cpu time      1.9092: real time      1.9217

 eigenvalue-minimisations  :     0
 total energy-change (2. order) :-0.1261625E-02  (-0.1757071E-03)
 number of electron      22.0000062 magnetization 
 augmentation part       14.2644325 magnetization 

 DIPCOR: dipole corrections for dipol
 direction  3 min pos     1,
 dipolmoment           0.000000      0.000000      0.000017 electrons x Angstroem
 Tr[quadrupol]     -4008.109363

 energy correction for charged system         0.000000 eV
 dipol+quadrupol energy correction           -0.000000 eV
 added-field ion interaction         -0.000022 eV  (added to PSCEN)


 Free energy of the ion-electron system (eV)
  ---------------------------------------------------
  alpha Z        PSCENC =         0.29601433
  Ewald energy   TEWEN  =       324.17739724
  -Hartree energ DENC   =     -2870.46285395
  -exchange      EXHF   =         0.00000000
  -V(xc)+E(xc)   XCENC  =        87.86868595
  PAW double counting   =      2528.38333455    -2741.54122803
  entropy T*S    EENTRO =        -0.00000000
  eigenvalues    EBANDS =      -113.42275387
  atomic energy  EATOM  =      2781.95410799
  ---------------------------------------------------
  free energy    TOTEN  =        -2.74729580 eV

  energy without entropy =       -2.74729580  energy(sigma->0) =       -2.74729580


--------------------------------------------------------------------------------------------------------




--------------------------------------- Iteration      1(  14)  ---------------------------------------


    POTLOK:  cpu time      0.1334: real time      0.1335
    SETDIJ:  cpu time      0.1200: real time      0.1200
    TRIAL :  cpu time      0.3456: real time      0.3456
    CORREC:  cpu time      0.8652: real time      0.8654
    CHARGE:  cpu time      0.4628: real time      0.4630
    --------------------------------------------
      LOOP:  cpu time      1.9412: real time      1.9421

 eigenvalue-minimisations  :     0
 total energy-change (2. order) :-0.1757650E-03  (-0.4038083E-04)
 number of electron      22.0000062 magnetization 
 augmentation part       14.2665683 magnetization 

 DIPCOR: dipole corrections for dipol
 direction  3 min pos     1,
 dipolmoment           0.000000      0.000000      0.000017 electrons x Angstroem
 Tr[quadrupol]     -4008.110993

 energy correction for charged system         0.000000 eV
 dipol+quadrupol energy correction           -0.000000 eV
 added-field ion interaction         -0.000022 eV  (added to PSCEN)


 Free energy of the ion-electron system (eV)
  ---------------------------------------------------
  alpha Z        PSCENC =         0.29601365
  Ewald energy   TEWEN  =       324.17739724
  -Hartree energ DENC   =     -2870.18633471
  -exchange      EXHF   =         0.00000000
  -V(xc)+E(xc)   XCENC  =        87.85633294
  PAW double counting   =      2528.24662885    -2741.31372242
  entropy T*S    EENTRO =        -0.00000000
  eigenvalues    EBANDS =      -113.77789510
  atomic energy  EATOM  =      2781.95410799
  ---------------------------------------------------
  free energy    TOTEN  =        -2.74747157 eV

  energy without entropy =       -2.74747157  energy(sigma->0) =       -2.74747157


--------------------------------------------------------------------------------------------------------




--------------------------------------- Iteration      1(  15)  ---------------------------------------


    POTLOK:  cpu time      0.1303: real time      0.1303
    SETDIJ:  cpu time      0.1079: real time      0.1079
    TRIAL :  cpu time      0.3461: real time      0.3461
    CORREC:  cpu time      0.8552: real time      0.8554
    CHARGE:  cpu time      0.4596: real time      0.4597
    --------------------------------------------
      LOOP:  cpu time      1.9164: real time      1.9171

 eigenvalue-minimisations  :     0
 total energy-change (2. order) :-0.4033235E-04  (-0.2704030E-04)
 number of electron      22.0000062 magnetization 
 augmentation part       14.2658992 magnetization 

 DIPCOR: dipole corrections for dipol
 direction  3 min pos     1,
 dipolmoment           0.000000      0.000000      0.000017 electrons x Angstroem
 Tr[quadrupol]     -4008.110042

 energy correction for charged system         0.000000 eV
 dipol+quadrupol energy correction           -0.000000 eV
 added-field ion interaction         -0.000022 eV  (added to PSCEN)


 Free energy of the ion-electron system (eV)
  ---------------------------------------------------
  alpha Z        PSCENC =         0.29601368
  Ewald energy   TEWEN  =       324.17739724
  -Hartree energ DENC   =     -2870.48358187
  -exchange      EXHF   =         0.00000000
  -V(xc)+E(xc)   XCENC  =        87.86847743
  PAW double counting   =      2528.45514497    -2741.60562784
  entropy T*S    EENTRO =        -0.00000000
  eigenvalues    EBANDS =      -113.40944349
  atomic energy  EATOM  =      2781.95410799
  ---------------------------------------------------
  free energy    TOTEN  =        -2.74751190 eV

  energy without entropy =       -2.74751190  energy(sigma->0) =       -2.74751190


--------------------------------------------------------------------------------------------------------




--------------------------------------- Iteration      1(  16)  ---------------------------------------


    POTLOK:  cpu time      0.1351: real time      0.1351
    SETDIJ:  cpu time      0.1085: real time      0.1085
    TRIAL :  cpu time      0.3429: real time      0.3429
    CORREC:  cpu time      0.8566: real time      0.8568
    CHARGE:  cpu time      0.4499: real time      0.4501
    --------------------------------------------
      LOOP:  cpu time      1.8983: real time      1.9114

 eigenvalue-minimisations  :     0
 total energy-change (2. order) :-0.2708729E-04  (-0.3603430E-05)
 number of electron      22.0000062 magnetization 
 augmentation part       14.2663274 magnetization 

 DIPCOR: dipole corrections for dipol
 direction  3 min pos     1,
 dipolmoment           0.000000      0.000000      0.000017 electrons x Angstroem
 Tr[quadrupol]     -4008.110010

 energy correction for charged system         0.000000 eV
 dipol+quadrupol energy correction           -0.000000 eV
 added-field ion interaction         -0.000022 eV  (added to PSCEN)


 Free energy of the ion-electron system (eV)
  ---------------------------------------------------
  alpha Z        PSCENC =         0.29601363
  Ewald energy   TEWEN  =       324.17739724
  -Hartree energ DENC   =     -2870.40691806
  -exchange      EXHF   =         0.00000000
  -V(xc)+E(xc)   XCENC  =        87.86531382
  PAW double counting   =      2528.44195805    -2741.56217441
  entropy T*S    EENTRO =        -0.00000000
  eigenvalues    EBANDS =      -113.51323723
  atomic energy  EATOM  =      2781.95410799
  ---------------------------------------------------
  free energy    TOTEN  =        -2.74753899 eV

  energy without entropy =       -2.74753899  energy(sigma->0) =       -2.74753899


--------------------------------------------------------------------------------------------------------




--------------------------------------- Iteration      1(  17)  ---------------------------------------


    POTLOK:  cpu time      0.1313: real time      0.1313
    SETDIJ:  cpu time      0.1160: real time      0.1160
    TRIAL :  cpu time      0.3412: real time      0.3412
    CORREC:  cpu time      0.8451: real time      0.8464
    CHARGE:  cpu time      0.4554: real time      0.4555
    --------------------------------------------
      LOOP:  cpu time      1.9041: real time      1.9058

 eigenvalue-minimisations  :     0
 total energy-change (2. order) :-0.3594225E-05  (-0.1392691E-05)
 number of electron      22.0000062 magnetization 
 augmentation part       14.2659628 magnetization 

 DIPCOR: dipole corrections for dipol
 direction  3 min pos     1,
 dipolmoment           0.000000      0.000000      0.000017 electrons x Angstroem
 Tr[quadrupol]     -4008.109615

 energy correction for charged system         0.000000 eV
 dipol+quadrupol energy correction           -0.000000 eV
 added-field ion interaction         -0.000022 eV  (added to PSCEN)


 Free energy of the ion-electron system (eV)
  ---------------------------------------------------
  alpha Z        PSCENC =         0.29601358
  Ewald energy   TEWEN  =       324.17739724
  -Hartree energ DENC   =     -2870.46437407
  -exchange      EXHF   =         0.00000000
  -V(xc)+E(xc)   XCENC  =        87.86762774
  PAW double counting   =      2528.48174785    -2741.62020507
  entropy T*S    EENTRO =        -0.00000000
  eigenvalues    EBANDS =      -113.43985784
  atomic energy  EATOM  =      2781.95410799
  ---------------------------------------------------
  free energy    TOTEN  =        -2.74754258 eV

  energy without entropy =       -2.74754258  energy(sigma->0) =       -2.74754258


--------------------------------------------------------------------------------------------------------




--------------------------------------- Iteration      1(  18)  ---------------------------------------


    POTLOK:  cpu time      0.1328: real time      0.1328
    SETDIJ:  cpu time      0.1210: real time      0.1210
    TRIAL :  cpu time      0.3433: real time      0.3433
    CORREC:  cpu time      0.8579: real time      0.8581
    CHARGE:  cpu time      0.4538: real time      0.4538
    --------------------------------------------
      LOOP:  cpu time      1.9160: real time      1.9266

 eigenvalue-minimisations  :     0
 total energy-change (2. order) :-0.1401408E-05  (-0.4948826E-06)
 number of electron      22.0000062 magnetization 
 augmentation part       14.2660334 magnetization 

 DIPCOR: dipole corrections for dipol
 direction  3 min pos     1,
 dipolmoment           0.000000      0.000000      0.000017 electrons x Angstroem
 Tr[quadrupol]     -4008.109723

 energy correction for charged system         0.000000 eV
 dipol+quadrupol energy correction           -0.000000 eV
 added-field ion interaction         -0.000022 eV  (added to PSCEN)


 Free energy of the ion-electron system (eV)
  ---------------------------------------------------
  alpha Z        PSCENC =         0.29601356
  Ewald energy   TEWEN  =       324.17739724
  -Hartree energ DENC   =     -2870.41338586
  -exchange      EXHF   =         0.00000000
  -V(xc)+E(xc)   XCENC  =        87.86551510
  PAW double counting   =      2528.44841143    -2741.57318864
  entropy T*S    EENTRO =        -0.00000000
  eigenvalues    EBANDS =      -113.50241480
  atomic energy  EATOM  =      2781.95410799
  ---------------------------------------------------
  free energy    TOTEN  =        -2.74754398 eV

  energy without entropy =       -2.74754398  energy(sigma->0) =       -2.74754398


--------------------------------------------------------------------------------------------------------




--------------------------------------- Iteration      1(  19)  ---------------------------------------


    POTLOK:  cpu time      0.1356: real time      0.1357
    SETDIJ:  cpu time      0.1069: real time      0.1069
    TRIAL :  cpu time      0.3426: real time      0.3426
    CORREC:  cpu time      0.8576: real time      0.8578
    EDDIAG:  cpu time      0.1637: real time      0.1637
    CHARGE:  cpu time      0.4564: real time      0.4565
    --------------------------------------------
      LOOP:  cpu time      2.0791: real time      2.0799

 eigenvalue-minimisations  :     0
 total energy-change (2. order) :-0.4957810E-06  (-0.1323607E-06)
 number of electron      22.0000062 magnetization 
 augmentation part       14.2659343 magnetization 

 DIPCOR: dipole corrections for dipol
 direction  3 min pos     1,
 dipolmoment           0.000000      0.000000      0.000017 electrons x Angstroem
 Tr[quadrupol]     -4008.109671

 energy correction for charged system         0.000000 eV
 dipol+quadrupol energy correction           -0.000000 eV
 added-field ion interaction         -0.000022 eV  (added to PSCEN)


 Free energy of the ion-electron system (eV)
  ---------------------------------------------------
  alpha Z        PSCENC =         0.29601356
  Ewald energy   TEWEN  =       324.17739724
  -Hartree energ DENC   =     -2870.41679541
  -exchange      EXHF   =         0.00000000
  -V(xc)+E(xc)   XCENC  =        87.86577816
  PAW double counting   =      2528.44496238    -2741.57294510
  entropy T*S    EENTRO =        -0.00000000
  eigenvalues    EBANDS =      -113.49606329
  atomic energy  EATOM  =      2781.95410799
  ---------------------------------------------------
  free energy    TOTEN  =        -2.74754448 eV

  energy without entropy =       -2.74754448  energy(sigma->0) =       -2.74754448


--------------------------------------------------------------------------------------------------------


  average scaling for gradient   1.0870


 average (electrostatic) potential at core
  the test charge radii are     0.9430
  (the norm of the test charge is              1.0000)
       1 -73.6143       2 -73.6144



 E-fermi :  -4.3926     XC(G=0):  -0.1399     alpha+bet : -0.0321

 Fermi energy:        -4.3925935731

 k-point     1 :       0.0000    0.0000    0.0000
  band No.  band energies     occupation 
      1      -6.4419      2.00000
      2      -5.6156      2.00000
      3      -5.6155      2.00000
      4      -5.1555      2.00000
      5      -5.0848      2.00000
      6      -5.0848      2.00000
      7      -4.8583      2.00000
      8      -4.8583      2.00000
      9      -4.6881      2.00000
     10      -4.6880      2.00000
     11      -4.6608      2.00000
     12      -3.1323      0.00000
     13      -1.1301      0.00000
     14      -1.1299      0.00000
     15      -0.5859      0.00000
     16       0.0340      0.00000
     17       0.2898      0.00000
     18       0.2898      0.00000
     19       0.3203      0.00000
     20       0.3254      0.00000
     21       0.3542      0.00000
     22       0.3613      0.00000
     23       0.4387      0.00000
     24       0.5480      0.00000
     25       0.5909      0.00000
     26       0.6129      0.00000
     27       0.6157      0.00000
     28       0.6496      0.00000
     29       0.6583      0.00000
     30       0.6660      0.00000
     31       0.6688      0.00000
     32       0.6755      0.00000
     33       0.6917      0.00000
     34       0.7365      0.00000
     35       0.7930      0.00000
     36       0.8048      0.00000
     37       0.9251      0.00000
     38       0.9528      0.00000
     39       0.9653      0.00000
     40       0.9659      0.00000
     41       0.9946      0.00000
     42       1.0044      0.00000
     43       1.0182      0.00000
     44       1.1281      0.00000
     45       1.1888      0.00000
     46       1.2392      0.00000
     47       1.3175      0.00000
     48       1.3249      0.00000
     49       1.3467      0.00000
     50       1.4278      0.00000
     51       1.4280      0.00000
     52       1.4577      0.00000
     53       1.4941      0.00000
     54       1.5400      0.00000
     55       1.5554      0.00000
     56       1.5768      0.00000
     57       1.5806      0.00000
     58       1.5943      0.00000
     59       1.5976      0.00000
     60       1.6105      0.00000
     61       1.6228      0.00000
     62       1.6245      0.00000
     63       1.6354      0.00000
     64       1.6676      0.00000
     65       1.6741      0.00000
     66       1.6744      0.00000
     67       1.6797      0.00000
     68       1.6835      0.00000
     69       1.6853      0.00000
     70       1.6855      0.00000
     71       1.7167      0.00000
     72       1.7314      0.00000
     73       1.7440      0.00000
     74       1.7885      0.00000
     75       1.8209      0.00000
     76       1.8438      0.00000
     77       1.8562      0.00000
     78       1.8696      0.00000
     79       1.8931      0.00000
     80       1.9131      0.00000
     81       1.9341      0.00000
     82       1.9357      0.00000
     83       1.9408      0.00000
     84       1.9564      0.00000
     85       1.9565      0.00000
     86       1.9599      0.00000
     87       1.9609      0.00000
     88       1.9761      0.00000
     89       1.9773      0.00000
     90       1.9813      0.00000
     91       1.9925      0.00000
     92       1.9977      0.00000
     93       2.0179      0.00000
     94       2.0308      0.00000
     95       2.0948      0.00000
     96       2.1534      0.00000
     97       2.1570      0.00000
     98       2.1596      0.00000
     99       2.4288      0.00000
    100       2.4677      0.00000
    101       2.4709      0.00000
    102       2.4862      0.00000
    103       2.5350      0.00000
    104       2.5692      0.00000
    105       2.5900      0.00000
    106       2.5991      0.00000
    107       2.6330      0.00000
    108       2.6671      0.00000
    109       2.6688      0.00000
    110       2.6793      0.00000
    111       2.6913      0.00000
    112       2.7229      0.00000
    113       2.7538      0.00000
    114       2.7545      0.00000
    115       2.7752      0.00000
    116       2.7908      0.00000
    117       2.8260      0.00000
    118       2.8500      0.00000
    119       2.8588      0.00000
    120       2.8813      0.00000
    121       2.8952      0.00000
    122       2.8976      0.00000
    123       2.9050      0.00000
    124       2.9109      0.00000
    125       2.9118      0.00000
    126       2.9139      0.00000
    127       2.9146      0.00000
    128       2.9407      0.00000
    129       2.9423      0.00000
    130       2.9444      0.00000
    131       2.9599      0.00000
    132       2.9755      0.00000
    133       2.9806      0.00000
    134       2.9857      0.00000
    135       2.9860      0.00000
    136       3.0108      0.00000
    137       3.0164      0.00000
    138       3.0222      0.00000
    139       3.0617      0.00000
    140       3.0712      0.00000
    141       3.0881      0.00000
    142       3.0918      0.00000
    143       3.1035      0.00000
    144       3.1096      0.00000
    145       3.1105      0.00000
    146       3.1625      0.00000
    147       3.1829      0.00000
    148       3.1901      0.00000
    149       3.2289      0.00000
    150       3.2471      0.00000
    151       3.2657      0.00000
    152       3.2763      0.00000
    153       3.2890      0.00000
    154       3.3086      0.00000
    155       3.3113      0.00000
    156       3.3248      0.00000
    157       3.3308      0.00000
    158       3.3420      0.00000
    159       3.3501      0.00000
    160       3.3518      0.00000
    161       3.3563      0.00000
    162       3.3577      0.00000
    163       3.3664      0.00000
    164       3.3675      0.00000
    165       3.4017      0.00000
    166       3.4165      0.00000
    167       3.4402      0.00000
    168       3.4633      0.00000
    169       3.4691      0.00000
    170       3.4970      0.00000
    171       3.5009      0.00000
    172       3.5223      0.00000
    173       3.5742      0.00000
    174       3.5907      0.00000
    175       3.5911      0.00000
    176       3.5941      0.00000
    177       3.6068      0.00000
    178       3.6089      0.00000
    179       3.6388      0.00000
    180       3.6480      0.00000
    181       3.6564      0.00000
    182       3.6864      0.00000
    183       3.6885      0.00000
    184       3.7066      0.00000
    185       3.7134      0.00000
    186       3.7225      0.00000
    187       3.7436      0.00000
    188       3.8008      0.00000
    189       3.8112      0.00000
    190       3.8375      0.00000
    191       3.8904      0.00000
    192       3.9056      0.00000
    193       3.9064      0.00000
    194       3.9147      0.00000
    195       3.9288      0.00000
    196       3.9438      0.00000
    197       3.9466      0.00000
    198       3.9676      0.00000
    199       3.9822      0.00000
    200       4.0528      0.00000
    201       4.0923      0.00000
    202       4.0965      0.00000
    203       4.1383      0.00000
    204       4.1595      0.00000
    205       4.1611      0.00000
    206       4.1710      0.00000
    207       4.1739      0.00000
    208       4.1790      0.00000
    209       4.1953      0.00000
    210       4.2181      0.00000
    211       4.2654      0.00000
    212       4.2816      0.00000
    213       4.2927      0.00000
    214       4.2968      0.00000
    215       4.3004      0.00000
    216       4.3056      0.00000
    217       4.3105      0.00000
    218       4.3110      0.00000
    219       4.3138      0.00000
    220       4.3232      0.00000
    221       4.3341      0.00000
    222       4.3908      0.00000
    223       4.3980      0.00000
    224       4.4041      0.00000
    225       4.4108      0.00000
    226       4.4151      0.00000
    227       4.4326      0.00000
    228       4.4343      0.00000
    229       4.4379      0.00000
    230       4.4431      0.00000
    231       4.4463      0.00000
    232       4.4526      0.00000
    233       4.4562      0.00000
    234       4.4691      0.00000
    235       4.4744      0.00000
    236       4.5024      0.00000
    237       4.5117      0.00000
    238       4.5155      0.00000
    239       4.5161      0.00000
    240       4.5182      0.00000
    241       4.5238      0.00000
    242       4.5335      0.00000
    243       4.5401      0.00000
    244       4.5443      0.00000
    245       4.5535      0.00000
    246       4.5693      0.00000
    247       4.5871      0.00000
    248       4.5969      0.00000
    249       4.6025      0.00000
    250       4.6049      0.00000
    251       4.6365      0.00000
    252       4.6370      0.00000
    253       4.6374      0.00000
    254       4.6456      0.00000
    255       4.6459      0.00000
    256       4.6503      0.00000


--------------------------------------------------------------------------------------------------------


 soft charge-density along one line, spin component           1
         0         1         2         3         4         5         6         7         8         9
 total charge-density along one line

 pseudopotential strength for first ion, spin component:           1
-10.061  -0.000  -0.045   0.000  -0.000   0.643   0.000   0.033
 -0.000 -10.018  -0.000   0.034   0.000   0.000   0.612   0.000
 -0.045  -0.000 -10.009   0.000  -0.000   0.033   0.000   0.605
  0.000   0.034   0.000 -10.018   0.000  -0.000  -0.026  -0.000
 -0.000   0.000  -0.000   0.000 -10.052   0.000  -0.000   0.000
  0.643   0.000   0.033  -0.000   0.000   6.585  -0.000  -0.020
  0.000   0.612   0.000  -0.026  -0.000  -0.000   6.604  -0.000
  0.033   0.000   0.605  -0.000   0.000  -0.020  -0.000   6.608
 -0.000  -0.026  -0.000   0.612  -0.000  -0.000   0.016   0.000
  0.000  -0.000   0.000  -0.000   0.637  -0.000   0.000  -0.000
 -0.010   0.000  -0.006   0.000  -0.000  -0.004   0.000  -0.002
 -0.018   0.000  -0.010   0.000  -0.000  -0.008   0.000  -0.005
  0.020  -0.000   0.012  -0.000   0.022  -0.010  -0.000  -0.006
 -0.000  -0.022  -0.000   0.022  -0.000  -0.000   0.010   0.000
 -0.020  -0.000  -0.012  -0.000   0.022   0.010  -0.000   0.006
  0.022  -0.000   0.013   0.000   0.023  -0.007  -0.000  -0.004
  0.000  -0.023  -0.000   0.023   0.000  -0.000   0.007   0.000
 -0.022   0.000  -0.013  -0.000   0.023   0.007  -0.000   0.004
 total augmentation occupancy for first ion, spin component:           1
  1.973   0.000  -0.009   0.000   0.000   0.007   0.000   0.014   0.000  -0.000   0.105   0.003  -0.078  -0.000   0.078   0.031
  0.000   1.984   0.000   0.005  -0.000  -0.000  -0.009   0.000  -0.007  -0.000   0.000   0.000   0.000   0.037  -0.000  -0.000
 -0.009   0.000   1.983   0.000  -0.000   0.014  -0.000  -0.009   0.000   0.000   0.061   0.002  -0.045   0.000   0.045   0.018
  0.000   0.005   0.000   1.984   0.000   0.000  -0.007   0.000  -0.009  -0.000   0.000  -0.000   0.000  -0.037   0.000   0.000
  0.000  -0.000  -0.000   0.000   1.979  -0.000   0.000   0.000  -0.000  -0.002  -0.000  -0.000  -0.037   0.000  -0.037   0.032
  0.007  -0.000   0.014   0.000  -0.000   0.007   0.000   0.004   0.000  -0.000  -0.076   0.004  -0.014   0.000   0.014   0.001
  0.000  -0.009  -0.000  -0.007   0.000   0.000   0.002   0.000  -0.002   0.000   0.000   0.000   0.000   0.005   0.000  -0.000
  0.014   0.000  -0.009   0.000   0.000   0.004   0.000   0.003  -0.000  -0.000  -0.044   0.002  -0.008  -0.000   0.008   0.001
  0.000  -0.007   0.000  -0.009  -0.000   0.000  -0.002  -0.000   0.002  -0.000   0.000   0.000   0.000  -0.005   0.000   0.000
 -0.000  -0.000   0.000  -0.000  -0.002  -0.000   0.000  -0.000  -0.000   0.004   0.000  -0.000  -0.005   0.000  -0.005   0.000
  0.105   0.000   0.061   0.000  -0.000  -0.076   0.000  -0.044   0.000   0.000   1.473  -0.061   0.179  -0.000  -0.179  -0.016
  0.003   0.000   0.002  -0.000  -0.000   0.004   0.000   0.002   0.000  -0.000  -0.061   0.003  -0.009   0.000   0.009   0.001
 -0.078   0.000  -0.045   0.000  -0.037  -0.014   0.000  -0.008   0.000  -0.005   0.179  -0.009   0.039  -0.000  -0.025  -0.005
 -0.000   0.037   0.000  -0.037   0.000   0.000   0.005  -0.000  -0.005   0.000  -0.000   0.000   0.000   0.014  -0.000  -0.000
  0.078  -0.000   0.045   0.000  -0.037   0.014   0.000   0.008   0.000  -0.005  -0.179   0.009  -0.025   0.000   0.039   0.003
  0.031   0.000   0.018   0.000   0.032   0.001   0.000   0.001   0.000   0.000  -0.016   0.001  -0.005  -0.000   0.003   0.001
  0.000  -0.032  -0.000   0.032   0.000   0.000  -0.000   0.000   0.000   0.000   0.000  -0.000   0.000  -0.002   0.000  -0.000
 -0.031   0.000  -0.018   0.000   0.032  -0.001  -0.000  -0.001   0.000   0.000   0.016  -0.001   0.003   0.000  -0.005  -0.000


------------------------ aborting loop because EDIFF is reached ----------------------------------------


    FORLOC:  cpu time      0.0008: real time      0.0008
    FORNL :  cpu time      0.1197: real time      0.1202
    STRESS:  cpu time      0.3574: real time      0.3577
    FORCOR:  cpu time      0.0793: real time      0.0793
    OFIELD:  cpu time      0.0001: real time      0.0001

  DFT-D2 method for vdW energy calculation
  -------------------------------------------------------------------

  Parameters of vdW forcefield:
         C6(Jnm^6/mol)     R0(A)
   -----------------------------
   Cu      10.800          1.562

  vdW correction parametrized for the method pbe       

  IVDW =   1
  VDW_RADIUS =    50.000 A
  VDW_S6 =     0.750
  VDW_SR =     1.000
  VDW_D =    20.000
  LVDW_EWALD = F

  Number of pair interactions contributing to vdW energy:     169
  Edisp (eV):   -0.00221
    FORVDW:  cpu time      0.0001: real time      0.0001

  FORCE on cell =-STRESS in cart. coord.  units (eV):
  Direction    XX          YY          ZZ          XY          YZ          ZX
  --------------------------------------------------------------------------------------
  Alpha Z     0.29604     0.29604     0.29604
  Ewald     246.27035   246.27035  -168.36335  -388.42413    -0.00000    -0.00000
  Hartree  1060.93362  1060.93362   748.53844  -286.62895     0.00000    -0.00000
  E(xc)    -128.25082  -128.25082  -128.52489    -0.27410    -0.00000    -0.00000
  Local   -1489.84998 -1489.84998  -769.91597   667.95898    -0.00000     0.00000
  n-local   -54.97487   -54.97487   -53.19868     1.77513     0.00000    -0.00000
  augment   184.08482   184.08482   186.89732     2.81118    -0.00000     0.00000
  Kinetic   181.37870   181.37870   184.24434     2.86503    -0.00000    -0.00000
  Fock        0.00000     0.00000     0.00000     0.00000     0.00000     0.00000
  vdW         0.00897     0.00897    -0.00002    -0.00900     0.00000     0.00000
  -------------------------------------------------------------------------------------
  Total      -0.10318    -0.10318    -0.02678     0.07414     0.00000    -0.00000
  in kB      -0.01673    -0.01673    -0.00434     0.01202     0.00000    -0.00000
  external pressure =       -0.01 kB  Pullay stress =        0.00 kB


 VOLUME and BASIS-vectors are now :
 -----------------------------------------------------------------------------
  energy-cutoff  :      520.00
  volume of cell :     9881.61
      direct lattice vectors                 reciprocal lattice vectors
    21.138852197  0.000000000  0.000000000     0.047306258  0.000000000  0.000000000
     0.000000000 21.138852197  0.000000000     0.000000000  0.047306258  0.000000000
     0.000000000  0.000000000 22.113885220     0.000000000  0.000000000  0.045220457

  length of vectors
    21.138852197 21.138852197 22.113885220     0.047306258  0.047306258  0.045220457


 FORCES acting on ions:
    Electron-Ion                     Ewald-Force                    Non-Local-Force
 -----------------------------------------------------------------------------------------------
   -.257E+03 0.257E+03 0.149E-04   0.247E+03 -.247E+03 -.827E-16   0.954E+01 -.954E+01 -.287E-21
   0.257E+03 -.257E+03 0.149E-04   -.247E+03 0.247E+03 -.862E-17   -.954E+01 0.954E+01 0.585E-23
 -----------------------------------------------------------------------------------------------
   0.248E-04 -.135E-03 0.300E-04   0.000E+00 0.000E+00 -.913E-16   -.178E-14 0.000E+00 -.281E-21


 POSITION                                       TOTAL-FORCE (eV/Angst)
 -----------------------------------------------------------------------------------
     10.29957      8.72540     14.01778        -0.048618      0.048618     -0.000000
      8.72540     10.29957     14.01778         0.048618     -0.048618      0.000000
 -----------------------------------------------------------------------------------
    total drift:                                0.000025     -0.000135      0.000030


--------------------------------------------------------------------------------------------------------



  FREE ENERGIE OF THE ION-ELECTRON SYSTEM (eV)
  ---------------------------------------------------
  free  energy   TOTEN  =        -2.74975188 eV

  energy  without entropy=       -2.74975188  energy(sigma->0) =       -2.74975188



--------------------------------------------------------------------------------------------------------


    POTLOK:  cpu time      0.2492: real time      0.2492


--------------------------------------------------------------------------------------------------------


     LOOP+:  cpu time     82.3488: real time     82.5230
    4ORBIT:  cpu time      0.0000: real time      0.0000

 total amount of memory used by VASP MPI-rank0   117476. kBytes
=======================================================================

   base      :      30000. kBytes
   nonlr-proj:        786. kBytes
   fftplans  :      35177. kBytes
   grid      :      48291. kBytes
   one-center:         15. kBytes
   wavefun   :       3207. kBytes

  
  
 General timing and accounting informations for this job:
 ========================================================
  
                  Total CPU time used (sec):      171.715
                            User time (sec):      168.215
                          System time (sec):        3.500
                         Elapsed time (sec):      178.142
  
                   Maximum memory used (kb):      317400.
                   Average memory used (kb):          N/A
  
                          Minor page faults:        84825
                          Major page faults:            0
                 Voluntary context switches:        24260
