 vasp.6.3.0 20Jan22 (build Apr  1 2022 16:44:48) complex                         
 executed on        HPECrayEX_GCC date 2023.01.06  19:08:56
 running  768 mpi-ranks, with    1 threads/rank
 distrk:  each k-point on  384 cores,    2 groups
 distr:  one band on NCORE=   4 cores,   96 groups


--------------------------------------------------------------------------------------------------------


 INCAR:
   SYSTEM = MgO-rocksalt
   ISMEAR = 0
   SIGMA = 0.05
   EDIFF = 1E-6
   ALGO = ALL
   ISTART = 0
   IBRION = -1
   NSW = 0
   ISYM = 2
   GGA = PS
   ENCUT = 520
   PREC = Accurate
   LASPH = .TRUE.
   LREAL = Auto
   ISPIN = 1
   NELM = 200
   NELMIN = 8
   NCORE = 4
   KPAR = 2
   LWAVE = .FALSE.
   LCHARG = .FALSE.

 POTCAR:    PAW_PBE Au 04Oct2007                  
 POTCAR:    PAW_PBE Au 04Oct2007                  
   SHA256 =  d0044ae04e2bdce24051b198fc5c053d722a5bc6fe3c3b100514a13fc5d2db88 Au/POTCAR             
   COPYR  = (c) Copyright 04Oct2007 Georg Kresse                                                    
   COPYR  = This file is part of the software VASP. Any use, copying, and all other rights are regul
   COPYR  = If you do not have a valid VASP license, you may not use, copy or distribute this file. 
   VRHFIN =Au: s1d10                                                                                
   LEXCH  = PE                                                                                      
   EATOM  =   926.0867 eV,   68.0654 Ry                                                             
                                                                                                    
   TITEL  = PAW_PBE Au 04Oct2007                                                                    
   LULTRA =        F    use ultrasoft PP ?                                                          
   IUNSCR =        1    unscreen: 0-lin 1-nonlin 2-no                                               
   RPACOR =    2.330    partial core radius                                                         
   POMASS =  196.966; ZVAL   =   11.000    mass and valenz                                          
   RCORE  =    2.500    outmost cutoff radius                                                       
   RWIGS  =    2.840; RWIGS  =    1.503    wigner-seitz radius (au A)                               
   ENMAX  =  229.943; ENMIN  =  172.457 eV                                                          
   ICORE  =        3    local potential                                                             
   LCOR   =        T    correct aug charges                                                         
   LPAW   =        T    paw PP                                                                      
   EAUG   =  356.670                                                                                
   DEXC   =    0.000                                                                                
   RMAX   =    2.562    core radius for proj-oper                                                   
   RAUG   =    1.300    factor for augmentation sphere                                              
   RDEP   =    2.598    radius for radial grids                                                     
   RDEPT  =    2.193    core radius for aug-charge                                                  
                                                                                                    
   Atomic configuration                                                                             
   16 entries                                                                                       
     n  l   j            E        occ.                                                              
     1  0  0.50    -80748.5001   2.0000                                                             
     2  0  0.50    -14244.7466   2.0000                                                             
     2  1  1.50    -12310.9591   6.0000                                                             
     3  0  0.50     -3362.1768   2.0000                                                             
     3  1  1.50     -2801.5463   6.0000                                                             
     3  2  2.50     -2203.8206  10.0000                                                             
     4  0  0.50      -729.8168   2.0000                                                             
     4  1  1.50      -546.0527   6.0000                                                             
     4  2  2.50      -325.7302  10.0000                                                             
     4  3  3.50       -81.1472  14.0000                                                             
     5  0  0.50      -108.3201   2.0000                                                             
     5  1  1.50       -59.7479   6.0000                                                             
     5  2  2.50        -6.8783  10.0000                                                             
     6  0  0.50        -5.7602   1.0000                                                             
     6  1  1.50        -6.8029   0.0000                                                             
     5  3  2.50        -1.3606   0.0000                                                             
   Description                                                                                      
     l       E           TYP  RCUT    TYP  RCUT                                                     
     2     -6.8782861     23  2.500                                                                 
     2     -8.2388687     23  2.500                                                                 
     0     -5.7601759     23  2.500                                                                 
     0     -0.8493231     23  2.500                                                                 
     1     -2.7211652     23  2.500                                                                 
     1     27.2116520     23  2.500                                                                 
     3     -1.3605826     23  2.500                                                                 
  local pseudopotential read in
  partial core-charges read in
  partial kinetic energy density read in
  atomic valenz-charges read in
  non local Contribution for L=           2  read in
    real space projection operators read in
  non local Contribution for L=           2  read in
    real space projection operators read in
  non local Contribution for L=           0  read in
    real space projection operators read in
  non local Contribution for L=           0  read in
    real space projection operators read in
  non local Contribution for L=           1  read in
    real space projection operators read in
  non local Contribution for L=           1  read in
    real space projection operators read in
    PAW grid and wavefunctions read in

   number of l-projection  operators is LMAX  =           6
   number of lm-projection operators is LMMAX =          18

 -----------------------------------------------------------------------------
|                                                                             |
|               ----> ADVICE to this user running VASP <----                  |
|                                                                             |
|     You have a (more or less) 'small supercell' and for smaller cells       |
|     it is recommended to use the reciprocal-space projection scheme!        |
|     The real-space optimization is not efficient for small cells and it     |
|     is also less accurate ...                                               |
|     Therefore, set LREAL=.FALSE. in the INCAR file.                         |
|                                                                             |
 -----------------------------------------------------------------------------

 Optimization of the real space projectors (new method)

 maximal supplied QI-value         = 15.12
 optimisation between [QCUT,QGAM] = [ 11.64, 23.28] = [ 37.95,151.78] Ry 
 Optimized for a Real-space Cutoff    1.49 Angstroem

   l    n(q)    QCUT    max X(q) W(low)/X(q) W(high)/X(q)  e(spline) 
   2      9    11.641    60.898    0.24E-03    0.10E-03    0.19E-06
   2      9    11.641    58.894    0.25E-03    0.10E-03    0.19E-06
   0     10    11.641   109.617    0.73E-04    0.33E-04    0.11E-06
   0     10    11.641    75.026    0.71E-04    0.32E-04    0.11E-06
   1     10    11.641    16.344    0.27E-04    0.97E-04    0.16E-06
   1     10    11.641    10.160    0.23E-04    0.77E-04    0.13E-06
 -----------------------------------------------------------------------------
|                                                                             |
|               ----> ADVICE to this user running VASP <----                  |
|                                                                             |
|     You enforced a specific xc type in the INCAR file but a different       |
|     type was found in the POTCAR file.                                      |
|     I HOPE YOU KNOW WHAT YOU ARE DOING!                                     |
|                                                                             |
 -----------------------------------------------------------------------------

  PAW_PBE Au 04Oct2007                  :
 energy of atom  1       EATOM= -926.0867
 kinetic energy error for atom=    0.0034 (will be added to EATOM!!)


 POSCAR: Au
  positions in direct lattice
  velocities in cartesian coordinates
 exchange correlation table for  LEXCH =       14
   RHO(1)=    0.500       N(1)  =     2000
   RHO(2)=  100.500       N(2)  =     4000



--------------------------------------------------------------------------------------------------------


 ion  position               nearest neighbor table
   1  0.587  0.521  0.535-   7 2.61   2 2.61   6 2.73   8 2.74
   2  0.594  0.450  0.644-   8 2.60   1 2.61
   3  0.406  0.551  0.356-   6 2.60   5 2.61
   4  0.365  0.394  0.551-   8 2.60   5 2.61
   5  0.413  0.479  0.464-   4 2.61   3 2.61   8 2.74   6 2.74
   6  0.516  0.560  0.425-   7 2.60   3 2.60   1 2.73   5 2.74
   7  0.635  0.606  0.449-   6 2.60   1 2.61
   8  0.484  0.440  0.574-   2 2.60   4 2.60   5 2.74   1 2.74

  LATTYP: Found a simple cubic cell.
 ALAT       =    20.0000000000
  
  Lattice vectors:
  
 A1 = (  20.0000000000,   0.0000000000,   0.0000000000)
 A2 = (   0.0000000000,  20.0000000000,   0.0000000000)
 A3 = (   0.0000000000,   0.0000000000,  20.0000000000)


Analysis of symmetry for initial positions (statically):
=====================================================================
 Subroutine PRICEL returns:
 Original cell was already a primitive cell.
 

 Routine SETGRP: Setting up the symmetry group for a 
 simple cubic supercell.


 Subroutine GETGRP returns: Found  1 space group operations
 (whereof  1 operations were pure point group operations)
 out of a pool of 48 trial point group operations.


The static configuration has the point symmetry C_1 .


Analysis of symmetry for dynamics (positions and initial velocities):
=====================================================================
 Subroutine PRICEL returns:
 Original cell was already a primitive cell.
 

 Routine SETGRP: Setting up the symmetry group for a 
 simple cubic supercell.


 Subroutine GETGRP returns: Found  1 space group operations
 (whereof  1 operations were pure point group operations)
 out of a pool of 48 trial point group operations.


The dynamic configuration has the point symmetry C_1 .


 Subroutine INISYM returns: Found  1 space group operations
 (whereof  1 operations are pure point group operations),
 and found     1 'primitive' translations


----------------------------------------------------------------------------------------

                                     Primitive cell                                     

  volume of cell :    8000.0000

  direct lattice vectors                    reciprocal lattice vectors
    20.000000000  0.000000000  0.000000000     0.050000000  0.000000000  0.000000000
     0.000000000 20.000000000  0.000000000     0.000000000  0.050000000  0.000000000
     0.000000000  0.000000000 20.000000000     0.000000000  0.000000000  0.050000000

  length of vectors
    20.000000000 20.000000000 20.000000000     0.050000000  0.050000000  0.050000000

  position of ions in fractional coordinates (direct lattice)
     0.587314935  0.521251269  0.535086162
     0.594007259  0.449839138  0.643821918
     0.405557416  0.551000013  0.356164294
     0.364833830  0.393996639  0.550915378
     0.412584551  0.478914525  0.464440067
     0.515554183  0.559973808  0.425327799
     0.635169049  0.605989959  0.448503784
     0.484296247  0.440300765  0.574297230

  ion indices of the primitive-cell ions
   primitive index   ion index
                 1           1
                 2           2
                 3           3
                 4           4
                 5           5
                 6           6
                 7           7
                 8           8

----------------------------------------------------------------------------------------



 KPOINTS: KPOINTS created by Atomic Simulation Env

Automatic generation of k-mesh.
 Grid dimensions read from file:
 generate k-points for:    1    1    1

 Generating k-lattice:

  Cartesian coordinates                     Fractional coordinates (reciprocal lattice)
     0.050000000  0.000000000  0.000000000     1.000000000  0.000000000  0.000000000
     0.000000000  0.050000000  0.000000000     0.000000000  1.000000000  0.000000000
     0.000000000  0.000000000  0.050000000     0.000000000  0.000000000  1.000000000

  Length of vectors
     0.050000000  0.050000000  0.050000000

  Shift w.r.t. Gamma in fractional coordinates (k-lattice)
     0.000000000  0.000000000  0.000000000

 
 Subroutine IBZKPT returns following result:
 ===========================================
 
 Found      1 irreducible k-points:
 
 Following reciprocal coordinates:
            Coordinates               Weight
  0.000000  0.000000  0.000000      1.000000
 
 Following cartesian coordinates:
            Coordinates               Weight
  0.000000  0.000000  0.000000      1.000000
 


--------------------------------------------------------------------------------------------------------




 Dimension of arrays:
   k-points           NKPTS =      1   k-points in BZ     NKDIM =      1   number of bands    NBANDS=     96
   number of dos      NEDOS =    301   number of ions     NIONS =      8
   non local maximal  LDIM  =      6   non local SUM 2l+1 LMDIM =     18
   total plane-waves  NPLWV = ******
   max r-space proj   IRMAX =   5885   max aug-charges    IRDMAX=  25995
   dimension x,y,z NGX =   150 NGY =  150 NGZ =  150
   dimension x,y,z NGXF=   300 NGYF=  300 NGZF=  300
   support grid    NGXF=   300 NGYF=  300 NGZF=  300
   ions per type =               8
   NGX,Y,Z   is equivalent  to a cutoff of  12.47, 12.47, 12.47 a.u.
   NGXF,Y,Z  is equivalent  to a cutoff of  24.94, 24.94, 24.94 a.u.

 SYSTEM =  MgO-rocksalt                            
 POSCAR =  Au                                      

 Startparameter for this run:
   NWRITE =      2    write-flag & timer
   PREC   = accura    normal or accurate (medium, high low for compatibility)
   ISTART =      0    job   : 0-new  1-cont  2-samecut
   ICHARG =      2    charge: 1-file 2-atom 10-const
   ISPIN  =      1    spin polarized calculation?
   LNONCOLLINEAR =      F non collinear calculations
   LSORBIT =      F    spin-orbit coupling
   INIWAV =      1    electr: 0-lowe 1-rand  2-diag
   LASPH  =      T    aspherical Exc in radial PAW
 Electronic Relaxation 1
   ENCUT  =  520.0 eV  38.22 Ry    6.18 a.u.  37.19 37.19 37.19*2*pi/ulx,y,z
   ENINI  =  520.0     initial cutoff
   ENAUG  =  356.7 eV  augmentation charge cutoff
   NELM   =    200;   NELMIN=  8; NELMDL= -5     # of ELM steps 
   EDIFF  = 0.1E-05   stopping-criterion for ELM
   LREAL  =      T    real-space projection
   NLSPLINE    = F    spline interpolate recip. space projectors
   LCOMPAT=      F    compatible to vasp.4.4
   GGA_COMPAT  = T    GGA compatible to vasp.4.4-vasp.4.6
   LMAXPAW     = -100 max onsite density
   LMAXMIX     =    2 max onsite mixed and CHGCAR
   VOSKOWN=      0    Vosko Wilk Nusair interpolation
   ROPT   =   -0.00025
 Ionic relaxation
   EDIFFG = 0.1E-04   stopping-criterion for IOM
   NSW    =      0    number of steps for IOM
   NBLOCK =      1;   KBLOCK =      1    inner block; outer block 
   IBRION =     -1    ionic relax: 0-MD 1-quasi-New 2-CG
   NFREE  =      0    steps in history (QN), initial steepest desc. (CG)
   ISIF   =      2    stress and relaxation
   IWAVPR =     10    prediction:  0-non 1-charg 2-wave 3-comb
   ISYM   =      2    0-nonsym 1-usesym 2-fastsym
   LCORR  =      T    Harris-Foulkes like correction to forces

   POTIM  = 0.5000    time-step for ionic-motion
   TEIN   =    0.0    initial temperature
   TEBEG  =    0.0;   TEEND  =   0.0 temperature during run
   SMASS  =  -3.00    Nose mass-parameter (am)
   estimated Nose-frequenzy (Omega)   =  0.10E-29 period in steps = 0.13E+47 mass=  -0.914E-26a.u.
   SCALEE = 1.0000    scale energy and forces
   NPACO  =    256;   APACO  = 10.0  distance and # of slots for P.C.
   PSTRESS=    0.0 pullay stress

  Mass of Ions in am
   POMASS = 196.97
  Ionic Valenz
   ZVAL   =  11.00
  Atomic Wigner-Seitz radii
   RWIGS  =  -1.00
  virtual crystal weights 
   VCA    =   1.00
   NELECT =      88.0000    total number of electrons
   NUPDOWN=      -1.0000    fix difference up-down

 DOS related values:
   EMIN   =  10.00;   EMAX   =-10.00  energy-range for DOS
   EFERMI =   0.00
   ISMEAR =     0;   SIGMA  =   0.05  broadening in eV -4-tet -1-fermi 0-gaus

 Electronic relaxation 2 (details)
   IALGO  =     58    algorithm
   LDIAG  =      T    sub-space diagonalisation (order eigenvalues)
   LSUBROT=      F    optimize rotation matrix (better conditioning)
   TURBO    =      0    0=normal 1=particle mesh
   IRESTART =      0    0=no restart 2=restart with 2 vectors
   NREBOOT  =      0    no. of reboots
   NMIN     =      0    reboot dimension
   EREF     =   0.00    reference energy to select bands
   IMIX   =      4    mixing-type and parameters
     AMIX     =   0.40;   BMIX     =  1.00
     AMIX_MAG =   1.60;   BMIX_MAG =  1.00
     AMIN     =   0.10
     WC   =   100.;   INIMIX=   1;  MIXPRE=   1;  MAXMIX= -45

 Intra band minimization:
   WEIMIN = 0.0000     energy-eigenvalue tresh-hold
   EBREAK =  0.26E-08  absolut break condition
   DEPER  =   0.30     relativ break condition  

   TIME   =   0.40     timestep for ELM

  volume/ion in A,a.u.               =    1000.00      6748.33
  Fermi-wavevector in a.u.,A,eV,Ry     =   0.364087  0.688026  1.803584  0.132560
  Thomas-Fermi vector in A             =   1.286639

 Write flags
   LWAVE        =      F    write WAVECAR
   LDOWNSAMPLE  =      F    k-point downsampling of WAVECAR
   LCHARG       =      F    write CHGCAR
   LVTOT        =      F    write LOCPOT, total local potential
   LVHAR        =      F    write LOCPOT, Hartree potential only
   LELF         =      F    write electronic localiz. function (ELF)
   LORBIT       =      0    0 simple, 1 ext, 2 COOP (PROOUT), +10 PAW based schemes


 Dipole corrections
   LMONO  =      F    monopole corrections only (constant potential shift)
   LDIPOL =      F    correct potential (dipole corrections)
   IDIPOL =      0    1-x, 2-y, 3-z, 4-all directions 
   EPSILON=  1.0000000 bulk dielectric constant

 Exchange correlation treatment:
   GGA     =    PS    GGA type
   LEXCH   =    14    internal setting for exchange type
   LIBXC   =     F    Libxc                    
   VOSKOWN =     0    Vosko Wilk Nusair interpolation
   LHFCALC =     F    Hartree Fock is set to
   LHFONE  =     F    Hartree Fock one center treatment
   AEXX    =    0.0000 exact exchange contribution

 Linear response parameters
   LEPSILON=     F    determine dielectric tensor
   LRPA    =     F    only Hartree local field effects (RPA)
   LNABLA  =     F    use nabla operator in PAW spheres
   LVEL    =     F    velocity operator in full k-point grid
   CSHIFT  =0.1000    complex shift for real part using Kramers Kronig
   OMEGAMAX=  -1.0    maximum frequency
   DEG_THRESHOLD= 0.2000000E-02 threshold for treating states as degnerate
   RTIME   =   -0.100 relaxation time in fs
  (WPLASMAI=    0.000 imaginary part of plasma frequency in eV, 0.658/RTIME)
   DFIELD  = 0.0000000 0.0000000 0.0000000 field for delta impulse in time

  Optional k-point grid parameters
   LKPOINTS_OPT  =     F    use optional k-point grid
   KPOINTS_OPT_MODE=     1    mode for optional k-point grid

 Orbital magnetization related:
   ORBITALMAG=     F  switch on orbital magnetization
   LCHIMAG   =     F  perturbation theory with respect to B field
   DQ        =  0.001000  dq finite difference perturbation B field
   LLRAUG    =     F  two centre corrections for induced B field



--------------------------------------------------------------------------------------------------------


 Static calculation
 charge density and potential will be updated during run
 non-spin polarized calculation
 Conjugate gradient for all bands (Freysoldt, et al. PRB 79, 241103 (2009))
 preconditioned conjugated gradient                                        
 perform sub-space diagonalisation
    before iterative eigenvector-optimisation
 modified Broyden-mixing scheme, WC =      100.0
 initial mixing is a Kerker type mixing with AMIX =  0.4000 and BMIX =      1.0000
 Hartree-type preconditioning will be used
 using additional bands           52
 real space projection scheme for non local part
 use partial core corrections
 no Harris-corrections to forces 
 use gradient corrections 
 use of overlap-Matrix (Vanderbilt PP)
 Gauss-broadening in eV      SIGMA  =   0.05


--------------------------------------------------------------------------------------------------------


  energy-cutoff  :      520.00
  volume of cell :     8000.00
      direct lattice vectors                 reciprocal lattice vectors
    20.000000000  0.000000000  0.000000000     0.050000000  0.000000000  0.000000000
     0.000000000 20.000000000  0.000000000     0.000000000  0.050000000  0.000000000
     0.000000000  0.000000000 20.000000000     0.000000000  0.000000000  0.050000000

  length of vectors
    20.000000000 20.000000000 20.000000000     0.050000000  0.050000000  0.050000000



 k-points in units of 2pi/SCALE and weight: KPOINTS created by Atomic Simulation Env
   0.00000000  0.00000000  0.00000000       1.000

 k-points in reciprocal lattice and weights: KPOINTS created by Atomic Simulation Env
   0.00000000  0.00000000  0.00000000       1.000

 position of ions in fractional coordinates (direct lattice) 
   0.58731494  0.52125127  0.53508616
   0.59400726  0.44983914  0.64382192
   0.40555742  0.55100001  0.35616429
   0.36483383  0.39399664  0.55091538
   0.41258455  0.47891453  0.46444007
   0.51555418  0.55997381  0.42532780
   0.63516905  0.60598996  0.44850378
   0.48429625  0.44030077  0.57429723

 position of ions in cartesian coordinates  (Angst):
  11.74629870 10.42502538 10.70172324
  11.88014518  8.99678275 12.87643836
   8.11114833 11.02000025  7.12328589
   7.29667661  7.87993278 11.01830756
   8.25169102  9.57829051  9.28880133
  10.31108365 11.19947616  8.50655598
  12.70338098 12.11979918  8.97007569
   9.68592494  8.80601531 11.48594460



--------------------------------------------------------------------------------------------------------


 k-point   1 :   0.0000 0.0000 0.0000  plane waves:  215503

 maximum and minimum number of plane-waves per node :     53900    53857

 maximum number of plane-waves:    215503
 maximum index in each direction: 
   IXMAX=   37   IYMAX=   37   IZMAX=   37
   IXMIN=  -37   IYMIN=  -37   IZMIN=  -37


 real space projection operators:
  total allocation   :       6366.09 KBytes
  max/ min on nodes  :       1595.25       1588.92


 parallel 3D FFT for wavefunctions:
    minimum data exchange during FFTs selected (reduces bandwidth)
 parallel 3D FFT for charge:
    minimum data exchange during FFTs selected (reduces bandwidth)


 total amount of memory used by VASP MPI-rank0   102357. kBytes
=======================================================================

   base      :      30000. kBytes
   nonlr-proj:       2750. kBytes
   fftplans  :      28354. kBytes
   grid      :      38630. kBytes
   one-center:         31. kBytes
   wavefun   :       2592. kBytes

     INWAV:  cpu time      0.0001: real time      0.0001
 Broyden mixing: mesh for mixing (old mesh)
   NGX = 75   NGY = 75   NGZ = 75
  (NGX  =300   NGY  =300   NGZ  =300)
  gives a total of 421875 points

 initial charge density was supplied:
 charge density of overlapping atoms calculated
 number of electron      88.0000000 magnetization 
 keeping initial charge density in first step


--------------------------------------------------------------------------------------------------------


 Maximum index for non-local projection operator         1425
 Maximum index for augmentation-charges            0 (set IRDMAX)


--------------------------------------------------------------------------------------------------------


 First call to EWALD:  gamma=   0.089
 Maximum number of real-space cells 3x 3x 3
 Maximum number of reciprocal cells 3x 3x 3

    FEWALD:  cpu time      0.0013: real time      0.0013


--------------------------------------- Iteration      1(   1)  ---------------------------------------


    POTLOK:  cpu time      0.1131: real time      0.1133
    SETDIJ:  cpu time      0.1758: real time      0.1758
    TRIAL :  cpu time      0.5470: real time      0.5474
    CORREC:  cpu time      0.0011: real time      0.0011
    --------------------------------------------
      LOOP:  cpu time      0.8381: real time      0.8388

 eigenvalue-minimisations  :   192
 total energy-change (2. order) : 0.6582585E+03  (-0.1936613E+04)
 number of electron      88.0000000 magnetization 
 augmentation part       88.0000000 magnetization 

 Free energy of the ion-electron system (eV)
  ---------------------------------------------------
  alpha Z        PSCENC =         9.31836840
  Ewald energy   TEWEN  =      5700.99075705
  -Hartree energ DENC   =    -12800.92555211
  -exchange      EXHF   =         0.00000000
  -V(xc)+E(xc)   XCENC  =       122.08141014
  PAW double counting   =      6986.79780846    -6807.03035979
  entropy T*S    EENTRO =        -0.03933561
  eigenvalues    EBANDS =        34.49101665
  atomic energy  EATOM  =      7412.57435533
  ---------------------------------------------------
  free energy    TOTEN  =       658.25846852 eV

  energy without entropy =      658.29780413  energy(sigma->0) =      658.27813632


--------------------------------------------------------------------------------------------------------




--------------------------------------- Iteration      1(   2)  ---------------------------------------


    TRIAL :  cpu time      1.9189: real time      1.9191
    CORREC:  cpu time      0.0007: real time      0.0007
    --------------------------------------------
      LOOP:  cpu time      1.9235: real time      1.9268

 eigenvalue-minimisations  :   384
 total energy-change (2. order) :-0.6131854E+03  (-0.6130860E+03)
 number of electron      88.0000000 magnetization 
 augmentation part       88.0000000 magnetization 

 Free energy of the ion-electron system (eV)
  ---------------------------------------------------
  alpha Z        PSCENC =         9.31836840
  Ewald energy   TEWEN  =      5700.99075705
  -Hartree energ DENC   =    -12800.92555211
  -exchange      EXHF   =         0.00000000
  -V(xc)+E(xc)   XCENC  =       122.08141014
  PAW double counting   =      6986.79780846    -6807.03035979
  entropy T*S    EENTRO =        -0.00000021
  eigenvalues    EBANDS =      -578.73368334
  atomic energy  EATOM  =      7412.57435533
  ---------------------------------------------------
  free energy    TOTEN  =        45.07310393 eV

  energy without entropy =       45.07310414  energy(sigma->0) =       45.07310403


--------------------------------------------------------------------------------------------------------




--------------------------------------- Iteration      1(   3)  ---------------------------------------


    TRIAL :  cpu time      0.5448: real time      0.5448
    CORREC:  cpu time      0.0004: real time      0.0004
    --------------------------------------------
      LOOP:  cpu time      0.5475: real time      0.5519

 eigenvalue-minimisations  :   192
 total energy-change (2. order) :-0.6616843E+02  (-0.6616843E+02)
 number of electron      88.0000000 magnetization 
 augmentation part       88.0000000 magnetization 

 Free energy of the ion-electron system (eV)
  ---------------------------------------------------
  alpha Z        PSCENC =         9.31836840
  Ewald energy   TEWEN  =      5700.99075705
  -Hartree energ DENC   =    -12800.92555211
  -exchange      EXHF   =         0.00000000
  -V(xc)+E(xc)   XCENC  =       122.08141014
  PAW double counting   =      6986.79780846    -6807.03035979
  entropy T*S    EENTRO =        -0.00000000
  eigenvalues    EBANDS =      -644.90211184
  atomic energy  EATOM  =      7412.57435533
  ---------------------------------------------------
  free energy    TOTEN  =       -21.09532436 eV

  energy without entropy =      -21.09532436  energy(sigma->0) =      -21.09532436


--------------------------------------------------------------------------------------------------------




--------------------------------------- Iteration      1(   4)  ---------------------------------------


    TRIAL :  cpu time      0.5432: real time      0.5432
    CORREC:  cpu time      0.0004: real time      0.0004
    --------------------------------------------
      LOOP:  cpu time      0.5503: real time      0.5509

 eigenvalue-minimisations  :   192
 total energy-change (2. order) :-0.6934768E+00  (-0.6934768E+00)
 number of electron      88.0000000 magnetization 
 augmentation part       88.0000000 magnetization 

 Free energy of the ion-electron system (eV)
  ---------------------------------------------------
  alpha Z        PSCENC =         9.31836840
  Ewald energy   TEWEN  =      5700.99075705
  -Hartree energ DENC   =    -12800.92555211
  -exchange      EXHF   =         0.00000000
  -V(xc)+E(xc)   XCENC  =       122.08141014
  PAW double counting   =      6986.79780846    -6807.03035979
  entropy T*S    EENTRO =        -0.00000000
  eigenvalues    EBANDS =      -645.59558863
  atomic energy  EATOM  =      7412.57435533
  ---------------------------------------------------
  free energy    TOTEN  =       -21.78880115 eV

  energy without entropy =      -21.78880115  energy(sigma->0) =      -21.78880115


--------------------------------------------------------------------------------------------------------




--------------------------------------- Iteration      1(   5)  ---------------------------------------


    TRIAL :  cpu time      1.8712: real time      1.8713
    CORREC:  cpu time      0.0003: real time      0.0003
    CHARGE:  cpu time      0.0996: real time      0.0998
    --------------------------------------------
      LOOP:  cpu time      1.9732: real time      1.9783

 eigenvalue-minimisations  :   384
 total energy-change (2. order) :-0.1063889E-01  (-0.1063889E-01)
 number of electron      87.9999998 magnetization 
 augmentation part       31.1195028 magnetization 

 Free energy of the ion-electron system (eV)
  ---------------------------------------------------
  alpha Z        PSCENC =         9.31836840
  Ewald energy   TEWEN  =      5700.99075705
  -Hartree energ DENC   =    -12800.92555211
  -exchange      EXHF   =         0.00000000
  -V(xc)+E(xc)   XCENC  =       122.08141014
  PAW double counting   =      6986.79780846    -6807.03035979
  entropy T*S    EENTRO =        -0.00000000
  eigenvalues    EBANDS =      -645.60622753
  atomic energy  EATOM  =      7412.57435533
  ---------------------------------------------------
  free energy    TOTEN  =       -21.79944004 eV

  energy without entropy =      -21.79944004  energy(sigma->0) =      -21.79944004


--------------------------------------------------------------------------------------------------------




--------------------------------------- Iteration      1(   6)  ---------------------------------------


    POTLOK:  cpu time      0.1005: real time      0.1005
    SETDIJ:  cpu time      0.1765: real time      0.1765
    TRIAL :  cpu time      1.3702: real time      1.3704
    CORREC:  cpu time      0.4481: real time      0.4483
    CHARGE:  cpu time      0.0939: real time      0.0939
    --------------------------------------------
      LOOP:  cpu time      2.1925: real time      2.1971

 eigenvalue-minimisations  :     0
 total energy-change (2. order) : 0.4360489E+01  (-0.2241550E+01)
 number of electron      87.9999998 magnetization 
 augmentation part       32.0002883 magnetization 

 Free energy of the ion-electron system (eV)
  ---------------------------------------------------
  alpha Z        PSCENC =         9.31836840
  Ewald energy   TEWEN  =      5700.99075705
  -Hartree energ DENC   =    -12733.21618697
  -exchange      EXHF   =         0.00000000
  -V(xc)+E(xc)   XCENC  =       116.76219463
  PAW double counting   =      7680.19378353    -7518.26424839
  entropy T*S    EENTRO =        -0.00000000
  eigenvalues    EBANDS =      -685.79797501
  atomic energy  EATOM  =      7412.57435533
  ---------------------------------------------------
  free energy    TOTEN  =       -17.43895143 eV

  energy without entropy =      -17.43895143  energy(sigma->0) =      -17.43895143


--------------------------------------------------------------------------------------------------------




--------------------------------------- Iteration      1(   7)  ---------------------------------------


    POTLOK:  cpu time      0.0982: real time      0.0982
    SETDIJ:  cpu time      0.1777: real time      0.1777
    TRIAL :  cpu time      0.2048: real time      0.2048
    CORREC:  cpu time      0.4479: real time      0.4485
    CHARGE:  cpu time      0.0956: real time      0.0956
    --------------------------------------------
      LOOP:  cpu time      1.0330: real time      1.0339

 eigenvalue-minimisations  :     0
 total energy-change (2. order) :-0.2236983E+01  (-0.2580680E+00)
 number of electron      87.9999998 magnetization 
 augmentation part       32.0368396 magnetization 

 Free energy of the ion-electron system (eV)
  ---------------------------------------------------
  alpha Z        PSCENC =         9.31836840
  Ewald energy   TEWEN  =      5700.99075705
  -Hartree energ DENC   =    -12793.52257091
  -exchange      EXHF   =         0.00000000
  -V(xc)+E(xc)   XCENC  =       120.05611745
  PAW double counting   =      7762.42322844    -7598.76828747
  entropy T*S    EENTRO =        -0.00000000
  eigenvalues    EBANDS =      -632.74790264
  atomic energy  EATOM  =      7412.57435533
  ---------------------------------------------------
  free energy    TOTEN  =       -19.67593434 eV

  energy without entropy =      -19.67593434  energy(sigma->0) =      -19.67593434


--------------------------------------------------------------------------------------------------------




--------------------------------------- Iteration      1(   8)  ---------------------------------------


    POTLOK:  cpu time      0.0985: real time      0.0985
    SETDIJ:  cpu time      0.1780: real time      0.1780
    TRIAL :  cpu time      0.2040: real time      0.2040
    CORREC:  cpu time      0.4506: real time      0.4506
    CHARGE:  cpu time      0.0955: real time      0.0955
    --------------------------------------------
      LOOP:  cpu time      1.0297: real time      1.0343

 eigenvalue-minimisations  :     0
 total energy-change (2. order) :-0.2570012E+00  (-0.9236954E-01)
 number of electron      87.9999998 magnetization 
 augmentation part       32.0574114 magnetization 

 Free energy of the ion-electron system (eV)
  ---------------------------------------------------
  alpha Z        PSCENC =         9.31836840
  Ewald energy   TEWEN  =      5700.99075705
  -Hartree energ DENC   =    -12771.51938097
  -exchange      EXHF   =         0.00000000
  -V(xc)+E(xc)   XCENC  =       119.76650641
  PAW double counting   =      7722.34441909    -7558.28509609
  entropy T*S    EENTRO =        -0.00000000
  eigenvalues    EBANDS =      -655.12286471
  atomic energy  EATOM  =      7412.57435533
  ---------------------------------------------------
  free energy    TOTEN  =       -19.93293549 eV

  energy without entropy =      -19.93293549  energy(sigma->0) =      -19.93293549


--------------------------------------------------------------------------------------------------------




--------------------------------------- Iteration      1(   9)  ---------------------------------------


    POTLOK:  cpu time      0.0971: real time      0.0971
    SETDIJ:  cpu time      0.1782: real time      0.1782
    TRIAL :  cpu time      0.2048: real time      0.2048
    CORREC:  cpu time      0.4499: real time      0.4500
    CHARGE:  cpu time      0.0954: real time      0.0954
    --------------------------------------------
      LOOP:  cpu time      1.0327: real time      1.0332

 eigenvalue-minimisations  :     0
 total energy-change (2. order) :-0.9231996E-01  (-0.2605830E-01)
 number of electron      87.9999998 magnetization 
 augmentation part       32.1049940 magnetization 

 Free energy of the ion-electron system (eV)
  ---------------------------------------------------
  alpha Z        PSCENC =         9.31836840
  Ewald energy   TEWEN  =      5700.99075705
  -Hartree energ DENC   =    -12765.21437885
  -exchange      EXHF   =         0.00000000
  -V(xc)+E(xc)   XCENC  =       119.74010730
  PAW double counting   =      7705.51106523    -7541.06617582
  entropy T*S    EENTRO =        -0.00000000
  eigenvalues    EBANDS =      -661.87935410
  atomic energy  EATOM  =      7412.57435533
  ---------------------------------------------------
  free energy    TOTEN  =       -20.02525545 eV

  energy without entropy =      -20.02525545  energy(sigma->0) =      -20.02525545


--------------------------------------------------------------------------------------------------------




--------------------------------------- Iteration      1(  10)  ---------------------------------------


    POTLOK:  cpu time      0.0979: real time      0.0979
    SETDIJ:  cpu time      0.1791: real time      0.1791
    TRIAL :  cpu time      0.2038: real time      0.2038
    CORREC:  cpu time      0.4481: real time      0.4481
    CHARGE:  cpu time      0.0942: real time      0.0942
    --------------------------------------------
      LOOP:  cpu time      1.0305: real time      1.0307

 eigenvalue-minimisations  :     0
 total energy-change (2. order) :-0.2614209E-01  (-0.7789703E-02)
 number of electron      87.9999998 magnetization 
 augmentation part       32.0983184 magnetization 

 Free energy of the ion-electron system (eV)
  ---------------------------------------------------
  alpha Z        PSCENC =         9.31836840
  Ewald energy   TEWEN  =      5700.99075705
  -Hartree energ DENC   =    -12777.53926110
  -exchange      EXHF   =         0.00000000
  -V(xc)+E(xc)   XCENC  =       119.96997323
  PAW double counting   =      7711.79475810    -7547.04658028
  entropy T*S    EENTRO =        -0.00000000
  eigenvalues    EBANDS =      -650.11376828
  atomic energy  EATOM  =      7412.57435533
  ---------------------------------------------------
  free energy    TOTEN  =       -20.05139754 eV

  energy without entropy =      -20.05139754  energy(sigma->0) =      -20.05139754


--------------------------------------------------------------------------------------------------------




--------------------------------------- Iteration      1(  11)  ---------------------------------------


    POTLOK:  cpu time      0.0985: real time      0.0986
    SETDIJ:  cpu time      0.1770: real time      0.1770
    TRIAL :  cpu time      0.2036: real time      0.2036
    CORREC:  cpu time      0.4447: real time      0.4448
    CHARGE:  cpu time      0.0956: real time      0.0956
    --------------------------------------------
      LOOP:  cpu time      1.0269: real time      1.0275

 eigenvalue-minimisations  :     0
 total energy-change (2. order) :-0.7792416E-02  (-0.1803818E-02)
 number of electron      87.9999998 magnetization 
 augmentation part       32.1064491 magnetization 

 Free energy of the ion-electron system (eV)
  ---------------------------------------------------
  alpha Z        PSCENC =         9.31836840
  Ewald energy   TEWEN  =      5700.99075705
  -Hartree energ DENC   =    -12773.82990254
  -exchange      EXHF   =         0.00000000
  -V(xc)+E(xc)   XCENC  =       119.92107948
  PAW double counting   =      7703.25421672    -7538.32574469
  entropy T*S    EENTRO =        -0.00000000
  eigenvalues    EBANDS =      -653.96231970
  atomic energy  EATOM  =      7412.57435533
  ---------------------------------------------------
  free energy    TOTEN  =       -20.05918996 eV

  energy without entropy =      -20.05918996  energy(sigma->0) =      -20.05918996


--------------------------------------------------------------------------------------------------------




--------------------------------------- Iteration      1(  12)  ---------------------------------------


    POTLOK:  cpu time      0.0970: real time      0.0970
    SETDIJ:  cpu time      0.1755: real time      0.1755
    TRIAL :  cpu time      0.2033: real time      0.2033
    CORREC:  cpu time      0.4450: real time      0.4450
    CHARGE:  cpu time      0.0956: real time      0.0956
    --------------------------------------------
      LOOP:  cpu time      1.0214: real time      1.0252

 eigenvalue-minimisations  :     0
 total energy-change (2. order) :-0.1803536E-02  (-0.3271626E-03)
 number of electron      87.9999998 magnetization 
 augmentation part       32.1066721 magnetization 

 Free energy of the ion-electron system (eV)
  ---------------------------------------------------
  alpha Z        PSCENC =         9.31836840
  Ewald energy   TEWEN  =      5700.99075705
  -Hartree energ DENC   =    -12775.90014494
  -exchange      EXHF   =         0.00000000
  -V(xc)+E(xc)   XCENC  =       119.96347987
  PAW double counting   =      7702.00990585    -7537.01703011
  entropy T*S    EENTRO =        -0.00000000
  eigenvalues    EBANDS =      -652.00068495
  atomic energy  EATOM  =      7412.57435533
  ---------------------------------------------------
  free energy    TOTEN  =       -20.06099349 eV

  energy without entropy =      -20.06099349  energy(sigma->0) =      -20.06099349


--------------------------------------------------------------------------------------------------------




--------------------------------------- Iteration      1(  13)  ---------------------------------------


    POTLOK:  cpu time      0.0975: real time      0.0975
    SETDIJ:  cpu time      0.1757: real time      0.1757
    TRIAL :  cpu time      0.2032: real time      0.2032
    CORREC:  cpu time      0.4434: real time      0.4435
    CHARGE:  cpu time      0.0938: real time      0.0938
    --------------------------------------------
      LOOP:  cpu time      1.0210: real time      1.0213

 eigenvalue-minimisations  :     0
 total energy-change (2. order) :-0.3274636E-03  (-0.4724446E-04)
 number of electron      87.9999998 magnetization 
 augmentation part       32.1073190 magnetization 

 Free energy of the ion-electron system (eV)
  ---------------------------------------------------
  alpha Z        PSCENC =         9.31836840
  Ewald energy   TEWEN  =      5700.99075705
  -Hartree energ DENC   =    -12775.94787586
  -exchange      EXHF   =         0.00000000
  -V(xc)+E(xc)   XCENC  =       119.96208628
  PAW double counting   =      7700.74258271    -7535.74221031
  entropy T*S    EENTRO =        -0.00000000
  eigenvalues    EBANDS =      -651.95938455
  atomic energy  EATOM  =      7412.57435533
  ---------------------------------------------------
  free energy    TOTEN  =       -20.06132096 eV

  energy without entropy =      -20.06132096  energy(sigma->0) =      -20.06132096


--------------------------------------------------------------------------------------------------------




--------------------------------------- Iteration      1(  14)  ---------------------------------------


    POTLOK:  cpu time      0.1004: real time      0.1004
    SETDIJ:  cpu time      0.1739: real time      0.1739
    TRIAL :  cpu time      0.2031: real time      0.2031
    CORREC:  cpu time      0.4430: real time      0.4431
    CHARGE:  cpu time      0.0950: real time      0.0950
    --------------------------------------------
      LOOP:  cpu time      1.0227: real time      1.0231

 eigenvalue-minimisations  :     0
 total energy-change (2. order) :-0.4715949E-04  (-0.1256624E-04)
 number of electron      87.9999998 magnetization 
 augmentation part       32.1073275 magnetization 

 Free energy of the ion-electron system (eV)
  ---------------------------------------------------
  alpha Z        PSCENC =         9.31836840
  Ewald energy   TEWEN  =      5700.99075705
  -Hartree energ DENC   =    -12775.87123028
  -exchange      EXHF   =         0.00000000
  -V(xc)+E(xc)   XCENC  =       119.96359670
  PAW double counting   =      7700.58429801    -7535.58119093
  entropy T*S    EENTRO =        -0.00000000
  eigenvalues    EBANDS =      -652.04032240
  atomic energy  EATOM  =      7412.57435533
  ---------------------------------------------------
  free energy    TOTEN  =       -20.06136812 eV

  energy without entropy =      -20.06136812  energy(sigma->0) =      -20.06136812


--------------------------------------------------------------------------------------------------------




--------------------------------------- Iteration      1(  15)  ---------------------------------------


    POTLOK:  cpu time      0.1013: real time      0.1013
    SETDIJ:  cpu time      0.1722: real time      0.1722
    TRIAL :  cpu time      0.2036: real time      0.2036
    CORREC:  cpu time      0.4442: real time      0.4443
    CHARGE:  cpu time      0.0954: real time      0.0954
    --------------------------------------------
      LOOP:  cpu time      1.0213: real time      1.0248

 eigenvalue-minimisations  :     0
 total energy-change (2. order) :-0.1256585E-04  (-0.3319089E-05)
 number of electron      87.9999998 magnetization 
 augmentation part       32.1070215 magnetization 

 Free energy of the ion-electron system (eV)
  ---------------------------------------------------
  alpha Z        PSCENC =         9.31836840
  Ewald energy   TEWEN  =      5700.99075705
  -Hartree energ DENC   =    -12775.94263023
  -exchange      EXHF   =         0.00000000
  -V(xc)+E(xc)   XCENC  =       119.96317468
  PAW double counting   =      7700.56072713    -7535.55765919
  entropy T*S    EENTRO =        -0.00000000
  eigenvalues    EBANDS =      -651.96847386
  atomic energy  EATOM  =      7412.57435533
  ---------------------------------------------------
  free energy    TOTEN  =       -20.06138068 eV

  energy without entropy =      -20.06138068  energy(sigma->0) =      -20.06138068


--------------------------------------------------------------------------------------------------------




--------------------------------------- Iteration      1(  16)  ---------------------------------------


    POTLOK:  cpu time      0.0971: real time      0.0971
    SETDIJ:  cpu time      0.1770: real time      0.1770
    TRIAL :  cpu time      0.2043: real time      0.2043
    CORREC:  cpu time      0.4466: real time      0.4466
    CHARGE:  cpu time      0.0950: real time      0.0950
    --------------------------------------------
      LOOP:  cpu time      1.0250: real time      1.0282

 eigenvalue-minimisations  :     0
 total energy-change (2. order) :-0.3445078E-05  (-0.8491565E-06)
 number of electron      87.9999998 magnetization 
 augmentation part       32.1071039 magnetization 

 Free energy of the ion-electron system (eV)
  ---------------------------------------------------
  alpha Z        PSCENC =         9.31836840
  Ewald energy   TEWEN  =      5700.99075705
  -Hartree energ DENC   =    -12775.86507507
  -exchange      EXHF   =         0.00000000
  -V(xc)+E(xc)   XCENC  =       119.96180625
  PAW double counting   =      7700.46247261    -7535.46009787
  entropy T*S    EENTRO =        -0.00000000
  eigenvalues    EBANDS =      -652.04397083
  atomic energy  EATOM  =      7412.57435533
  ---------------------------------------------------
  free energy    TOTEN  =       -20.06138413 eV

  energy without entropy =      -20.06138413  energy(sigma->0) =      -20.06138413


--------------------------------------------------------------------------------------------------------




--------------------------------------- Iteration      1(  17)  ---------------------------------------


    POTLOK:  cpu time      0.0973: real time      0.0973
    SETDIJ:  cpu time      0.1756: real time      0.1756
    TRIAL :  cpu time      0.2025: real time      0.2025
    CORREC:  cpu time      0.4441: real time      0.4452
    EDDIAG:  cpu time      0.0938: real time      0.0938
    CHARGE:  cpu time      0.0952: real time      0.0952
    --------------------------------------------
      LOOP:  cpu time      1.1111: real time      1.1173

 eigenvalue-minimisations  :     0
 total energy-change (2. order) :-0.7648068E-06  (-0.8913943E-07)
 number of electron      87.9999998 magnetization 
 augmentation part       32.1070123 magnetization 

 Free energy of the ion-electron system (eV)
  ---------------------------------------------------
  alpha Z        PSCENC =         9.31836840
  Ewald energy   TEWEN  =      5700.99075705
  -Hartree energ DENC   =    -12775.88513837
  -exchange      EXHF   =         0.00000000
  -V(xc)+E(xc)   XCENC  =       119.96256243
  PAW double counting   =      7700.44192802    -7535.43996474
  entropy T*S    EENTRO =        -0.00000000
  eigenvalues    EBANDS =      -652.02425301
  atomic energy  EATOM  =      7412.57435533
  ---------------------------------------------------
  free energy    TOTEN  =       -20.06138489 eV

  energy without entropy =      -20.06138489  energy(sigma->0) =      -20.06138489


--------------------------------------------------------------------------------------------------------


  average scaling for gradient   1.3258


 average (electrostatic) potential at core
  the test charge radii are     1.2098
  (the norm of the test charge is              1.0000)
       1 -76.7522       2 -76.5991       3 -76.5989       4 -76.5990       5 -76.7520
       6 -76.7543       7 -76.5989       8 -76.7543



 E-fermi :  -5.2923     XC(G=0):  -0.4747     alpha+bet : -0.2375

 Fermi energy:        -5.2922798498

 k-point     1 :       0.0000    0.0000    0.0000
  band No.  band energies     occupation 
      1     -10.8928      2.00000
      2     -10.1513      2.00000
      3     -10.1501      2.00000
      4      -9.2265      2.00000
      5      -8.8868      2.00000
      6      -8.7181      2.00000
      7      -8.7123      2.00000
      8      -8.4329      2.00000
      9      -8.4245      2.00000
     10      -8.3278      2.00000
     11      -8.2930      2.00000
     12      -8.2924      2.00000
     13      -7.7849      2.00000
     14      -7.7255      2.00000
     15      -7.5626      2.00000
     16      -7.5610      2.00000
     17      -7.5133      2.00000
     18      -7.3688      2.00000
     19      -7.3686      2.00000
     20      -7.3397      2.00000
     21      -7.2999      2.00000
     22      -7.2942      2.00000
     23      -7.2722      2.00000
     24      -7.2676      2.00000
     25      -7.1352      2.00000
     26      -6.8142      2.00000
     27      -6.7951      2.00000
     28      -6.7936      2.00000
     29      -6.7681      2.00000
     30      -6.7657      2.00000
     31      -6.5755      2.00000
     32      -6.5091      2.00000
     33      -6.4893      2.00000
     34      -6.4888      2.00000
     35      -6.4008      2.00000
     36      -6.2949      2.00000
     37      -6.2374      2.00000
     38      -6.2373      2.00000
     39      -6.1613      2.00000
     40      -6.1241      2.00000
     41      -6.0914      2.00000
     42      -5.9691      2.00000
     43      -5.9649      2.00000
     44      -5.5394      2.00000
     45      -4.2068      0.00000
     46      -3.4415      0.00000
     47      -2.9458      0.00000
     48      -2.9443      0.00000
     49      -2.1189      0.00000
     50      -1.1196      0.00000
     51      -1.0859      0.00000
     52      -1.0829      0.00000
     53      -0.8425      0.00000
     54      -0.8413      0.00000
     55      -0.2190      0.00000
     56       0.0782      0.00000
     57       0.1636      0.00000
     58       0.4750      0.00000
     59       0.4999      0.00000
     60       0.5310      0.00000
     61       0.5399      0.00000
     62       0.5676      0.00000
     63       0.5696      0.00000
     64       0.5725      0.00000
     65       0.8026      0.00000
     66       0.8212      0.00000
     67       0.8638      0.00000
     68       0.8658      0.00000
     69       0.9087      0.00000
     70       0.9200      0.00000
     71       0.9413      0.00000
     72       0.9510      0.00000
     73       0.9575      0.00000
     74       0.9723      0.00000
     75       0.9774      0.00000
     76       1.0430      0.00000
     77       1.0954      0.00000
     78       1.2036      0.00000
     79       1.2070      0.00000
     80       1.2221      0.00000
     81       1.2466      0.00000
     82       1.3385      0.00000
     83       1.3413      0.00000
     84       1.3768      0.00000
     85       1.4940      0.00000
     86       1.5409      0.00000
     87       1.5780      0.00000
     88       1.6030      0.00000
     89       1.6438      0.00000
     90       1.6443      0.00000
     91       1.7205      0.00000
     92       1.7625      0.00000
     93       1.7740      0.00000
     94       1.8188      0.00000
     95       1.8339      0.00000
     96       1.8997      0.00000


--------------------------------------------------------------------------------------------------------


 soft charge-density along one line, spin component           1
         0         1         2         3         4         5         6         7         8         9
 total charge-density along one line

 pseudopotential strength for first ion, spin component:           1
 -9.378   0.001   0.029   0.055   0.000  -9.499   0.001   0.029
  0.001  -9.408   0.034  -0.021  -0.048   0.001  -9.528   0.033
  0.029   0.034  -9.409  -0.009   0.004   0.029   0.033  -9.529
  0.055  -0.021  -0.009  -9.405  -0.006   0.054  -0.021  -0.009
  0.000  -0.048   0.004  -0.006  -9.369   0.000  -0.047   0.004
 -9.499   0.001   0.029   0.054   0.000  -9.604   0.001   0.028
  0.001  -9.528   0.033  -0.021  -0.047   0.001  -9.632   0.032
  0.029   0.033  -9.529  -0.009   0.004   0.028   0.032  -9.633
  0.054  -0.021  -0.009  -9.525  -0.005   0.052  -0.020  -0.009
  0.000  -0.047   0.004  -0.005  -9.490   0.000  -0.046   0.004
  0.019  -0.047   0.017  -0.000  -0.003   0.019  -0.047   0.017
  0.027  -0.069   0.025  -0.000  -0.005   0.027  -0.069   0.025
  0.004   0.002  -0.000   0.000  -0.001   0.004   0.002  -0.000
  0.000   0.001   0.002   0.004  -0.000   0.000   0.001   0.002
  0.001   0.000  -0.002   0.002   0.004   0.001   0.000  -0.002
  0.004   0.002  -0.000   0.000  -0.001   0.004   0.002  -0.000
  0.000   0.001   0.002   0.004  -0.000   0.000   0.001   0.002
  0.001   0.000  -0.003   0.002   0.004   0.001   0.000  -0.003
 total augmentation occupancy for first ion, spin component:           1
  3.355  -0.176  -0.124  -0.397   0.007  -1.353   0.238   0.263   0.646  -0.005  -0.665   0.104   0.028   0.008   0.036   0.003
 -0.176   4.103  -0.445   0.207   0.513   0.239  -2.223   0.609  -0.253  -0.646   1.799  -0.238   0.016   0.017   0.034   0.002
 -0.124  -0.445   3.735  -0.055  -0.010   0.262   0.610  -1.760  -0.067   0.037  -0.673   0.078  -0.015  -0.006  -0.051   0.001
 -0.397   0.207  -0.055   3.558   0.052   0.646  -0.254  -0.067  -1.611  -0.073   0.059   0.016   0.012   0.047   0.071   0.002
  0.007   0.513  -0.010   0.052   3.366  -0.004  -0.647   0.038  -0.072  -1.203   0.196   0.001   0.015   0.031   0.093  -0.001
 -1.353   0.239   0.262   0.646  -0.004   1.300  -0.293  -0.369  -0.843   0.001   0.607  -0.118  -0.036  -0.008  -0.041   0.002
  0.238  -2.223   0.610  -0.254  -0.647  -0.293   2.275  -0.742   0.290   0.751  -1.663   0.302  -0.018  -0.018  -0.032  -0.000
  0.263   0.609  -1.760  -0.067   0.038  -0.369  -0.742   1.729   0.163  -0.058   0.627  -0.109   0.016   0.003   0.055  -0.001
  0.646  -0.253  -0.067  -1.611  -0.072  -0.843   0.290   0.163   1.598   0.087  -0.065   0.000  -0.012  -0.056  -0.076  -0.001
 -0.005  -0.646   0.037  -0.073  -1.203   0.001   0.751  -0.058   0.087   1.021  -0.193   0.022  -0.014  -0.032  -0.103   0.000
 -0.665   1.799  -0.673   0.059   0.196   0.607  -1.663   0.627  -0.065  -0.193   2.039  -0.335  -0.015  -0.026  -0.064   0.001
  0.104  -0.238   0.078   0.016   0.001  -0.118   0.302  -0.109   0.000   0.022  -0.335   0.072   0.006   0.010   0.025  -0.000
  0.028   0.016  -0.015   0.012   0.015  -0.036  -0.018   0.016  -0.012  -0.014  -0.015   0.006   0.106  -0.093   0.031  -0.003
  0.008   0.017  -0.006   0.047   0.031  -0.008  -0.018   0.003  -0.056  -0.032  -0.026   0.010  -0.093   0.154  -0.009   0.002
  0.036   0.034  -0.051   0.071   0.093  -0.041  -0.032   0.055  -0.076  -0.103  -0.064   0.025   0.031  -0.009   0.073  -0.001
  0.003   0.002   0.001   0.002  -0.001   0.002  -0.000  -0.001  -0.001   0.000   0.001  -0.000  -0.003   0.002  -0.001   0.000
  0.002   0.002   0.000   0.002  -0.000  -0.001  -0.001   0.001   0.002   0.001   0.002  -0.000   0.002  -0.004   0.000  -0.000
 -0.001   0.002  -0.003   0.001   0.004   0.002  -0.001  -0.000   0.001   0.002   0.005  -0.001  -0.001   0.000  -0.002   0.000


------------------------ aborting loop because EDIFF is reached ----------------------------------------


    FORLOC:  cpu time      0.0034: real time      0.0034
    FORNL :  cpu time      0.1067: real time      0.1067
    STRESS:  cpu time      0.3170: real time      0.3172
    FORCOR:  cpu time      0.0696: real time      0.0696
    OFIELD:  cpu time      0.0002: real time      0.0002

  FORCE on cell =-STRESS in cart. coord.  units (eV):
  Direction    XX          YY          ZZ          XY          YZ          ZX
  --------------------------------------------------------------------------------------
  Alpha Z     9.31837     9.31837     9.31837
  Ewald    3139.86093   250.68105  2310.44516  1883.96329 -2510.10911  1303.98451
  Hartree  5248.19922  2941.53169  4586.14131  1471.14799 -1961.47406  1017.68612
  E(xc)    -389.63815  -390.74538  -389.95600     0.79338    -1.05397     0.55019
  Local   -9743.40220 -4584.48117 -8262.55940 -3328.68801  4436.49583 -2303.32990
  n-local   -26.86010   -13.09094   -22.87817    -9.85247    13.08151    -6.84031
  augment   533.58706   541.00265   535.71909    -5.30947     7.05192    -3.68491
  Kinetic  1225.68080  1244.06704  1230.96588   -13.16215    17.48262    -9.13261
  Fock        0.00000     0.00000     0.00000     0.00000     0.00000     0.00000
  -------------------------------------------------------------------------------------
  Total      -3.25408    -1.71668    -2.80377    -1.10744     1.47472    -0.76690
  in kB      -0.65170    -0.34380    -0.56152    -0.22179     0.29535    -0.15359
  external pressure =       -0.52 kB  Pullay stress =        0.00 kB


 VOLUME and BASIS-vectors are now :
 -----------------------------------------------------------------------------
  energy-cutoff  :      520.00
  volume of cell :     8000.00
      direct lattice vectors                 reciprocal lattice vectors
    20.000000000  0.000000000  0.000000000     0.050000000  0.000000000  0.000000000
     0.000000000 20.000000000  0.000000000     0.000000000  0.050000000  0.000000000
     0.000000000  0.000000000 20.000000000     0.000000000  0.000000000  0.050000000

  length of vectors
    20.000000000 20.000000000 20.000000000     0.050000000  0.050000000  0.050000000


 FORCES acting on ions:
    Electron-Ion                     Ewald-Force                    Non-Local-Force
 -----------------------------------------------------------------------------------------------
   -.388E+03 -.938E+02 -.157E+03   0.387E+03 0.936E+02 0.156E+03   0.810E+00 0.194E+00 0.329E+00
   -.356E+03 0.191E+03 -.544E+03   0.352E+03 -.188E+03 0.537E+03   0.421E+01 -.223E+01 0.645E+01
   0.357E+03 -.194E+03 0.542E+03   -.353E+03 0.191E+03 -.535E+03   -.424E+01 0.228E+01 -.642E+01
   0.510E+03 0.403E+03 -.193E+03   -.504E+03 -.398E+03 0.191E+03   -.605E+01 -.475E+01 0.228E+01
   0.387E+03 0.953E+02 0.158E+03   -.386E+03 -.951E+02 -.157E+03   -.806E+00 -.205E+00 -.334E+00
   -.693E+02 -.266E+03 0.331E+03   0.692E+02 0.266E+03 -.330E+03   0.146E+00 0.570E+00 -.710E+00
   -.510E+03 -.401E+03 0.194E+03   0.504E+03 0.396E+03 -.192E+03   0.606E+01 0.473E+01 -.229E+01
   0.693E+02 0.267E+03 -.331E+03   -.691E+02 -.266E+03 0.330E+03   -.148E+00 -.571E+00 0.708E+00
 -----------------------------------------------------------------------------------------------
   0.146E-01 -.258E-01 -.186E-01   -.114E-12 0.114E-12 -.114E-12   -.141E-01 0.224E-01 0.177E-01


 POSITION                                       TOTAL-FORCE (eV/Angst)
 -----------------------------------------------------------------------------------
     11.74630     10.42503     10.70172        -0.127274     -0.028988     -0.048633
     11.88015      8.99678     12.87644        -0.234462      0.123945     -0.355645
      8.11115     11.02000      7.12329         0.236570     -0.128048      0.353636
      7.29668      7.87993     11.01831         0.333842      0.257949     -0.126794
      8.25169      9.57829      9.28880         0.125612      0.032840      0.052464
     10.31108     11.19948      8.50656        -0.022958     -0.086924      0.105525
     12.70338     12.11980      8.97008        -0.333113     -0.257875      0.125904
      9.68592      8.80602     11.48594         0.021783      0.087100     -0.106457
 -----------------------------------------------------------------------------------
    total drift:                                0.000472     -0.003419     -0.000823


--------------------------------------------------------------------------------------------------------



  FREE ENERGIE OF THE ION-ELECTRON SYSTEM (eV)
  ---------------------------------------------------
  free  energy   TOTEN  =       -20.06138489 eV

  energy  without entropy=      -20.06138489  energy(sigma->0) =      -20.06138489



--------------------------------------------------------------------------------------------------------


    POTLOK:  cpu time      0.2737: real time      0.2737


--------------------------------------------------------------------------------------------------------


     LOOP+:  cpu time     20.3584: real time     20.4048
    4ORBIT:  cpu time      0.0000: real time      0.0000

 total amount of memory used by VASP MPI-rank0   102357. kBytes
=======================================================================

   base      :      30000. kBytes
   nonlr-proj:       2750. kBytes
   fftplans  :      28354. kBytes
   grid      :      38630. kBytes
   one-center:         31. kBytes
   wavefun   :       2592. kBytes

  
  
 General timing and accounting informations for this job:
 ========================================================
  
                  Total CPU time used (sec):       40.332
                            User time (sec):       39.125
                          System time (sec):        1.207
                         Elapsed time (sec):       43.282
  
                   Maximum memory used (kb):      210184.
                   Average memory used (kb):          N/A
  
                          Minor page faults:        26164
                          Major page faults:            0
                 Voluntary context switches:         9846
