 vasp.6.3.0 20Jan22 (build Apr  1 2022 16:44:48) complex                         
 executed on        HPECrayEX_GCC date 2023.01.06  22:07:08
 running  768 mpi-ranks, with    1 threads/rank
 distrk:  each k-point on  384 cores,    2 groups
 distr:  one band on NCORE=   4 cores,   96 groups


--------------------------------------------------------------------------------------------------------


 INCAR:
   SYSTEM = MgO-rocksalt
   ISMEAR = 0
   SIGMA = 0.05
   EDIFF = 1E-6
   ALGO = ALL
   ISTART = 0
   IBRION = -1
   NSW = 0
   ISYM = 2
   METAGGA = R2SCAN
   IVDW = 13
   VDW_S8 = 0.6019
   VDW_A1 = 0.5156
   VDW_A2 = 5.7734
   ENCUT = 520
   PREC = Accurate
   LASPH = .TRUE.
   LREAL = Auto
   ISPIN = 1
   NELM = 200
   NELMIN = 8
   NCORE = 4
   KPAR = 2
   LWAVE = .FALSE.
   LCHARG = .FALSE.

 POTCAR:    PAW_PBE Cu 22Jun2005                  
 POTCAR:    PAW_PBE Cu 22Jun2005                  
   SHA256 =  0e71e558f37a4e8407882b4609ceaae59938afaad9ced71dfe8490308a0ab630 Cu/POTCAR             
   COPYR  = (c) Copyright 22Jun2005 Georg Kresse                                                    
   COPYR  = This file is part of the software VASP. Any use, copying, and all other rights are regul
   COPYR  = If you do not have a valid VASP license, you may not use, copy or distribute this file. 
   VRHFIN =Cu: d10 p1                                                                               
   LEXCH  = PE                                                                                      
   EATOM  =  1390.9808 eV,  102.2342 Ry                                                             
                                                                                                    
   TITEL  = PAW_PBE Cu 22Jun2005                                                                    
   LULTRA =        F    use ultrasoft PP ?                                                          
   IUNSCR =        1    unscreen: 0-lin 1-nonlin 2-no                                               
   RPACOR =    2.000    partial core radius                                                         
   POMASS =   63.546; ZVAL   =   11.000    mass and valenz                                          
   RCORE  =    2.300    outmost cutoff radius                                                       
   RWIGS  =    2.200; RWIGS  =    1.164    wigner-seitz radius (au A)                               
   ENMAX  =  295.446; ENMIN  =  221.585 eV                                                          
   ICORE  =        3    local potential                                                             
   LCOR   =        T    correct aug charges                                                         
   LPAW   =        T    paw PP                                                                      
   EAUG   =  586.980                                                                                
   DEXC   =    0.000                                                                                
   RMAX   =    2.344    core radius for proj-oper                                                   
   RAUG   =    1.300    factor for augmentation sphere                                              
   RDEP   =    2.302    radius for radial grids                                                     
   RDEPT  =    1.771    core radius for aug-charge                                                  
                                                                                                    
   Atomic configuration                                                                             
    9 entries                                                                                       
     n  l   j            E        occ.                                                              
     1  0  0.50     -8850.2468   2.0000                                                             
     2  0  0.50     -1062.3498   2.0000                                                             
     2  1  1.50      -916.8226   6.0000                                                             
     3  0  0.50      -114.6929   2.0000                                                             
     3  1  1.50       -72.1325   6.0000                                                             
     3  2  2.50        -5.0394  10.0000                                                             
     4  0  0.50        -4.6097   1.0000                                                             
     4  1  0.50        -4.0817   0.0000                                                             
     4  3  2.50        -1.3606   0.0000                                                             
   Description                                                                                      
     l       E           TYP  RCUT    TYP  RCUT                                                     
     2     -5.0393973     23  2.200                                                                 
     2     10.8846608     23  2.200                                                                 
     0     -4.6097109     23  2.200                                                                 
     0      8.2520465     23  2.200                                                                 
     1     -2.7211652     23  2.200                                                                 
     1     21.7055443     23  2.200                                                                 
     3      2.7211652     23  2.300                                                                 
  local pseudopotential read in
  partial core-charges read in
  partial kinetic energy density read in
  atomic valenz-charges read in
  non local Contribution for L=           2  read in
    real space projection operators read in
  non local Contribution for L=           2  read in
    real space projection operators read in
  non local Contribution for L=           0  read in
    real space projection operators read in
  non local Contribution for L=           0  read in
    real space projection operators read in
  non local Contribution for L=           1  read in
    real space projection operators read in
  non local Contribution for L=           1  read in
    real space projection operators read in
    PAW grid and wavefunctions read in

   number of l-projection  operators is LMAX  =           6
   number of lm-projection operators is LMMAX =          18

 -----------------------------------------------------------------------------
|                                                                             |
|               ----> ADVICE to this user running VASP <----                  |
|                                                                             |
|     You have a (more or less) 'small supercell' and for smaller cells       |
|     it is recommended to use the reciprocal-space projection scheme!        |
|     The real-space optimization is not efficient for small cells and it     |
|     is also less accurate ...                                               |
|     Therefore, set LREAL=.FALSE. in the INCAR file.                         |
|                                                                             |
 -----------------------------------------------------------------------------

 Optimization of the real space projectors (new method)

 maximal supplied QI-value         = 16.25
 optimisation between [QCUT,QGAM] = [ 11.54, 23.24] = [ 37.28,151.24] Ry 
 Optimized for a Real-space Cutoff    1.53 Angstroem

   l    n(q)    QCUT    max X(q) W(low)/X(q) W(high)/X(q)  e(spline) 
   2     10    11.539     4.610    0.96E-04    0.13E-03    0.19E-06
   2     10    11.539     8.522    0.16E-03    0.21E-03    0.28E-06
   0     11    11.539    51.609    0.45E-04    0.31E-04    0.11E-06
   0     11    11.539    27.747    0.39E-04    0.29E-04    0.10E-06
   1     10    11.539    20.408    0.70E-05    0.38E-04    0.18E-06
   1     10    11.539    13.425    0.66E-05    0.34E-04    0.17E-06
  PAW_PBE Cu 22Jun2005                  :
 energy of atom  1       EATOM=-1390.9808
 kinetic energy error for atom=    0.0037 (will be added to EATOM!!)


 POSCAR: Cu
  positions in direct lattice
  velocities in cartesian coordinates

 METAGGA = R2SCA    LMAXTAU =  6    LMIXTAU =  F

 WARNING: Using user supplied parameters
     VDW_S8 = 0.602
     VDW_A1 = 0.516
     VDW_A2 = 5.773
     because the xc functional is not supported. Required parameters not
     defined in the INCAR file will be replaced with PBE defaults ones.

 exchange correlation table for  LEXCH =        8
   RHO(1)=    0.500       N(1)  =     2000
   RHO(2)=  100.500       N(2)  =     4000



--------------------------------------------------------------------------------------------------------


 ion  position               nearest neighbor table
   1  0.550  0.515  0.534-   5 2.30   3 2.37   6 2.37   4 2.44   2 2.44
   2  0.476  0.592  0.475-   4 2.36   1 2.44   5 2.45   6 2.47
   3  0.548  0.408  0.482-   1 2.37   5 2.37   4 2.47
   4  0.534  0.509  0.413-   2 2.36   1 2.44   5 2.45   3 2.47
   5  0.450  0.474  0.495-   1 2.30   3 2.37   6 2.37   2 2.45   4 2.45
   6  0.450  0.548  0.587-   5 2.37   1 2.37   2 2.47

  LATTYP: Found a simple cubic cell.
 ALAT       =    20.0000000000
  
  Lattice vectors:
  
 A1 = (  20.0000000000,   0.0000000000,   0.0000000000)
 A2 = (   0.0000000000,  20.0000000000,   0.0000000000)
 A3 = (   0.0000000000,   0.0000000000,  20.0000000000)


Analysis of symmetry for initial positions (statically):
=====================================================================
 Subroutine PRICEL returns:
 Original cell was already a primitive cell.
 

 Routine SETGRP: Setting up the symmetry group for a 
 simple cubic supercell.


 Subroutine GETGRP returns: Found  1 space group operations
 (whereof  1 operations were pure point group operations)
 out of a pool of 48 trial point group operations.


The static configuration has the point symmetry C_1 .


Analysis of symmetry for dynamics (positions and initial velocities):
=====================================================================
 Subroutine PRICEL returns:
 Original cell was already a primitive cell.
 

 Routine SETGRP: Setting up the symmetry group for a 
 simple cubic supercell.


 Subroutine GETGRP returns: Found  1 space group operations
 (whereof  1 operations were pure point group operations)
 out of a pool of 48 trial point group operations.


The dynamic configuration has the point symmetry C_1 .


 Subroutine INISYM returns: Found  1 space group operations
 (whereof  1 operations are pure point group operations),
 and found     1 'primitive' translations


----------------------------------------------------------------------------------------

                                     Primitive cell                                     

  volume of cell :    8000.0000

  direct lattice vectors                    reciprocal lattice vectors
    20.000000000  0.000000000  0.000000000     0.050000000  0.000000000  0.000000000
     0.000000000 20.000000000  0.000000000     0.000000000  0.050000000  0.000000000
     0.000000000  0.000000000 20.000000000     0.000000000  0.000000000  0.050000000

  length of vectors
    20.000000000 20.000000000 20.000000000     0.050000000  0.050000000  0.050000000

  position of ions in fractional coordinates (direct lattice)
     0.550180947  0.514571742  0.534251098
     0.476133967  0.591618307  0.474974470
     0.547822234  0.408036558  0.482399261
     0.533713456  0.509329901  0.413283013
     0.450104448  0.473868825  0.495191651
     0.449740204  0.548367652  0.587404461

  ion indices of the primitive-cell ions
   primitive index   ion index
                 1           1
                 2           2
                 3           3
                 4           4
                 5           5
                 6           6

----------------------------------------------------------------------------------------



 KPOINTS: KPOINTS created by Atomic Simulation Env

Automatic generation of k-mesh.
 Grid dimensions read from file:
 generate k-points for:    1    1    1

 Generating k-lattice:

  Cartesian coordinates                     Fractional coordinates (reciprocal lattice)
     0.050000000  0.000000000  0.000000000     1.000000000  0.000000000  0.000000000
     0.000000000  0.050000000  0.000000000     0.000000000  1.000000000  0.000000000
     0.000000000  0.000000000  0.050000000     0.000000000  0.000000000  1.000000000

  Length of vectors
     0.050000000  0.050000000  0.050000000

  Shift w.r.t. Gamma in fractional coordinates (k-lattice)
     0.000000000  0.000000000  0.000000000

 
 Subroutine IBZKPT returns following result:
 ===========================================
 
 Found      1 irreducible k-points:
 
 Following reciprocal coordinates:
            Coordinates               Weight
  0.000000  0.000000  0.000000      1.000000
 
 Following cartesian coordinates:
            Coordinates               Weight
  0.000000  0.000000  0.000000      1.000000
 


--------------------------------------------------------------------------------------------------------




 Dimension of arrays:
   k-points           NKPTS =      1   k-points in BZ     NKDIM =      1   number of bands    NBANDS=     96
   number of dos      NEDOS =    301   number of ions     NIONS =      6
   non local maximal  LDIM  =      6   non local SUM 2l+1 LMDIM =     18
   total plane-waves  NPLWV = ******
   max r-space proj   IRMAX =   6426   max aug-charges    IRDMAX=  12418
   dimension x,y,z NGX =   150 NGY =  150 NGZ =  150
   dimension x,y,z NGXF=   300 NGYF=  300 NGZF=  300
   support grid    NGXF=   300 NGYF=  300 NGZF=  300
   ions per type =               6
   NGX,Y,Z   is equivalent  to a cutoff of  12.47, 12.47, 12.47 a.u.
   NGXF,Y,Z  is equivalent  to a cutoff of  24.94, 24.94, 24.94 a.u.

 SYSTEM =  MgO-rocksalt                            
 POSCAR =  Cu                                      

 Startparameter for this run:
   NWRITE =      2    write-flag & timer
   PREC   = accura    normal or accurate (medium, high low for compatibility)
   ISTART =      0    job   : 0-new  1-cont  2-samecut
   ICHARG =      2    charge: 1-file 2-atom 10-const
   ISPIN  =      1    spin polarized calculation?
   LNONCOLLINEAR =      F non collinear calculations
   LSORBIT =      F    spin-orbit coupling
   INIWAV =      1    electr: 0-lowe 1-rand  2-diag
   LASPH  =      T    aspherical Exc in radial PAW
 Electronic Relaxation 1
   ENCUT  =  520.0 eV  38.22 Ry    6.18 a.u.  37.19 37.19 37.19*2*pi/ulx,y,z
   ENINI  =  520.0     initial cutoff
   ENAUG  =  587.0 eV  augmentation charge cutoff
   NELM   =    200;   NELMIN=  8; NELMDL= -5     # of ELM steps 
   EDIFF  = 0.1E-05   stopping-criterion for ELM
   LREAL  =      T    real-space projection
   NLSPLINE    = F    spline interpolate recip. space projectors
   LCOMPAT=      F    compatible to vasp.4.4
   GGA_COMPAT  = T    GGA compatible to vasp.4.4-vasp.4.6
   LMAXPAW     = -100 max onsite density
   LMAXMIX     =    2 max onsite mixed and CHGCAR
   VOSKOWN=      0    Vosko Wilk Nusair interpolation
   ROPT   =   -0.00025
 Ionic relaxation
   EDIFFG = 0.1E-04   stopping-criterion for IOM
   NSW    =      0    number of steps for IOM
   NBLOCK =      1;   KBLOCK =      1    inner block; outer block 
   IBRION =     -1    ionic relax: 0-MD 1-quasi-New 2-CG
   NFREE  =      0    steps in history (QN), initial steepest desc. (CG)
   ISIF   =      2    stress and relaxation
   IWAVPR =     10    prediction:  0-non 1-charg 2-wave 3-comb
   ISYM   =      2    0-nonsym 1-usesym 2-fastsym
   LCORR  =      T    Harris-Foulkes like correction to forces

   POTIM  = 0.5000    time-step for ionic-motion
   TEIN   =    0.0    initial temperature
   TEBEG  =    0.0;   TEEND  =   0.0 temperature during run
   SMASS  =  -3.00    Nose mass-parameter (am)
   estimated Nose-frequenzy (Omega)   =  0.10E-29 period in steps = 0.13E+47 mass=  -0.914E-26a.u.
   SCALEE = 1.0000    scale energy and forces
   NPACO  =    256;   APACO  = 10.0  distance and # of slots for P.C.
   PSTRESS=    0.0 pullay stress

  Mass of Ions in am
   POMASS =  63.55
  Ionic Valenz
   ZVAL   =  11.00
  Atomic Wigner-Seitz radii
   RWIGS  =  -1.00
  virtual crystal weights 
   VCA    =   1.00
   NELECT =      66.0000    total number of electrons
   NUPDOWN=      -1.0000    fix difference up-down

 DOS related values:
   EMIN   =  10.00;   EMAX   =-10.00  energy-range for DOS
   EFERMI =   0.00
   ISMEAR =     0;   SIGMA  =   0.05  broadening in eV -4-tet -1-fermi 0-gaus

 Electronic relaxation 2 (details)
   IALGO  =     58    algorithm
   LDIAG  =      T    sub-space diagonalisation (order eigenvalues)
   LSUBROT=      F    optimize rotation matrix (better conditioning)
   TURBO    =      0    0=normal 1=particle mesh
   IRESTART =      0    0=no restart 2=restart with 2 vectors
   NREBOOT  =      0    no. of reboots
   NMIN     =      0    reboot dimension
   EREF     =   0.00    reference energy to select bands
   IMIX   =      4    mixing-type and parameters
     AMIX     =   0.40;   BMIX     =  1.00
     AMIX_MAG =   1.60;   BMIX_MAG =  1.00
     AMIN     =   0.10
     WC   =   100.;   INIMIX=   1;  MIXPRE=   1;  MAXMIX= -45

 Intra band minimization:
   WEIMIN = 0.0000     energy-eigenvalue tresh-hold
   EBREAK =  0.26E-08  absolut break condition
   DEPER  =   0.30     relativ break condition  

   TIME   =   0.40     timestep for ELM

  volume/ion in A,a.u.               =    1333.33      8997.78
  Fermi-wavevector in a.u.,A,eV,Ry     =   0.330795  0.625113  1.488826  0.109426
  Thomas-Fermi vector in A             =   1.226404

 Write flags
   LWAVE        =      F    write WAVECAR
   LDOWNSAMPLE  =      F    k-point downsampling of WAVECAR
   LCHARG       =      F    write CHGCAR
   LVTOT        =      F    write LOCPOT, total local potential
   LVHAR        =      F    write LOCPOT, Hartree potential only
   LELF         =      F    write electronic localiz. function (ELF)
   LORBIT       =      0    0 simple, 1 ext, 2 COOP (PROOUT), +10 PAW based schemes


 Dipole corrections
   LMONO  =      F    monopole corrections only (constant potential shift)
   LDIPOL =      F    correct potential (dipole corrections)
   IDIPOL =      0    1-x, 2-y, 3-z, 4-all directions 
   EPSILON=  1.0000000 bulk dielectric constant

 Exchange correlation treatment:
   GGA     =    --    GGA type
   LEXCH   =     8    internal setting for exchange type
   LIBXC   =     F    Libxc                    
   VOSKOWN =     0    Vosko Wilk Nusair interpolation
   LHFCALC =     F    Hartree Fock is set to
   LHFONE  =     F    Hartree Fock one center treatment
   AEXX    =    0.0000 exact exchange contribution

 Linear response parameters
   LEPSILON=     F    determine dielectric tensor
   LRPA    =     F    only Hartree local field effects (RPA)
   LNABLA  =     F    use nabla operator in PAW spheres
   LVEL    =     F    velocity operator in full k-point grid
   CSHIFT  =0.1000    complex shift for real part using Kramers Kronig
   OMEGAMAX=  -1.0    maximum frequency
   DEG_THRESHOLD= 0.2000000E-02 threshold for treating states as degnerate
   RTIME   =   -0.100 relaxation time in fs
  (WPLASMAI=    0.000 imaginary part of plasma frequency in eV, 0.658/RTIME)
   DFIELD  = 0.0000000 0.0000000 0.0000000 field for delta impulse in time

  Optional k-point grid parameters
   LKPOINTS_OPT  =     F    use optional k-point grid
   KPOINTS_OPT_MODE=     1    mode for optional k-point grid

 Orbital magnetization related:
   ORBITALMAG=     F  switch on orbital magnetization
   LCHIMAG   =     F  perturbation theory with respect to B field
   DQ        =  0.001000  dq finite difference perturbation B field
   LLRAUG    =     F  two centre corrections for induced B field



--------------------------------------------------------------------------------------------------------


 Static calculation
 charge density and potential will be updated during run
 non-spin polarized calculation
 Conjugate gradient for all bands (Freysoldt, et al. PRB 79, 241103 (2009))
 preconditioned conjugated gradient                                        
 perform sub-space diagonalisation
    before iterative eigenvector-optimisation
 modified Broyden-mixing scheme, WC =      100.0
 initial mixing is a Kerker type mixing with AMIX =  0.4000 and BMIX =      1.0000
 Hartree-type preconditioning will be used
 using additional bands           63
 real space projection scheme for non local part
 use partial core corrections
 no Harris-corrections to forces 
 use gradient corrections 
 use of overlap-Matrix (Vanderbilt PP)
 Gauss-broadening in eV      SIGMA  =   0.05


--------------------------------------------------------------------------------------------------------


  energy-cutoff  :      520.00
  volume of cell :     8000.00
      direct lattice vectors                 reciprocal lattice vectors
    20.000000000  0.000000000  0.000000000     0.050000000  0.000000000  0.000000000
     0.000000000 20.000000000  0.000000000     0.000000000  0.050000000  0.000000000
     0.000000000  0.000000000 20.000000000     0.000000000  0.000000000  0.050000000

  length of vectors
    20.000000000 20.000000000 20.000000000     0.050000000  0.050000000  0.050000000



 k-points in units of 2pi/SCALE and weight: KPOINTS created by Atomic Simulation Env
   0.00000000  0.00000000  0.00000000       1.000

 k-points in reciprocal lattice and weights: KPOINTS created by Atomic Simulation Env
   0.00000000  0.00000000  0.00000000       1.000

 position of ions in fractional coordinates (direct lattice) 
   0.55018095  0.51457174  0.53425110
   0.47613397  0.59161831  0.47497447
   0.54782223  0.40803656  0.48239926
   0.53371346  0.50932990  0.41328301
   0.45010445  0.47386883  0.49519165
   0.44974020  0.54836765  0.58740446

 position of ions in cartesian coordinates  (Angst):
  11.00361894 10.29143485 10.68502197
   9.52267933 11.83236614  9.49948940
  10.95644467  8.16073117  9.64798522
  10.67426912 10.18659802  8.26566025
   9.00208897  9.47737650  9.90383302
   8.99480409 10.96735303 11.74808923



--------------------------------------------------------------------------------------------------------


 k-point   1 :   0.0000 0.0000 0.0000  plane waves:  215503

 maximum and minimum number of plane-waves per node :     53900    53857

 maximum number of plane-waves:    215503
 maximum index in each direction: 
   IXMAX=   37   IYMAX=   37   IZMAX=   37
   IXMIN=  -37   IYMIN=  -37   IZMIN=  -37


 real space projection operators:
  total allocation   :       5224.08 KBytes
  max/ min on nodes  :       1314.14       1295.86


 parallel 3D FFT for wavefunctions:
    minimum data exchange during FFTs selected (reduces bandwidth)
 parallel 3D FFT for charge:
    minimum data exchange during FFTs selected (reduces bandwidth)


 total amount of memory used by VASP MPI-rank0   129945. kBytes
=======================================================================

   base      :      30000. kBytes
   nonlr-proj:       2254. kBytes
   fftplans  :      28354. kBytes
   grid      :      66714. kBytes
   one-center:         31. kBytes
   wavefun   :       2592. kBytes

     INWAV:  cpu time      0.0001: real time      0.0001
 Broyden mixing: mesh for mixing (old mesh)
   NGX = 75   NGY = 75   NGZ = 75
  (NGX  =300   NGY  =300   NGZ  =300)
  gives a total of 421875 points

 initial charge density was supplied:
 charge density of overlapping atoms calculated
 number of electron      66.0000000 magnetization 
 keeping initial charge density in first step


--------------------------------------------------------------------------------------------------------


 Maximum index for non-local projection operator         1566
 Maximum index for augmentation-charges            0 (set IRDMAX)


--------------------------------------------------------------------------------------------------------


 First call to EWALD:  gamma=   0.089
 Maximum number of real-space cells 3x 3x 3
 Maximum number of reciprocal cells 3x 3x 3

    FEWALD:  cpu time      0.0010: real time      0.0010


--------------------------------------- Iteration      1(   1)  ---------------------------------------


    POTLOK:  cpu time      0.3056: real time      0.3059
    SETDIJ:  cpu time      0.6471: real time      0.6471
    TRIAL :  cpu time      1.2880: real time      1.2894
    CORREC:  cpu time      0.0011: real time      0.0011
    --------------------------------------------
      LOOP:  cpu time      2.2429: real time      2.2446

 eigenvalue-minimisations  :   192
 total energy-change (2. order) : 0.3552698E+03  (-0.1514593E+04)
 number of electron      66.0000000 magnetization 
 augmentation part       66.0000000 magnetization 

 Free energy of the ion-electron system (eV)
  ---------------------------------------------------
  alpha Z        PSCENC =         3.29097617
  Ewald energy   TEWEN  =      5621.43623006
  -Hartree energ DENC   =    -13224.66829608
  -exchange      EXHF   =         0.00000000
  -V(xc)+E(xc)   XCENC  =       328.56032566
  PAW double counting   =      7306.04296485    -8005.70703098
  entropy T*S    EENTRO =        -0.09112523
  eigenvalues    EBANDS =       -19.45655154
  atomic energy  EATOM  =      8345.86232397
  ---------------------------------------------------
  free energy    TOTEN  =       355.26981687 eV

  energy without entropy =      355.36094210  energy(sigma->0) =      355.31537948


--------------------------------------------------------------------------------------------------------




--------------------------------------- Iteration      1(   2)  ---------------------------------------


    TRIAL :  cpu time      1.2494: real time      1.2497
    CORREC:  cpu time      0.0003: real time      0.0003
    --------------------------------------------
      LOOP:  cpu time      1.2528: real time      1.2572

 eigenvalue-minimisations  :   192
 total energy-change (2. order) :-0.4151572E+03  (-0.4141464E+03)
 number of electron      66.0000000 magnetization 
 augmentation part       66.0000000 magnetization 

 Free energy of the ion-electron system (eV)
  ---------------------------------------------------
  alpha Z        PSCENC =         3.29097617
  Ewald energy   TEWEN  =      5621.43623006
  -Hartree energ DENC   =    -13224.66829608
  -exchange      EXHF   =         0.00000000
  -V(xc)+E(xc)   XCENC  =       328.56032566
  PAW double counting   =      7306.04296485    -8005.70703098
  entropy T*S    EENTRO =        -0.00000000
  eigenvalues    EBANDS =      -434.70491224
  atomic energy  EATOM  =      8345.86232397
  ---------------------------------------------------
  free energy    TOTEN  =       -59.88741860 eV

  energy without entropy =      -59.88741860  energy(sigma->0) =      -59.88741860


--------------------------------------------------------------------------------------------------------




--------------------------------------- Iteration      1(   3)  ---------------------------------------


    TRIAL :  cpu time      1.2650: real time      1.2651
    CORREC:  cpu time      0.0003: real time      0.0003
    --------------------------------------------
      LOOP:  cpu time      1.2675: real time      1.2729

 eigenvalue-minimisations  :   192
 total energy-change (2. order) :-0.8092667E+01  (-0.8092667E+01)
 number of electron      66.0000000 magnetization 
 augmentation part       66.0000000 magnetization 

 Free energy of the ion-electron system (eV)
  ---------------------------------------------------
  alpha Z        PSCENC =         3.29097617
  Ewald energy   TEWEN  =      5621.43623006
  -Hartree energ DENC   =    -13224.66829608
  -exchange      EXHF   =         0.00000000
  -V(xc)+E(xc)   XCENC  =       328.56032566
  PAW double counting   =      7306.04296485    -8005.70703098
  entropy T*S    EENTRO =        -0.00000000
  eigenvalues    EBANDS =      -442.79757958
  atomic energy  EATOM  =      8345.86232397
  ---------------------------------------------------
  free energy    TOTEN  =       -67.98008595 eV

  energy without entropy =      -67.98008595  energy(sigma->0) =      -67.98008595


--------------------------------------------------------------------------------------------------------




--------------------------------------- Iteration      1(   4)  ---------------------------------------


    TRIAL :  cpu time      1.2620: real time      1.2622
    CORREC:  cpu time      0.0003: real time      0.0003
    --------------------------------------------
      LOOP:  cpu time      1.2689: real time      1.2694

 eigenvalue-minimisations  :   192
 total energy-change (2. order) :-0.1492821E+00  (-0.1492821E+00)
 number of electron      66.0000000 magnetization 
 augmentation part       66.0000000 magnetization 

 Free energy of the ion-electron system (eV)
  ---------------------------------------------------
  alpha Z        PSCENC =         3.29097617
  Ewald energy   TEWEN  =      5621.43623006
  -Hartree energ DENC   =    -13224.66829608
  -exchange      EXHF   =         0.00000000
  -V(xc)+E(xc)   XCENC  =       328.56032566
  PAW double counting   =      7306.04296485    -8005.70703098
  entropy T*S    EENTRO =        -0.00000000
  eigenvalues    EBANDS =      -442.94686163
  atomic energy  EATOM  =      8345.86232397
  ---------------------------------------------------
  free energy    TOTEN  =       -68.12936800 eV

  energy without entropy =      -68.12936800  energy(sigma->0) =      -68.12936800


--------------------------------------------------------------------------------------------------------




--------------------------------------- Iteration      1(   5)  ---------------------------------------


    TRIAL :  cpu time      2.9321: real time      2.9327
    CORREC:  cpu time      0.0003: real time      0.0003
    CHARGE:  cpu time      0.2526: real time      0.2531
    --------------------------------------------
      LOOP:  cpu time      3.1889: real time      3.1941

 eigenvalue-minimisations  :   384
 total energy-change (2. order) :-0.4002456E-02  (-0.4002456E-02)
 number of electron      66.0000001 magnetization 
 augmentation part       40.7716001 magnetization 

 Free energy of the ion-electron system (eV)
  ---------------------------------------------------
  alpha Z        PSCENC =         3.29097617
  Ewald energy   TEWEN  =      5621.43623006
  -Hartree energ DENC   =    -13224.66829608
  -exchange      EXHF   =         0.00000000
  -V(xc)+E(xc)   XCENC  =       328.56032566
  PAW double counting   =      7306.04296485    -8005.70703098
  entropy T*S    EENTRO =        -0.00000000
  eigenvalues    EBANDS =      -442.95086409
  atomic energy  EATOM  =      8345.86232397
  ---------------------------------------------------
  free energy    TOTEN  =       -68.13337046 eV

  energy without entropy =      -68.13337046  energy(sigma->0) =      -68.13337046


--------------------------------------------------------------------------------------------------------




--------------------------------------- Iteration      1(   6)  ---------------------------------------


    POTLOK:  cpu time      0.2921: real time      0.2921
    SETDIJ:  cpu time      0.6314: real time      0.6314
    TRIAL :  cpu time      2.0352: real time      2.0363
    CORREC:  cpu time      1.4508: real time      1.4510
    CHARGE:  cpu time      0.2477: real time      0.2477
    --------------------------------------------
      LOOP:  cpu time      4.6679: real time      4.6697

 eigenvalue-minimisations  :     0
 total energy-change (2. order) : 0.2243974E+02  (-0.7270882E+01)
 number of electron      66.0000001 magnetization 
 augmentation part       42.6027904 magnetization 

 Free energy of the ion-electron system (eV)
  ---------------------------------------------------
  alpha Z        PSCENC =         3.29097617
  Ewald energy   TEWEN  =      5621.43623006
  -Hartree energ DENC   =    -13084.48378260
  -exchange      EXHF   =         0.00000000
  -V(xc)+E(xc)   XCENC  =       319.23904187
  PAW double counting   =      7739.40172115    -8393.48255737
  entropy T*S    EENTRO =        -0.00000000
  eigenvalues    EBANDS =      -596.95758751
  atomic energy  EATOM  =      8345.86232397
  ---------------------------------------------------
  free energy    TOTEN  =       -45.69363428 eV

  energy without entropy =      -45.69363428  energy(sigma->0) =      -45.69363428


--------------------------------------------------------------------------------------------------------




--------------------------------------- Iteration      1(   7)  ---------------------------------------


    POTLOK:  cpu time      0.2869: real time      0.2870
    SETDIJ:  cpu time      0.6381: real time      0.6381
    TRIAL :  cpu time      0.9688: real time      0.9690
    CORREC:  cpu time      1.4502: real time      1.4504
    CHARGE:  cpu time      0.2496: real time      0.2496
    --------------------------------------------
      LOOP:  cpu time      3.6048: real time      3.6056

 eigenvalue-minimisations  :     0
 total energy-change (2. order) :-0.6682124E+01  (-0.8078943E+00)
 number of electron      66.0000001 magnetization 
 augmentation part       42.3938227 magnetization 

 Free energy of the ion-electron system (eV)
  ---------------------------------------------------
  alpha Z        PSCENC =         3.29097617
  Ewald energy   TEWEN  =      5621.43623006
  -Hartree energ DENC   =    -13297.89267355
  -exchange      EXHF   =         0.00000000
  -V(xc)+E(xc)   XCENC  =       329.14537528
  PAW double counting   =      7840.70285350    -8562.69937740
  entropy T*S    EENTRO =        -0.00000000
  eigenvalues    EBANDS =      -332.22146617
  atomic energy  EATOM  =      8345.86232397
  ---------------------------------------------------
  free energy    TOTEN  =       -52.37575814 eV

  energy without entropy =      -52.37575814  energy(sigma->0) =      -52.37575814


--------------------------------------------------------------------------------------------------------




--------------------------------------- Iteration      1(   8)  ---------------------------------------


    POTLOK:  cpu time      0.2838: real time      0.2839
    SETDIJ:  cpu time      0.6384: real time      0.6384
    TRIAL :  cpu time      0.9701: real time      0.9703
    CORREC:  cpu time      1.4431: real time      1.4432
    CHARGE:  cpu time      0.2485: real time      0.2487
    --------------------------------------------
      LOOP:  cpu time      3.5948: real time      3.5956

 eigenvalue-minimisations  :     0
 total energy-change (2. order) :-0.8073388E+00  (-0.2532991E+00)
 number of electron      66.0000001 magnetization 
 augmentation part       42.6592094 magnetization 

 Free energy of the ion-electron system (eV)
  ---------------------------------------------------
  alpha Z        PSCENC =         3.29097617
  Ewald energy   TEWEN  =      5621.43623006
  -Hartree energ DENC   =    -13211.64433758
  -exchange      EXHF   =         0.00000000
  -V(xc)+E(xc)   XCENC  =       327.27654346
  PAW double counting   =      7784.94810562    -8494.59785241
  entropy T*S    EENTRO =        -0.00000000
  eigenvalues    EBANDS =      -429.75508628
  atomic energy  EATOM  =      8345.86232397
  ---------------------------------------------------
  free energy    TOTEN  =       -53.18309699 eV

  energy without entropy =      -53.18309699  energy(sigma->0) =      -53.18309699


--------------------------------------------------------------------------------------------------------




--------------------------------------- Iteration      1(   9)  ---------------------------------------


    POTLOK:  cpu time      0.2814: real time      0.2820
    SETDIJ:  cpu time      0.6411: real time      0.6411
    TRIAL :  cpu time      0.9677: real time      0.9678
    CORREC:  cpu time      1.4483: real time      1.4485
    CHARGE:  cpu time      0.2481: real time      0.2481
    --------------------------------------------
      LOOP:  cpu time      3.5976: real time      3.5990

 eigenvalue-minimisations  :     0
 total energy-change (2. order) :-0.2493887E+00  (-0.1699569E+00)
 number of electron      66.0000001 magnetization 
 augmentation part       42.6488997 magnetization 

 Free energy of the ion-electron system (eV)
  ---------------------------------------------------
  alpha Z        PSCENC =         3.29097617
  Ewald energy   TEWEN  =      5621.43623006
  -Hartree energ DENC   =    -13234.91960378
  -exchange      EXHF   =         0.00000000
  -V(xc)+E(xc)   XCENC  =       328.73682385
  PAW double counting   =      7799.17426628    -8516.96232338
  entropy T*S    EENTRO =        -0.00000000
  eigenvalues    EBANDS =      -400.05117882
  atomic energy  EATOM  =      8345.86232397
  ---------------------------------------------------
  free energy    TOTEN  =       -53.43248565 eV

  energy without entropy =      -53.43248565  energy(sigma->0) =      -53.43248565


--------------------------------------------------------------------------------------------------------




--------------------------------------- Iteration      1(  10)  ---------------------------------------


    POTLOK:  cpu time      0.2869: real time      0.2869
    SETDIJ:  cpu time      0.6365: real time      0.6366
    TRIAL :  cpu time      0.9691: real time      0.9691
    CORREC:  cpu time      1.4471: real time      1.4473
    CHARGE:  cpu time      0.2475: real time      0.2475
    --------------------------------------------
      LOOP:  cpu time      3.5977: real time      3.5985

 eigenvalue-minimisations  :     0
 total energy-change (2. order) :-0.1695587E+00  (-0.4817406E-01)
 number of electron      66.0000001 magnetization 
 augmentation part       42.6150281 magnetization 

 Free energy of the ion-electron system (eV)
  ---------------------------------------------------
  alpha Z        PSCENC =         3.29097617
  Ewald energy   TEWEN  =      5621.43623006
  -Hartree energ DENC   =    -13239.26320287
  -exchange      EXHF   =         0.00000000
  -V(xc)+E(xc)   XCENC  =       328.81592666
  PAW double counting   =      7805.35647312    -8520.47743814
  entropy T*S    EENTRO =        -0.00000000
  eigenvalues    EBANDS =      -398.62333337
  atomic energy  EATOM  =      8345.86232397
  ---------------------------------------------------
  free energy    TOTEN  =       -53.60204440 eV

  energy without entropy =      -53.60204440  energy(sigma->0) =      -53.60204440


--------------------------------------------------------------------------------------------------------




--------------------------------------- Iteration      1(  11)  ---------------------------------------


    POTLOK:  cpu time      0.2843: real time      0.2843
    SETDIJ:  cpu time      0.6397: real time      0.6399
    TRIAL :  cpu time      0.9671: real time      0.9671
    CORREC:  cpu time      1.4449: real time      1.4457
    CHARGE:  cpu time      0.2478: real time      0.2478
    --------------------------------------------
      LOOP:  cpu time      3.5947: real time      3.5962

 eigenvalue-minimisations  :     0
 total energy-change (2. order) :-0.4803491E-01  (-0.5159597E-01)
 number of electron      66.0000001 magnetization 
 augmentation part       42.6930107 magnetization 

 Free energy of the ion-electron system (eV)
  ---------------------------------------------------
  alpha Z        PSCENC =         3.29097617
  Ewald energy   TEWEN  =      5621.43623006
  -Hartree energ DENC   =    -13236.40180911
  -exchange      EXHF   =         0.00000000
  -V(xc)+E(xc)   XCENC  =       328.67876855
  PAW double counting   =      7804.34876054    -8517.18720403
  entropy T*S    EENTRO =        -0.00000000
  eigenvalues    EBANDS =      -403.67812545
  atomic energy  EATOM  =      8345.86232397
  ---------------------------------------------------
  free energy    TOTEN  =       -53.65007931 eV

  energy without entropy =      -53.65007931  energy(sigma->0) =      -53.65007931


--------------------------------------------------------------------------------------------------------




--------------------------------------- Iteration      1(  12)  ---------------------------------------


    POTLOK:  cpu time      0.2941: real time      0.2941
    SETDIJ:  cpu time      0.6312: real time      0.6313
    TRIAL :  cpu time      0.9669: real time      0.9671
    CORREC:  cpu time      1.4532: real time      1.4535
    CHARGE:  cpu time      0.2482: real time      0.2482
    --------------------------------------------
      LOOP:  cpu time      3.6002: real time      3.6053

 eigenvalue-minimisations  :     0
 total energy-change (2. order) :-0.5224578E-01  (-0.8078541E-02)
 number of electron      66.0000001 magnetization 
 augmentation part       42.6540220 magnetization 

 Free energy of the ion-electron system (eV)
  ---------------------------------------------------
  alpha Z        PSCENC =         3.29097617
  Ewald energy   TEWEN  =      5621.43623006
  -Hartree energ DENC   =    -13248.01163220
  -exchange      EXHF   =         0.00000000
  -V(xc)+E(xc)   XCENC  =       329.13144188
  PAW double counting   =      7806.43135073    -8520.88180672
  entropy T*S    EENTRO =        -0.00000000
  eigenvalues    EBANDS =      -390.96120896
  atomic energy  EATOM  =      8345.86232397
  ---------------------------------------------------
  free energy    TOTEN  =       -53.70232508 eV

  energy without entropy =      -53.70232508  energy(sigma->0) =      -53.70232508


--------------------------------------------------------------------------------------------------------




--------------------------------------- Iteration      1(  13)  ---------------------------------------


    POTLOK:  cpu time      0.2820: real time      0.2820
    SETDIJ:  cpu time      0.6441: real time      0.6441
    TRIAL :  cpu time      0.9683: real time      0.9685
    CORREC:  cpu time      1.4524: real time      1.4525
    CHARGE:  cpu time      0.2488: real time      0.2489
    --------------------------------------------
      LOOP:  cpu time      3.6067: real time      3.6077

 eigenvalue-minimisations  :     0
 total energy-change (2. order) :-0.8085846E-02  (-0.7256574E-02)
 number of electron      66.0000001 magnetization 
 augmentation part       42.6840039 magnetization 

 Free energy of the ion-electron system (eV)
  ---------------------------------------------------
  alpha Z        PSCENC =         3.29097617
  Ewald energy   TEWEN  =      5621.43623006
  -Hartree energ DENC   =    -13240.48574156
  -exchange      EXHF   =         0.00000000
  -V(xc)+E(xc)   XCENC  =       328.86224089
  PAW double counting   =      7800.79295564    -8513.54817631
  entropy T*S    EENTRO =        -0.00000000
  eigenvalues    EBANDS =      -399.92121979
  atomic energy  EATOM  =      8345.86232397
  ---------------------------------------------------
  free energy    TOTEN  =       -53.71041093 eV

  energy without entropy =      -53.71041093  energy(sigma->0) =      -53.71041093


--------------------------------------------------------------------------------------------------------




--------------------------------------- Iteration      1(  14)  ---------------------------------------


    POTLOK:  cpu time      0.2873: real time      0.2874
    SETDIJ:  cpu time      0.6403: real time      0.6403
    TRIAL :  cpu time      0.9733: real time      0.9733
    CORREC:  cpu time      1.4492: real time      1.4504
    CHARGE:  cpu time      0.2471: real time      0.2471
    --------------------------------------------
      LOOP:  cpu time      3.6086: real time      3.6104

 eigenvalue-minimisations  :     0
 total energy-change (2. order) :-0.7234261E-02  (-0.8079456E-03)
 number of electron      66.0000001 magnetization 
 augmentation part       42.6800627 magnetization 

 Free energy of the ion-electron system (eV)
  ---------------------------------------------------
  alpha Z        PSCENC =         3.29097617
  Ewald energy   TEWEN  =      5621.43623006
  -Hartree energ DENC   =    -13241.70347336
  -exchange      EXHF   =         0.00000000
  -V(xc)+E(xc)   XCENC  =       328.96014706
  PAW double counting   =      7799.48384227    -8513.31901155
  entropy T*S    EENTRO =        -0.00000000
  eigenvalues    EBANDS =      -397.72867980
  atomic energy  EATOM  =      8345.86232397
  ---------------------------------------------------
  free energy    TOTEN  =       -53.71764519 eV

  energy without entropy =      -53.71764519  energy(sigma->0) =      -53.71764519


--------------------------------------------------------------------------------------------------------




--------------------------------------- Iteration      1(  15)  ---------------------------------------


    POTLOK:  cpu time      0.2862: real time      0.2862
    SETDIJ:  cpu time      0.6392: real time      0.6393
    TRIAL :  cpu time      0.9686: real time      0.9686
    CORREC:  cpu time      1.4518: real time      1.4520
    CHARGE:  cpu time      0.2475: real time      0.2475
    --------------------------------------------
      LOOP:  cpu time      3.6051: real time      3.6059

 eigenvalue-minimisations  :     0
 total energy-change (2. order) :-0.8096643E-03  (-0.6123730E-03)
 number of electron      66.0000001 magnetization 
 augmentation part       42.6778467 magnetization 

 Free energy of the ion-electron system (eV)
  ---------------------------------------------------
  alpha Z        PSCENC =         3.29097617
  Ewald energy   TEWEN  =      5621.43623006
  -Hartree energ DENC   =    -13241.04809029
  -exchange      EXHF   =         0.00000000
  -V(xc)+E(xc)   XCENC  =       328.93358320
  PAW double counting   =      7799.77547156    -8513.44624257
  entropy T*S    EENTRO =        -0.00000000
  eigenvalues    EBANDS =      -398.52270694
  atomic energy  EATOM  =      8345.86232397
  ---------------------------------------------------
  free energy    TOTEN  =       -53.71845486 eV

  energy without entropy =      -53.71845486  energy(sigma->0) =      -53.71845486


--------------------------------------------------------------------------------------------------------




--------------------------------------- Iteration      1(  16)  ---------------------------------------


    POTLOK:  cpu time      0.2834: real time      0.2834
    SETDIJ:  cpu time      0.6417: real time      0.6419
    TRIAL :  cpu time      0.9685: real time      0.9686
    CORREC:  cpu time      1.4482: real time      1.4484
    CHARGE:  cpu time      0.2474: real time      0.2475
    --------------------------------------------
      LOOP:  cpu time      3.5994: real time      3.6004

 eigenvalue-minimisations  :     0
 total energy-change (2. order) :-0.6145829E-03  (-0.1792718E-03)
 number of electron      66.0000001 magnetization 
 augmentation part       42.6846824 magnetization 

 Free energy of the ion-electron system (eV)
  ---------------------------------------------------
  alpha Z        PSCENC =         3.29097617
  Ewald energy   TEWEN  =      5621.43623006
  -Hartree energ DENC   =    -13241.03226172
  -exchange      EXHF   =         0.00000000
  -V(xc)+E(xc)   XCENC  =       328.92004972
  PAW double counting   =      7800.89466897    -8514.46296820
  entropy T*S    EENTRO =        -0.00000000
  eigenvalues    EBANDS =      -398.62808840
  atomic energy  EATOM  =      8345.86232397
  ---------------------------------------------------
  free energy    TOTEN  =       -53.71906944 eV

  energy without entropy =      -53.71906944  energy(sigma->0) =      -53.71906944


--------------------------------------------------------------------------------------------------------




--------------------------------------- Iteration      1(  17)  ---------------------------------------


    POTLOK:  cpu time      0.2831: real time      0.2831
    SETDIJ:  cpu time      0.6435: real time      0.6435
    TRIAL :  cpu time      0.9676: real time      0.9684
    CORREC:  cpu time      1.4553: real time      1.4555
    CHARGE:  cpu time      0.2493: real time      0.2494
    --------------------------------------------
      LOOP:  cpu time      3.6046: real time      3.6107

 eigenvalue-minimisations  :     0
 total energy-change (2. order) :-0.1807175E-03  (-0.1562655E-03)
 number of electron      66.0000001 magnetization 
 augmentation part       42.6794730 magnetization 

 Free energy of the ion-electron system (eV)
  ---------------------------------------------------
  alpha Z        PSCENC =         3.29097617
  Ewald energy   TEWEN  =      5621.43623006
  -Hartree energ DENC   =    -13241.83316170
  -exchange      EXHF   =         0.00000000
  -V(xc)+E(xc)   XCENC  =       328.95811760
  PAW double counting   =      7802.11454340    -8515.92781335
  entropy T*S    EENTRO =        -0.00000000
  eigenvalues    EBANDS =      -397.62046630
  atomic energy  EATOM  =      8345.86232397
  ---------------------------------------------------
  free energy    TOTEN  =       -53.71925016 eV

  energy without entropy =      -53.71925016  energy(sigma->0) =      -53.71925016


--------------------------------------------------------------------------------------------------------




--------------------------------------- Iteration      1(  18)  ---------------------------------------


    POTLOK:  cpu time      0.2835: real time      0.2835
    SETDIJ:  cpu time      0.6389: real time      0.6389
    TRIAL :  cpu time      0.9662: real time      0.9664
    CORREC:  cpu time      1.4507: real time      1.4508
    CHARGE:  cpu time      0.2499: real time      0.2501
    --------------------------------------------
      LOOP:  cpu time      3.6002: real time      3.6008

 eigenvalue-minimisations  :     0
 total energy-change (2. order) :-0.1405521E-03  (-0.3807587E-04)
 number of electron      66.0000001 magnetization 
 augmentation part       42.6828370 magnetization 

 Free energy of the ion-electron system (eV)
  ---------------------------------------------------
  alpha Z        PSCENC =         3.29097617
  Ewald energy   TEWEN  =      5621.43623006
  -Hartree energ DENC   =    -13240.87283618
  -exchange      EXHF   =         0.00000000
  -V(xc)+E(xc)   XCENC  =       328.92416249
  PAW double counting   =      7802.63377121    -8516.21821406
  entropy T*S    EENTRO =        -0.00000000
  eigenvalues    EBANDS =      -398.77580436
  atomic energy  EATOM  =      8345.86232397
  ---------------------------------------------------
  free energy    TOTEN  =       -53.71939071 eV

  energy without entropy =      -53.71939071  energy(sigma->0) =      -53.71939071


--------------------------------------------------------------------------------------------------------




--------------------------------------- Iteration      1(  19)  ---------------------------------------


    POTLOK:  cpu time      0.2831: real time      0.2831
    SETDIJ:  cpu time      0.6409: real time      0.6410
    TRIAL :  cpu time      0.9679: real time      0.9679
    CORREC:  cpu time      1.4517: real time      1.4520
    CHARGE:  cpu time      0.2478: real time      0.2478
    --------------------------------------------
      LOOP:  cpu time      3.6023: real time      3.6031

 eigenvalue-minimisations  :     0
 total energy-change (2. order) :-0.3589345E-04  (-0.2911281E-04)
 number of electron      66.0000001 magnetization 
 augmentation part       42.6811476 magnetization 

 Free energy of the ion-electron system (eV)
  ---------------------------------------------------
  alpha Z        PSCENC =         3.29097617
  Ewald energy   TEWEN  =      5621.43623006
  -Hartree energ DENC   =    -13241.37883216
  -exchange      EXHF   =         0.00000000
  -V(xc)+E(xc)   XCENC  =       328.94446398
  PAW double counting   =      7803.37929996    -8517.09758074
  entropy T*S    EENTRO =        -0.00000000
  eigenvalues    EBANDS =      -398.15630784
  atomic energy  EATOM  =      8345.86232397
  ---------------------------------------------------
  free energy    TOTEN  =       -53.71942660 eV

  energy without entropy =      -53.71942660  energy(sigma->0) =      -53.71942660


--------------------------------------------------------------------------------------------------------




--------------------------------------- Iteration      1(  20)  ---------------------------------------


    POTLOK:  cpu time      0.2845: real time      0.2846
    SETDIJ:  cpu time      0.6381: real time      0.6390
    TRIAL :  cpu time      0.9674: real time      0.9675
    CORREC:  cpu time      1.4487: real time      1.4490
    CHARGE:  cpu time      0.2462: real time      0.2463
    --------------------------------------------
      LOOP:  cpu time      3.5955: real time      3.5972

 eigenvalue-minimisations  :     0
 total energy-change (2. order) :-0.2902365E-04  (-0.7390699E-05)
 number of electron      66.0000001 magnetization 
 augmentation part       42.6807366 magnetization 

 Free energy of the ion-electron system (eV)
  ---------------------------------------------------
  alpha Z        PSCENC =         3.29097617
  Ewald energy   TEWEN  =      5621.43623006
  -Hartree energ DENC   =    -13241.23723979
  -exchange      EXHF   =         0.00000000
  -V(xc)+E(xc)   XCENC  =       328.93524460
  PAW double counting   =      7803.60103311    -8517.26363263
  entropy T*S    EENTRO =        -0.00000000
  eigenvalues    EBANDS =      -398.34439110
  atomic energy  EATOM  =      8345.86232397
  ---------------------------------------------------
  free energy    TOTEN  =       -53.71945562 eV

  energy without entropy =      -53.71945562  energy(sigma->0) =      -53.71945562


--------------------------------------------------------------------------------------------------------




--------------------------------------- Iteration      1(  21)  ---------------------------------------


    POTLOK:  cpu time      0.2837: real time      0.2837
    SETDIJ:  cpu time      0.6404: real time      0.6406
    TRIAL :  cpu time      0.9661: real time      0.9661
    CORREC:  cpu time      1.4462: real time      1.4464
    CHARGE:  cpu time      0.2466: real time      0.2467
    --------------------------------------------
      LOOP:  cpu time      3.5938: real time      3.5946

 eigenvalue-minimisations  :     0
 total energy-change (2. order) :-0.6787999E-05  (-0.6412200E-05)
 number of electron      66.0000001 magnetization 
 augmentation part       42.6812881 magnetization 

 Free energy of the ion-electron system (eV)
  ---------------------------------------------------
  alpha Z        PSCENC =         3.29097617
  Ewald energy   TEWEN  =      5621.43623006
  -Hartree energ DENC   =    -13241.13696877
  -exchange      EXHF   =         0.00000000
  -V(xc)+E(xc)   XCENC  =       328.93230991
  PAW double counting   =      7803.56359795    -8517.21225094
  entropy T*S    EENTRO =        -0.00000000
  eigenvalues    EBANDS =      -398.45568075
  atomic energy  EATOM  =      8345.86232397
  ---------------------------------------------------
  free energy    TOTEN  =       -53.71946241 eV

  energy without entropy =      -53.71946241  energy(sigma->0) =      -53.71946241


--------------------------------------------------------------------------------------------------------




--------------------------------------- Iteration      1(  22)  ---------------------------------------


    POTLOK:  cpu time      0.2839: real time      0.2839
    SETDIJ:  cpu time      0.6374: real time      0.6375
    TRIAL :  cpu time      0.9661: real time      0.9663
    CORREC:  cpu time      1.4447: real time      1.4466
    CHARGE:  cpu time      0.2475: real time      0.2476
    --------------------------------------------
      LOOP:  cpu time      3.5900: real time      3.5928

 eigenvalue-minimisations  :     0
 total energy-change (2. order) :-0.6355207E-05  (-0.1431470E-05)
 number of electron      66.0000001 magnetization 
 augmentation part       42.6811411 magnetization 

 Free energy of the ion-electron system (eV)
  ---------------------------------------------------
  alpha Z        PSCENC =         3.29097617
  Ewald energy   TEWEN  =      5621.43623006
  -Hartree energ DENC   =    -13241.15047757
  -exchange      EXHF   =         0.00000000
  -V(xc)+E(xc)   XCENC  =       328.93446911
  PAW double counting   =      7803.51027502    -8517.18131099
  entropy T*S    EENTRO =        -0.00000000
  eigenvalues    EBANDS =      -398.42195452
  atomic energy  EATOM  =      8345.86232397
  ---------------------------------------------------
  free energy    TOTEN  =       -53.71946877 eV

  energy without entropy =      -53.71946877  energy(sigma->0) =      -53.71946877


--------------------------------------------------------------------------------------------------------




--------------------------------------- Iteration      1(  23)  ---------------------------------------


    POTLOK:  cpu time      0.2837: real time      0.2837
    SETDIJ:  cpu time      0.6402: real time      0.6402
    TRIAL :  cpu time      0.9665: real time      0.9667
    CORREC:  cpu time      1.4476: real time      1.4477
    EDDIAG:  cpu time      0.2666: real time      0.2668
    CHARGE:  cpu time      0.2448: real time      0.2448
    --------------------------------------------
      LOOP:  cpu time      3.8595: real time      3.8604

 eigenvalue-minimisations  :     0
 total energy-change (2. order) :-0.8525285E-06  (-0.4464740E-06)
 number of electron      66.0000001 magnetization 
 augmentation part       42.6811139 magnetization 

 Free energy of the ion-electron system (eV)
  ---------------------------------------------------
  alpha Z        PSCENC =         3.29097617
  Ewald energy   TEWEN  =      5621.43623006
  -Hartree energ DENC   =    -13241.12494492
  -exchange      EXHF   =         0.00000000
  -V(xc)+E(xc)   XCENC  =       328.93346204
  PAW double counting   =      7803.46092736    -8517.12665001
  entropy T*S    EENTRO =        -0.00000000
  eigenvalues    EBANDS =      -398.45179427
  atomic energy  EATOM  =      8345.86232397
  ---------------------------------------------------
  free energy    TOTEN  =       -53.71946962 eV

  energy without entropy =      -53.71946962  energy(sigma->0) =      -53.71946962


--------------------------------------------------------------------------------------------------------


  average scaling for gradient   1.4250


 average (electrostatic) potential at core
  the test charge radii are     0.9430
  (the norm of the test charge is              1.0000)
       1 -80.0726       2 -79.6498       3 -79.6640       4 -79.6485       5 -80.0713
       6 -79.6645



 E-fermi :  -4.0390     XC(G=0):  -0.2678     alpha+bet : -0.1189

 Fermi energy:        -4.0390179881

 k-point     1 :       0.0000    0.0000    0.0000
  band No.  band energies     occupation 
      1      -9.5246      2.00000
      2      -7.9437      2.00000
      3      -7.4763      2.00000
      4      -7.1447      2.00000
      5      -7.1299      2.00000
      6      -6.8639      2.00000
      7      -6.8604      2.00000
      8      -6.6895      2.00000
      9      -6.6092      2.00000
     10      -6.4490      2.00000
     11      -6.3429      2.00000
     12      -6.1370      2.00000
     13      -6.0827      2.00000
     14      -5.9865      2.00000
     15      -5.8041      2.00000
     16      -5.8018      2.00000
     17      -5.7218      2.00000
     18      -5.7168      2.00000
     19      -5.6802      2.00000
     20      -5.6321      2.00000
     21      -5.6221      2.00000
     22      -5.5268      2.00000
     23      -5.5002      2.00000
     24      -5.4747      2.00000
     25      -5.2950      2.00000
     26      -5.2610      2.00000
     27      -5.2526      2.00000
     28      -5.2008      2.00000
     29      -5.1981      2.00000
     30      -5.1589      2.00000
     31      -5.0202      2.00000
     32      -4.8458      2.00000
     33      -4.2718      2.00000
     34      -3.7081      0.00000
     35      -2.4296      0.00000
     36      -2.0864      0.00000
     37      -1.3173      0.00000
     38      -1.2530      0.00000
     39      -0.6515      0.00000
     40      -0.5779      0.00000
     41      -0.3556      0.00000
     42       0.0554      0.00000
     43       0.1425      0.00000
     44       0.4334      0.00000
     45       0.4734      0.00000
     46       0.4780      0.00000
     47       0.5108      0.00000
     48       0.5300      0.00000
     49       0.6058      0.00000
     50       0.7810      0.00000
     51       0.7838      0.00000
     52       0.8180      0.00000
     53       0.8291      0.00000
     54       0.8399      0.00000
     55       0.8447      0.00000
     56       0.8485      0.00000
     57       0.8548      0.00000
     58       0.8693      0.00000
     59       0.8828      0.00000
     60       0.9411      0.00000
     61       0.9712      0.00000
     62       1.0977      0.00000
     63       1.1909      0.00000
     64       1.2128      0.00000
     65       1.2186      0.00000
     66       1.2208      0.00000
     67       1.2358      0.00000
     68       1.2684      0.00000
     69       1.2921      0.00000
     70       1.4487      0.00000
     71       1.4620      0.00000
     72       1.4925      0.00000
     73       1.5936      0.00000
     74       1.6007      0.00000
     75       1.6105      0.00000
     76       1.6678      0.00000
     77       1.7229      0.00000
     78       1.7442      0.00000
     79       1.8515      0.00000
     80       1.8953      0.00000
     81       1.9222      0.00000
     82       1.9325      0.00000
     83       1.9382      0.00000
     84       1.9497      0.00000
     85       1.9529      0.00000
     86       1.9553      0.00000
     87       1.9586      0.00000
     88       1.9633      0.00000
     89       1.9746      0.00000
     90       1.9762      0.00000
     91       1.9778      0.00000
     92       1.9844      0.00000
     93       1.9994      0.00000
     94       2.0060      0.00000
     95       2.0227      0.00000
     96       2.0281      0.00000


--------------------------------------------------------------------------------------------------------


 soft charge-density along one line, spin component           1
         0         1         2         3         4         5         6         7         8         9
 total charge-density along one line

 pseudopotential strength for first ion, spin component:           1
-10.956  -0.010   0.005  -0.017   0.006   1.268   0.007  -0.002
 -0.010 -10.926  -0.010  -0.003   0.024   0.007   1.245   0.009
  0.005  -0.010 -10.929  -0.011   0.018  -0.002   0.009   1.247
 -0.017  -0.003  -0.011 -10.948  -0.004   0.014   0.002   0.008
  0.006   0.024   0.018  -0.004 -10.956  -0.005  -0.019  -0.013
  1.268   0.007  -0.002   0.014  -0.005   6.306  -0.000  -0.003
  0.007   1.245   0.009   0.002  -0.019  -0.000   6.318  -0.007
 -0.002   0.009   1.247   0.008  -0.013  -0.003  -0.007   6.319
  0.014   0.002   0.008   1.261   0.003  -0.011   0.001  -0.002
 -0.005  -0.019  -0.013   0.003   1.268   0.003   0.014   0.006
 -0.003   0.010  -0.003   0.001   0.003   0.004  -0.001  -0.001
 -0.006   0.018  -0.006   0.000   0.005   0.007  -0.000  -0.002
  0.027   0.011  -0.006   0.001  -0.008  -0.008  -0.006   0.002
  0.001   0.011   0.012   0.028   0.002  -0.002  -0.003  -0.004
  0.014   0.001  -0.017   0.016   0.029  -0.003  -0.002   0.006
  0.029   0.012  -0.007   0.002  -0.007  -0.009  -0.009   0.001
  0.002   0.012   0.012   0.030   0.004  -0.003  -0.002  -0.006
  0.016   0.002  -0.019   0.019   0.034  -0.003  -0.003   0.007
 total augmentation occupancy for first ion, spin component:           1
  1.950   0.007  -0.004  -0.010  -0.012  -0.017   0.002   0.001   0.009   0.007  -0.031   0.014  -0.054  -0.006  -0.035   0.038
  0.007   1.955  -0.004   0.002  -0.004   0.002  -0.024   0.001  -0.004  -0.002  -0.034  -0.001  -0.028  -0.018  -0.012   0.016
 -0.004  -0.004   1.953   0.014  -0.006   0.001   0.001  -0.018  -0.005   0.000   0.028  -0.005   0.022  -0.017   0.035  -0.009
 -0.010   0.002   0.014   1.949  -0.006   0.009  -0.004  -0.005  -0.015   0.002  -0.041   0.012  -0.015  -0.058  -0.040  -0.000
 -0.012  -0.004  -0.006  -0.006   1.950   0.007  -0.002   0.000   0.003  -0.014  -0.046   0.011   0.014  -0.001  -0.075  -0.015
 -0.017   0.002   0.001   0.009   0.007   0.012   0.003   0.000   0.002  -0.001  -0.016   0.002  -0.031  -0.003   0.003   0.003
  0.002  -0.024   0.001  -0.004  -0.002   0.003   0.011  -0.000  -0.001  -0.003   0.045  -0.005  -0.031  -0.002   0.001   0.003
  0.001   0.001  -0.018  -0.005   0.000   0.000  -0.000   0.012   0.003  -0.003  -0.012   0.001   0.005  -0.028   0.018  -0.000
  0.009  -0.004  -0.005  -0.015   0.003   0.002  -0.001   0.003   0.013   0.001   0.015  -0.005   0.001  -0.033  -0.009   0.000
  0.007  -0.002   0.000   0.002  -0.014  -0.001  -0.003  -0.003   0.001   0.013   0.019  -0.004   0.017   0.010  -0.031  -0.002
 -0.031  -0.034   0.028  -0.041  -0.046  -0.016   0.045  -0.012   0.015   0.019   1.867  -0.256  -0.103  -0.178  -0.338   0.015
  0.014  -0.001  -0.005   0.012   0.011   0.002  -0.005   0.001  -0.005  -0.004  -0.256   0.037   0.010   0.034   0.051  -0.002
 -0.054  -0.028   0.022  -0.015   0.014  -0.031  -0.031   0.005   0.001   0.017  -0.103   0.010   0.199   0.018  -0.037  -0.023
 -0.006  -0.018  -0.017  -0.058  -0.001  -0.003  -0.002  -0.028  -0.033   0.010  -0.178   0.034   0.018   0.198  -0.017  -0.003
 -0.035  -0.012   0.035  -0.040  -0.075   0.003   0.001   0.018  -0.009  -0.031  -0.338   0.051  -0.037  -0.017   0.167   0.003
  0.038   0.016  -0.009  -0.000  -0.015   0.003   0.003  -0.000   0.000  -0.002   0.015  -0.002  -0.023  -0.003   0.003   0.003
 -0.001   0.014   0.019   0.038  -0.001   0.000   0.001   0.003   0.003  -0.001   0.032  -0.005  -0.004  -0.023  -0.001   0.001
  0.014  -0.001  -0.021   0.014   0.037  -0.001   0.000  -0.002   0.001   0.004   0.056  -0.008   0.003  -0.001  -0.024  -0.000


------------------------ aborting loop because EDIFF is reached ----------------------------------------


    FORLOC:  cpu time      0.0027: real time      0.0027
    FORNL :  cpu time      0.1039: real time      0.1039
    STRESS:  cpu time      3.2912: real time      3.2920
    FORCOR:  cpu time      0.1918: real time      0.1919
    OFIELD:  cpu time      0.0002: real time      0.0002
    FORVDW:  cpu time      0.0041: real time      0.0041

  FORCE on cell =-STRESS in cart. coord.  units (eV):
  Direction    XX          YY          ZZ          XY          YZ          ZX
  --------------------------------------------------------------------------------------
  Alpha Z     3.29098     3.29098     3.29098
  Ewald    1224.91789  2349.80372  2046.71246  -827.68988   367.27992  -696.36617
  Hartree  3839.04506  4824.55985  4577.52155  -701.98434   285.35555  -594.58653
  E(xc)    -426.20258  -425.95772  -425.96949    -0.13323    -0.01816    -0.12347
  Local   -5625.55123 -7740.95632 -7193.48937  1529.48633  -646.75694  1291.67037
  n-local  -142.05166  -139.09123  -138.89358    -1.28055    -0.85557    -1.29047
  augment   586.59287   587.26374   588.42958     0.81283    -2.32282     0.38706
  Kinetic   539.06319   539.90090   541.26401     0.96039    -2.72482     0.46115
  Fock        0.00000     0.00000     0.00000     0.00000     0.00000     0.00000
  vdW        -0.00265    -0.00552    -0.00441     0.00247    -0.00157     0.00201
  -------------------------------------------------------------------------------------
  Total      -0.89813    -1.19161    -1.13829     0.17403    -0.04441     0.15394
  in kB      -0.17987    -0.23865    -0.22797     0.03485    -0.00889     0.03083
  external pressure =       -0.22 kB  Pullay stress =        0.00 kB


 VOLUME and BASIS-vectors are now :
 -----------------------------------------------------------------------------
  energy-cutoff  :      520.00
  volume of cell :     8000.00
      direct lattice vectors                 reciprocal lattice vectors
    20.000000000  0.000000000  0.000000000     0.050000000  0.000000000  0.000000000
     0.000000000 20.000000000  0.000000000     0.000000000  0.050000000  0.000000000
     0.000000000  0.000000000 20.000000000     0.000000000  0.000000000  0.050000000

  length of vectors
    20.000000000 20.000000000 20.000000000     0.050000000  0.050000000  0.050000000


 FORCES acting on ions:
    Electron-Ion                     Ewald-Force                    Non-Local-Force
 -----------------------------------------------------------------------------------------------
   -.776E+03 -.139E+03 -.539E+03   0.767E+03 0.135E+03 0.535E+03   0.925E+01 0.408E+01 0.320E+01
   0.248E+03 -.888E+03 0.289E+03   -.245E+03 0.879E+03 -.288E+03   -.358E+01 0.895E+01 -.112E+00
   -.376E+03 0.865E+03 0.612E+02   0.371E+03 -.854E+03 -.598E+02   0.492E+01 -.108E+02 -.140E+01
   -.329E+03 -.630E+02 0.906E+03   0.325E+03 0.652E+02 -.897E+03   0.414E+01 -.216E+01 -.840E+01
   0.807E+03 0.504E+03 0.804E+02   -.798E+03 -.501E+03 -.763E+02   -.921E+01 -.343E+01 -.404E+01
   0.426E+03 -.280E+03 -.797E+03   -.420E+03 0.276E+03 0.787E+03   -.545E+01 0.416E+01 0.971E+01
 -----------------------------------------------------------------------------------------------
   -.654E-01 -.831E+00 0.106E+01   -.568E-13 0.114E-12 0.000E+00   0.696E-01 0.814E+00 -.105E+01


 POSITION                                       TOTAL-FORCE (eV/Angst)
 -----------------------------------------------------------------------------------
     11.00362     10.29143     10.68502        -0.305849     -0.072054     -0.205288
      9.52268     11.83237      9.49949         0.090059     -0.257401      0.097814
     10.95644      8.16073      9.64799        -0.122645      0.235680      0.028219
     10.67427     10.18660      8.26566        -0.110491     -0.018013      0.295951
      9.00209      9.47738      9.90383         0.308732      0.168219      0.050926
      8.99480     10.96735     11.74809         0.140193     -0.056431     -0.267622
 -----------------------------------------------------------------------------------
    total drift:                                0.004236     -0.017621      0.007881


--------------------------------------------------------------------------------------------------------



  FREE ENERGIE OF THE ION-ELECTRON SYSTEM (eV)
  ---------------------------------------------------
  free  energy   TOTEN  =       -53.79596235 eV

  energy  without entropy=      -53.79596235  energy(sigma->0) =      -53.79596235



--------------------------------------------------------------------------------------------------------


    POTLOK:  cpu time      1.0763: real time      1.0764


--------------------------------------------------------------------------------------------------------


     LOOP+:  cpu time     80.6628: real time     80.7208
    4ORBIT:  cpu time      0.0000: real time      0.0000

 total amount of memory used by VASP MPI-rank0   129945. kBytes
=======================================================================

   base      :      30000. kBytes
   nonlr-proj:       2254. kBytes
   fftplans  :      28354. kBytes
   grid      :      66714. kBytes
   one-center:         31. kBytes
   wavefun   :       2592. kBytes

  
  
 General timing and accounting informations for this job:
 ========================================================
  
                  Total CPU time used (sec):      101.175
                            User time (sec):      100.055
                          System time (sec):        1.120
                         Elapsed time (sec):      103.283
  
                   Maximum memory used (kb):      404396.
                   Average memory used (kb):          N/A
  
                          Minor page faults:        27509
                          Major page faults:            0
                 Voluntary context switches:         9812
