 vasp.6.3.0 20Jan22 (build Apr  1 2022 16:44:48) complex                         
 executed on        HPECrayEX_GCC date 2022.08.15  18:43:07
 running  512 mpi-ranks, with    1 threads/rank
 distrk:  each k-point on  256 cores,    2 groups
 distr:  one band on NCORE=   4 cores,   64 groups


--------------------------------------------------------------------------------------------------------


 INCAR:
   SYSTEM = MgO-rocksalt
   ISMEAR = 0
   SIGMA = 0.05
   EDIFF = 1E-6
   ALGO = ALL
   ISTART = 0
   IBRION = -1
   NSW = 0
   ISYM = 2
   DIPOL = 0.5 0.5 0.5
   IDIPOL = 3
   LDIPOL = .TRUE.
   GGA = PE
   IVDW = 212
   LVDWEXPANSION = .TRUE.
   ENCUT = 520
   PREC = Accurate
   LASPH = .TRUE.
   LREAL = Auto
   ISPIN = 1
   NELM = 200
   NELMIN = 8
   NCORE = 4
   KPAR = 2
   LWAVE = .FALSE.
   LCHARG = .FALSE.

 POTCAR:    PAW_PBE Au 04Oct2007                  
 POTCAR:    PAW_PBE Au 04Oct2007                  
   SHA256 =  d0044ae04e2bdce24051b198fc5c053d722a5bc6fe3c3b100514a13fc5d2db88 Au/POTCAR             
   COPYR  = (c) Copyright 04Oct2007 Georg Kresse                                                    
   COPYR  = This file is part of the software VASP. Any use, copying, and all other rights are regul
   COPYR  = If you do not have a valid VASP license, you may not use, copy or distribute this file. 
   VRHFIN =Au: s1d10                                                                                
   LEXCH  = PE                                                                                      
   EATOM  =   926.0867 eV,   68.0654 Ry                                                             
                                                                                                    
   TITEL  = PAW_PBE Au 04Oct2007                                                                    
   LULTRA =        F    use ultrasoft PP ?                                                          
   IUNSCR =        1    unscreen: 0-lin 1-nonlin 2-no                                               
   RPACOR =    2.330    partial core radius                                                         
   POMASS =  196.966; ZVAL   =   11.000    mass and valenz                                          
   RCORE  =    2.500    outmost cutoff radius                                                       
   RWIGS  =    2.840; RWIGS  =    1.503    wigner-seitz radius (au A)                               
   ENMAX  =  229.943; ENMIN  =  172.457 eV                                                          
   ICORE  =        3    local potential                                                             
   LCOR   =        T    correct aug charges                                                         
   LPAW   =        T    paw PP                                                                      
   EAUG   =  356.670                                                                                
   DEXC   =    0.000                                                                                
   RMAX   =    2.562    core radius for proj-oper                                                   
   RAUG   =    1.300    factor for augmentation sphere                                              
   RDEP   =    2.598    radius for radial grids                                                     
   RDEPT  =    2.193    core radius for aug-charge                                                  
                                                                                                    
   Atomic configuration                                                                             
   16 entries                                                                                       
     n  l   j            E        occ.                                                              
     1  0  0.50    -80748.5001   2.0000                                                             
     2  0  0.50    -14244.7466   2.0000                                                             
     2  1  1.50    -12310.9591   6.0000                                                             
     3  0  0.50     -3362.1768   2.0000                                                             
     3  1  1.50     -2801.5463   6.0000                                                             
     3  2  2.50     -2203.8206  10.0000                                                             
     4  0  0.50      -729.8168   2.0000                                                             
     4  1  1.50      -546.0527   6.0000                                                             
     4  2  2.50      -325.7302  10.0000                                                             
     4  3  3.50       -81.1472  14.0000                                                             
     5  0  0.50      -108.3201   2.0000                                                             
     5  1  1.50       -59.7479   6.0000                                                             
     5  2  2.50        -6.8783  10.0000                                                             
     6  0  0.50        -5.7602   1.0000                                                             
     6  1  1.50        -6.8029   0.0000                                                             
     5  3  2.50        -1.3606   0.0000                                                             
   Description                                                                                      
     l       E           TYP  RCUT    TYP  RCUT                                                     
     2     -6.8782861     23  2.500                                                                 
     2     -8.2388687     23  2.500                                                                 
     0     -5.7601759     23  2.500                                                                 
     0     -0.8493231     23  2.500                                                                 
     1     -2.7211652     23  2.500                                                                 
     1     27.2116520     23  2.500                                                                 
     3     -1.3605826     23  2.500                                                                 
  local pseudopotential read in
  partial core-charges read in
  partial kinetic energy density read in
  atomic valenz-charges read in
  non local Contribution for L=           2  read in
    real space projection operators read in
  non local Contribution for L=           2  read in
    real space projection operators read in
  non local Contribution for L=           0  read in
    real space projection operators read in
  non local Contribution for L=           0  read in
    real space projection operators read in
  non local Contribution for L=           1  read in
    real space projection operators read in
  non local Contribution for L=           1  read in
    real space projection operators read in
    PAW grid and wavefunctions read in

   number of l-projection  operators is LMAX  =           6
   number of lm-projection operators is LMMAX =          18

 -----------------------------------------------------------------------------
|                                                                             |
|               ----> ADVICE to this user running VASP <----                  |
|                                                                             |
|     You have a (more or less) 'small supercell' and for smaller cells       |
|     it is recommended to use the reciprocal-space projection scheme!        |
|     The real-space optimization is not efficient for small cells and it     |
|     is also less accurate ...                                               |
|     Therefore, set LREAL=.FALSE. in the INCAR file.                         |
|                                                                             |
 -----------------------------------------------------------------------------

 Optimization of the real space projectors (new method)

 maximal supplied QI-value         = 15.12
 optimisation between [QCUT,QGAM] = [ 11.64, 23.28] = [ 37.95,151.78] Ry 
 Optimized for a Real-space Cutoff    1.49 Angstroem

   l    n(q)    QCUT    max X(q) W(low)/X(q) W(high)/X(q)  e(spline) 
   2      9    11.641    60.898    0.24E-03    0.10E-03    0.19E-06
   2      9    11.641    58.894    0.25E-03    0.10E-03    0.19E-06
   0     10    11.641   109.617    0.73E-04    0.33E-04    0.11E-06
   0     10    11.641    75.026    0.71E-04    0.32E-04    0.11E-06
   1     10    11.641    16.344    0.27E-04    0.97E-04    0.16E-06
   1     10    11.641    10.160    0.23E-04    0.77E-04    0.13E-06
  PAW_PBE Au 04Oct2007                  :
 energy of atom  1       EATOM= -926.0867
 kinetic energy error for atom=    0.0034 (will be added to EATOM!!)


 POSCAR: Au
  positions in direct lattice
  No initial velocities read in
 exchange correlation table for  LEXCH =        8
   RHO(1)=    0.500       N(1)  =     2000
   RHO(2)=  100.500       N(2)  =     4000



--------------------------------------------------------------------------------------------------------


 ion  position               nearest neighbor table
   1  0.661  0.500  0.614-   2 2.57
   2  0.539  0.500  0.614-   1 2.57

  LATTYP: Found a simple tetragonal cell.
 ALAT       =    21.1388521970
 C/A-ratio  =     1.0461251639
  
  Lattice vectors:
  
 A1 = (  21.1388521970,   0.0000000000,   0.0000000000)
 A2 = (   0.0000000000,  21.1388521970,   0.0000000000)
 A3 = (   0.0000000000,   0.0000000000,  22.1138852197)


Analysis of symmetry for initial positions (statically):
=====================================================================
 Subroutine PRICEL returns:
 Original cell was already a primitive cell.
 

 Routine SETGRP: Setting up the symmetry group for a 
 simple tetragonal supercell.


 Subroutine GETGRP returns: Found  8 space group operations
 (whereof  2 operations were pure point group operations)
 out of a pool of 16 trial point group operations.


The static configuration has the point symmetry C_1h.
 The point group associated with its full space group is D_2h.


Analysis of symmetry for dynamics (positions and initial velocities):
=====================================================================
 Subroutine PRICEL returns:
 Original cell was already a primitive cell.
 

 Routine SETGRP: Setting up the symmetry group for a 
 simple tetragonal supercell.


 Subroutine GETGRP returns: Found  8 space group operations
 (whereof  2 operations were pure point group operations)
 out of a pool of 16 trial point group operations.


The dynamic configuration has the point symmetry C_1h.
 The point group associated with its full space group is D_2h.


 Subroutine INISYM returns: Found  8 space group operations
 (whereof  2 operations are pure point group operations),
 and found     1 'primitive' translations


----------------------------------------------------------------------------------------

                                     Primitive cell                                     

  volume of cell :    9881.6133

  direct lattice vectors                    reciprocal lattice vectors
    21.138852197  0.000000000  0.000000000     0.047306258  0.000000000  0.000000000
     0.000000000 21.138852197  0.000000000     0.000000000  0.047306258  0.000000000
     0.000000000  0.000000000 22.113885220     0.000000000  0.000000000  0.045220457

  length of vectors
    21.138852197 21.138852197 22.113885220     0.047306258  0.047306258  0.045220457

  position of ions in fractional coordinates (direct lattice)
     0.660731451  0.500000000  0.613578390
     0.539268477  0.500000000  0.613578390

  ion indices of the primitive-cell ions
   primitive index   ion index
                 1           1
                 2           2

----------------------------------------------------------------------------------------



 KPOINTS: KPOINTS created by Atomic Simulation Env

Automatic generation of k-mesh.
 Grid dimensions read from file:
 generate k-points for:    4    4    1

 Generating k-lattice:

  Cartesian coordinates                     Fractional coordinates (reciprocal lattice)
     0.011826565  0.000000000  0.000000000     0.250000000  0.000000000  0.000000000
     0.000000000  0.011826565  0.000000000     0.000000000  0.250000000  0.000000000
     0.000000000  0.000000000  0.045220457     0.000000000  0.000000000  1.000000000

  Length of vectors
     0.011826565  0.011826565  0.045220457

  Shift w.r.t. Gamma in fractional coordinates (k-lattice)
     0.500000000  0.500000000  0.000000000

 
 Subroutine IBZKPT returns following result:
 ===========================================
 
 Found      4 irreducible k-points:
 
 Following reciprocal coordinates:
            Coordinates               Weight
  0.125000  0.125000  0.000000      4.000000
  0.375000  0.125000  0.000000      4.000000
 -0.125000  0.375000  0.000000      4.000000
  0.375000  0.375000  0.000000      4.000000
 
 Following cartesian coordinates:
            Coordinates               Weight
  0.005913  0.005913  0.000000      4.000000
  0.017740  0.005913  0.000000      4.000000
 -0.005913  0.017740  0.000000      4.000000
  0.017740  0.017740  0.000000      4.000000
 


--------------------------------------------------------------------------------------------------------




 Dimension of arrays:
   k-points           NKPTS =      4   k-points in BZ     NKDIM =      4   number of bands    NBANDS=     64
   number of dos      NEDOS =    301   number of ions     NIONS =      2
   non local maximal  LDIM  =      6   non local SUM 2l+1 LMDIM =     18
   total plane-waves  NPLWV = ******
   max r-space proj   IRMAX =   6070   max aug-charges    IRDMAX=  26812
   dimension x,y,z NGX =   160 NGY =  160 NGZ =  168
   dimension x,y,z NGXF=   320 NGYF=  320 NGZF=  336
   support grid    NGXF=   320 NGYF=  320 NGZF=  336
   ions per type =               2
   NGX,Y,Z   is equivalent  to a cutoff of  12.58, 12.58, 12.63 a.u.
   NGXF,Y,Z  is equivalent  to a cutoff of  25.17, 25.17, 25.26 a.u.

 SYSTEM =  MgO-rocksalt                            
 POSCAR =  Au                                      

 Startparameter for this run:
   NWRITE =      2    write-flag & timer
   PREC   = accura    normal or accurate (medium, high low for compatibility)
   ISTART =      0    job   : 0-new  1-cont  2-samecut
   ICHARG =      2    charge: 1-file 2-atom 10-const
   ISPIN  =      1    spin polarized calculation?
   LNONCOLLINEAR =      F non collinear calculations
   LSORBIT =      F    spin-orbit coupling
   INIWAV =      1    electr: 0-lowe 1-rand  2-diag
   LASPH  =      T    aspherical Exc in radial PAW
 Electronic Relaxation 1
   ENCUT  =  520.0 eV  38.22 Ry    6.18 a.u.  39.30 39.30 41.12*2*pi/ulx,y,z
   ENINI  =  520.0     initial cutoff
   ENAUG  =  356.7 eV  augmentation charge cutoff
   NELM   =    200;   NELMIN=  8; NELMDL= -5     # of ELM steps 
   EDIFF  = 0.1E-05   stopping-criterion for ELM
   LREAL  =      T    real-space projection
   NLSPLINE    = F    spline interpolate recip. space projectors
   LCOMPAT=      F    compatible to vasp.4.4
   GGA_COMPAT  = T    GGA compatible to vasp.4.4-vasp.4.6
   LMAXPAW     = -100 max onsite density
   LMAXMIX     =    2 max onsite mixed and CHGCAR
   VOSKOWN=      0    Vosko Wilk Nusair interpolation
   ROPT   =   -0.00025
 Ionic relaxation
   EDIFFG = 0.1E-04   stopping-criterion for IOM
   NSW    =      0    number of steps for IOM
   NBLOCK =      1;   KBLOCK =      1    inner block; outer block 
   IBRION =     -1    ionic relax: 0-MD 1-quasi-New 2-CG
   NFREE  =      0    steps in history (QN), initial steepest desc. (CG)
   ISIF   =      2    stress and relaxation
   IWAVPR =     10    prediction:  0-non 1-charg 2-wave 3-comb
   ISYM   =      2    0-nonsym 1-usesym 2-fastsym
   LCORR  =      T    Harris-Foulkes like correction to forces

   POTIM  = 0.5000    time-step for ionic-motion
   TEIN   =    0.0    initial temperature
   TEBEG  =    0.0;   TEEND  =   0.0 temperature during run
   SMASS  =  -3.00    Nose mass-parameter (am)
   estimated Nose-frequenzy (Omega)   =  0.10E-29 period in steps = 0.13E+47 mass=  -0.102E-25a.u.
   SCALEE = 1.0000    scale energy and forces
   NPACO  =    256;   APACO  = 10.0  distance and # of slots for P.C.
   PSTRESS=    0.0 pullay stress

  Mass of Ions in am
   POMASS = 196.97
  Ionic Valenz
   ZVAL   =  11.00
  Atomic Wigner-Seitz radii
   RWIGS  =  -1.00
  virtual crystal weights 
   VCA    =   1.00
   NELECT =      22.0000    total number of electrons
   NUPDOWN=      -1.0000    fix difference up-down

 DOS related values:
   EMIN   =  10.00;   EMAX   =-10.00  energy-range for DOS
   EFERMI =   0.00
   ISMEAR =     0;   SIGMA  =   0.05  broadening in eV -4-tet -1-fermi 0-gaus

 Electronic relaxation 2 (details)
   IALGO  =     58    algorithm
   LDIAG  =      T    sub-space diagonalisation (order eigenvalues)
   LSUBROT=      F    optimize rotation matrix (better conditioning)
   TURBO    =      0    0=normal 1=particle mesh
   IRESTART =      0    0=no restart 2=restart with 2 vectors
   NREBOOT  =      0    no. of reboots
   NMIN     =      0    reboot dimension
   EREF     =   0.00    reference energy to select bands
   IMIX   =      4    mixing-type and parameters
     AMIX     =   0.40;   BMIX     =  1.00
     AMIX_MAG =   1.60;   BMIX_MAG =  1.00
     AMIN     =   0.10
     WC   =   100.;   INIMIX=   1;  MIXPRE=   1;  MAXMIX= -45

 Intra band minimization:
   WEIMIN = 0.0000     energy-eigenvalue tresh-hold
   EBREAK =  0.39E-08  absolut break condition
   DEPER  =   0.30     relativ break condition  

   TIME   =   0.40     timestep for ELM

  volume/ion in A,a.u.               =    4940.81     33342.21
  Fermi-wavevector in a.u.,A,eV,Ry     =   0.213767  0.403960  0.621734  0.045696
  Thomas-Fermi vector in A             =   0.985879

 Write flags
   LWAVE        =      F    write WAVECAR
   LDOWNSAMPLE  =      F    k-point downsampling of WAVECAR
   LCHARG       =      F    write CHGCAR
   LVTOT        =      F    write LOCPOT, total local potential
   LVHAR        =      F    write LOCPOT, Hartree potential only
   LELF         =      F    write electronic localiz. function (ELF)
   LORBIT       =      0    0 simple, 1 ext, 2 COOP (PROOUT), +10 PAW based schemes


 Dipole corrections
   LMONO  =      F    monopole corrections only (constant potential shift)
   LDIPOL =      T    correct potential (dipole corrections)
   IDIPOL =      3    1-x, 2-y, 3-z, 4-all directions 
   EPSILON=  1.0000000 bulk dielectric constant

 Exchange correlation treatment:
   GGA     =    PE    GGA type
   LEXCH   =     8    internal setting for exchange type
   LIBXC   =     F    Libxc                    
   VOSKOWN =     0    Vosko Wilk Nusair interpolation
   LHFCALC =     F    Hartree Fock is set to
   LHFONE  =     F    Hartree Fock one center treatment
   AEXX    =    0.0000 exact exchange contribution

 Linear response parameters
   LEPSILON=     F    determine dielectric tensor
   LRPA    =     F    only Hartree local field effects (RPA)
   LNABLA  =     F    use nabla operator in PAW spheres
   LVEL    =     F    velocity operator in full k-point grid
   CSHIFT  =0.1000    complex shift for real part using Kramers Kronig
   OMEGAMAX=  -1.0    maximum frequency
   DEG_THRESHOLD= 0.2000000E-02 threshold for treating states as degnerate
   RTIME   =   -0.100 relaxation time in fs
  (WPLASMAI=    0.000 imaginary part of plasma frequency in eV, 0.658/RTIME)
   DFIELD  = 0.0000000 0.0000000 0.0000000 field for delta impulse in time

  Optional k-point grid parameters
   LKPOINTS_OPT  =     F    use optional k-point grid
   KPOINTS_OPT_MODE=     1    mode for optional k-point grid

 Orbital magnetization related:
   ORBITALMAG=     F  switch on orbital magnetization
   LCHIMAG   =     F  perturbation theory with respect to B field
   DQ        =  0.001000  dq finite difference perturbation B field
   LLRAUG    =     F  two centre corrections for induced B field



--------------------------------------------------------------------------------------------------------


 Static calculation
 charge density and potential will be updated during run
 non-spin polarized calculation
 Conjugate gradient for all bands (Freysoldt, et al. PRB 79, 241103 (2009))
 preconditioned conjugated gradient                                        
 perform sub-space diagonalisation
    before iterative eigenvector-optimisation
 modified Broyden-mixing scheme, WC =      100.0
 initial mixing is a Kerker type mixing with AMIX =  0.4000 and BMIX =      1.0000
 Hartree-type preconditioning will be used
 using additional bands           53
 real space projection scheme for non local part
 use partial core corrections
 no Harris-corrections to forces 
 use gradient corrections 
 use of overlap-Matrix (Vanderbilt PP)
 Gauss-broadening in eV      SIGMA  =   0.05


--------------------------------------------------------------------------------------------------------


  energy-cutoff  :      520.00
  volume of cell :     9881.61
      direct lattice vectors                 reciprocal lattice vectors
    21.138852197  0.000000000  0.000000000     0.047306258  0.000000000  0.000000000
     0.000000000 21.138852197  0.000000000     0.000000000  0.047306258  0.000000000
     0.000000000  0.000000000 22.113885220     0.000000000  0.000000000  0.045220457

  length of vectors
    21.138852197 21.138852197 22.113885220     0.047306258  0.047306258  0.045220457



 k-points in units of 2pi/SCALE and weight: KPOINTS created by Atomic Simulation Env
   0.00591328  0.00591328  0.00000000       0.250
   0.01773985  0.00591328  0.00000000       0.250
  -0.00591328  0.01773985  0.00000000       0.250
   0.01773985  0.01773985  0.00000000       0.250

 k-points in reciprocal lattice and weights: KPOINTS created by Atomic Simulation Env
   0.12500000  0.12500000  0.00000000       0.250
   0.37500000  0.12500000  0.00000000       0.250
  -0.12500000  0.37500000  0.00000000       0.250
   0.37500000  0.37500000  0.00000000       0.250

 position of ions in fractional coordinates (direct lattice) 
   0.66073145  0.50000000  0.61357839
   0.53926848  0.50000000  0.61357839

 position of ions in cartesian coordinates  (Angst):
  13.96710449 10.56942610 13.56860208
  11.39951664 10.56942610 13.56860208



--------------------------------------------------------------------------------------------------------


 k-point   1 :   0.1250 0.1250 0.0000  plane waves:  265995
 k-point   2 :   0.3750 0.1250 0.0000  plane waves:  266023
 k-point   3 :  -0.1250 0.3750 0.0000  plane waves:  266023
 k-point   4 :   0.3750 0.3750 0.0000  plane waves:  266046

 maximum and minimum number of plane-waves per node :     66546    66475

 maximum number of plane-waves:    266046
 maximum index in each direction: 
   IXMAX=   39   IYMAX=   39   IZMAX=   41
   IXMIN=  -39   IYMIN=  -39   IZMIN=  -41


 real space projection operators:
  total allocation   :       1639.12 KBytes
  max/ min on nodes  :        414.00        407.39


 parallel 3D FFT for wavefunctions:
    minimum data exchange during FFTs selected (reduces bandwidth)
 parallel 3D FFT for charge:
    minimum data exchange during FFTs selected (reduces bandwidth)


 total amount of memory used by VASP MPI-rank0   135422. kBytes
=======================================================================

   base      :      30000. kBytes
   nonlr-proj:        713. kBytes
   fftplans  :      38432. kBytes
   grid      :      53473. kBytes
   one-center:         15. kBytes
   wavefun   :      12789. kBytes

     INWAV:  cpu time      0.0001: real time      0.0001
 Broyden mixing: mesh for mixing (old mesh)
   NGX = 79   NGY = 79   NGZ = 83
  (NGX  =320   NGY  =320   NGZ  =336)
  gives a total of 518003 points

 initial charge density was supplied:
 charge density of overlapping atoms calculated
 number of electron      22.0000000 magnetization 
 keeping initial charge density in first step


--------------------------------------------------------------------------------------------------------


 Maximum index for non-local projection operator         1472
 Maximum index for augmentation-charges            0 (set IRDMAX)


--------------------------------------------------------------------------------------------------------


 First call to EWALD:  gamma=   0.083
 Maximum number of real-space cells 3x 3x 3
 Maximum number of reciprocal cells 3x 3x 3

    FEWALD:  cpu time      0.0008: real time      0.0008


--------------------------------------- Iteration      1(   1)  ---------------------------------------


    POTLOK:  cpu time      0.1895: real time      0.1900
    SETDIJ:  cpu time      0.1084: real time      0.1085
    TRIAL :  cpu time      0.8404: real time      0.8415
    CORREC:  cpu time      0.0009: real time      0.0010
    --------------------------------------------
      LOOP:  cpu time      1.1439: real time      1.1457

 eigenvalue-minimisations  :   512
 total energy-change (2. order) : 0.1444121E+03  (-0.3822792E+03)
 number of electron      22.0000000 magnetization 
 augmentation part       22.0000000 magnetization 

 DIPCOR: dipole corrections for dipol
 direction  3 min pos     1,
 dipolmoment           0.000000      0.000000     -0.000011 electrons x Angstroem
 Tr[quadrupol]     -4066.246981

 energy correction for charged system         0.000000 eV
 dipol+quadrupol energy correction           -0.000000 eV
 added-field ion interaction          0.000012 eV  (added to PSCEN)


 Free energy of the ion-electron system (eV)
  ---------------------------------------------------
  alpha Z        PSCENC =         0.47151282
  Ewald energy   TEWEN  =       220.82230137
  -Hartree energ DENC   =     -1995.14167308
  -exchange      EXHF   =         0.00000000
  -V(xc)+E(xc)   XCENC  =        27.95147624
  PAW double counting   =      1748.19500671    -1702.02026965
  entropy T*S    EENTRO =        -0.04131292
  eigenvalues    EBANDS =        -7.99160454
  atomic energy  EATOM  =      1852.16664478
  ---------------------------------------------------
  free energy    TOTEN  =       144.41208172 eV

  energy without entropy =      144.45339465  energy(sigma->0) =      144.43273819


--------------------------------------------------------------------------------------------------------




--------------------------------------- Iteration      1(   2)  ---------------------------------------


    TRIAL :  cpu time      1.8509: real time      1.8513
    CORREC:  cpu time      0.0002: real time      0.0002
    --------------------------------------------
      LOOP:  cpu time      1.8550: real time      1.8646

 eigenvalue-minimisations  :  1024
 total energy-change (2. order) :-0.1369631E+03  (-0.1362794E+03)
 number of electron      22.0000000 magnetization 
 augmentation part       22.0000000 magnetization 

 DIPCOR: dipole corrections for dipol
 direction  3 min pos     1,
 dipolmoment           0.000000      0.000000     -0.000011 electrons x Angstroem
 Tr[quadrupol]     -4066.246981

 energy correction for charged system         0.000000 eV
 dipol+quadrupol energy correction           -0.000000 eV
 added-field ion interaction          0.000012 eV  (added to PSCEN)


 Free energy of the ion-electron system (eV)
  ---------------------------------------------------
  alpha Z        PSCENC =         0.47151282
  Ewald energy   TEWEN  =       220.82230137
  -Hartree energ DENC   =     -1995.14167308
  -exchange      EXHF   =         0.00000000
  -V(xc)+E(xc)   XCENC  =        27.95147624
  PAW double counting   =      1748.19500671    -1702.02026965
  entropy T*S    EENTRO =        -0.00000000
  eigenvalues    EBANDS =      -144.99606697
  atomic energy  EATOM  =      1852.16664478
  ---------------------------------------------------
  free energy    TOTEN  =         7.44893222 eV

  energy without entropy =        7.44893222  energy(sigma->0) =        7.44893222


--------------------------------------------------------------------------------------------------------




--------------------------------------- Iteration      1(   3)  ---------------------------------------


    TRIAL :  cpu time      0.8381: real time      0.8382
    CORREC:  cpu time      0.0003: real time      0.0003
    --------------------------------------------
      LOOP:  cpu time      0.8425: real time      0.8507

 eigenvalue-minimisations  :   512
 total energy-change (2. order) :-0.1043245E+02  (-0.1043245E+02)
 number of electron      22.0000000 magnetization 
 augmentation part       22.0000000 magnetization 

 DIPCOR: dipole corrections for dipol
 direction  3 min pos     1,
 dipolmoment           0.000000      0.000000     -0.000011 electrons x Angstroem
 Tr[quadrupol]     -4066.246981

 energy correction for charged system         0.000000 eV
 dipol+quadrupol energy correction           -0.000000 eV
 added-field ion interaction          0.000012 eV  (added to PSCEN)


 Free energy of the ion-electron system (eV)
  ---------------------------------------------------
  alpha Z        PSCENC =         0.47151282
  Ewald energy   TEWEN  =       220.82230137
  -Hartree energ DENC   =     -1995.14167308
  -exchange      EXHF   =         0.00000000
  -V(xc)+E(xc)   XCENC  =        27.95147624
  PAW double counting   =      1748.19500671    -1702.02026965
  entropy T*S    EENTRO =        -0.00000000
  eigenvalues    EBANDS =      -155.42852191
  atomic energy  EATOM  =      1852.16664478
  ---------------------------------------------------
  free energy    TOTEN  =        -2.98352272 eV

  energy without entropy =       -2.98352272  energy(sigma->0) =       -2.98352272


--------------------------------------------------------------------------------------------------------




--------------------------------------- Iteration      1(   4)  ---------------------------------------


    TRIAL :  cpu time      0.8372: real time      0.8372
    CORREC:  cpu time      0.0002: real time      0.0002
    --------------------------------------------
      LOOP:  cpu time      0.8501: real time      0.8503

 eigenvalue-minimisations  :   512
 total energy-change (2. order) :-0.6531706E-01  (-0.6531706E-01)
 number of electron      22.0000000 magnetization 
 augmentation part       22.0000000 magnetization 

 DIPCOR: dipole corrections for dipol
 direction  3 min pos     1,
 dipolmoment           0.000000      0.000000     -0.000011 electrons x Angstroem
 Tr[quadrupol]     -4066.246981

 energy correction for charged system         0.000000 eV
 dipol+quadrupol energy correction           -0.000000 eV
 added-field ion interaction          0.000012 eV  (added to PSCEN)


 Free energy of the ion-electron system (eV)
  ---------------------------------------------------
  alpha Z        PSCENC =         0.47151282
  Ewald energy   TEWEN  =       220.82230137
  -Hartree energ DENC   =     -1995.14167308
  -exchange      EXHF   =         0.00000000
  -V(xc)+E(xc)   XCENC  =        27.95147624
  PAW double counting   =      1748.19500671    -1702.02026965
  entropy T*S    EENTRO =        -0.00000000
  eigenvalues    EBANDS =      -155.49383897
  atomic energy  EATOM  =      1852.16664478
  ---------------------------------------------------
  free energy    TOTEN  =        -3.04883978 eV

  energy without entropy =       -3.04883978  energy(sigma->0) =       -3.04883978


--------------------------------------------------------------------------------------------------------




--------------------------------------- Iteration      1(   5)  ---------------------------------------


    TRIAL :  cpu time      1.8258: real time      1.8261
    CORREC:  cpu time      0.0003: real time      0.0003
    CHARGE:  cpu time      0.5728: real time      0.5733
    --------------------------------------------
      LOOP:  cpu time      2.4031: real time      2.4120

 eigenvalue-minimisations  :  1024
 total energy-change (2. order) :-0.1107844E-02  (-0.1107844E-02)
 number of electron      22.0000003 magnetization 
 augmentation part        8.0485207 magnetization 

 DIPCOR: dipole corrections for dipol
 direction  3 min pos     1,
 dipolmoment           0.000000      0.000000     -0.000011 electrons x Angstroem
 Tr[quadrupol]     -4066.246981

 energy correction for charged system         0.000000 eV
 dipol+quadrupol energy correction           -0.000000 eV
 added-field ion interaction          0.000012 eV  (added to PSCEN)


 Free energy of the ion-electron system (eV)
  ---------------------------------------------------
  alpha Z        PSCENC =         0.47151282
  Ewald energy   TEWEN  =       220.82230137
  -Hartree energ DENC   =     -1995.14167308
  -exchange      EXHF   =         0.00000000
  -V(xc)+E(xc)   XCENC  =        27.95147624
  PAW double counting   =      1748.19500671    -1702.02026965
  entropy T*S    EENTRO =        -0.00000000
  eigenvalues    EBANDS =      -155.49494681
  atomic energy  EATOM  =      1852.16664478
  ---------------------------------------------------
  free energy    TOTEN  =        -3.04994762 eV

  energy without entropy =       -3.04994762  energy(sigma->0) =       -3.04994762


--------------------------------------------------------------------------------------------------------




--------------------------------------- Iteration      1(   6)  ---------------------------------------


    POTLOK:  cpu time      0.1548: real time      0.1548
    SETDIJ:  cpu time      0.1067: real time      0.1067
    TRIAL :  cpu time      0.4682: real time      0.4694
    CORREC:  cpu time      0.8446: real time      0.8448
    CHARGE:  cpu time      0.4313: real time      0.4316
    --------------------------------------------
      LOOP:  cpu time      2.0090: real time      2.0202

 eigenvalue-minimisations  :     0
 total energy-change (2. order) : 0.8197619E+00  (-0.3818886E+00)
 number of electron      22.0000003 magnetization 
 augmentation part        8.1775996 magnetization 

 DIPCOR: dipole corrections for dipol
 direction  3 min pos     1,
 dipolmoment           0.000000      0.000000     -0.000365 electrons x Angstroem
 Tr[quadrupol]     -4066.041169

 energy correction for charged system         0.000000 eV
 dipol+quadrupol energy correction           -0.000000 eV
 added-field ion interaction          0.000399 eV  (added to PSCEN)


 Free energy of the ion-electron system (eV)
  ---------------------------------------------------
  alpha Z        PSCENC =         0.47150135
  Ewald energy   TEWEN  =       220.82230137
  -Hartree energ DENC   =     -1990.51477563
  -exchange      EXHF   =         0.00000000
  -V(xc)+E(xc)   XCENC  =        27.49440317
  PAW double counting   =      1847.54189040    -1803.64270420
  entropy T*S    EENTRO =        -0.00000000
  eigenvalues    EBANDS =      -156.56944701
  atomic energy  EATOM  =      1852.16664478
  ---------------------------------------------------
  free energy    TOTEN  =        -2.23018576 eV

  energy without entropy =       -2.23018576  energy(sigma->0) =       -2.23018576


--------------------------------------------------------------------------------------------------------




--------------------------------------- Iteration      1(   7)  ---------------------------------------


    POTLOK:  cpu time      0.1665: real time      0.1665
    SETDIJ:  cpu time      0.1060: real time      0.1060
    TRIAL :  cpu time      0.4619: real time      0.4621
    CORREC:  cpu time      0.8406: real time      0.8406
    CHARGE:  cpu time      0.4323: real time      0.4324
    --------------------------------------------
      LOOP:  cpu time      2.0115: real time      2.0202

 eigenvalue-minimisations  :     0
 total energy-change (2. order) :-0.3820145E+00  (-0.5798648E-01)
 number of electron      22.0000003 magnetization 
 augmentation part        8.1550169 magnetization 

 DIPCOR: dipole corrections for dipol
 direction  3 min pos     1,
 dipolmoment           0.000000      0.000000     -0.000272 electrons x Angstroem
 Tr[quadrupol]     -4066.027277

 energy correction for charged system         0.000000 eV
 dipol+quadrupol energy correction           -0.000000 eV
 added-field ion interaction          0.000297 eV  (added to PSCEN)


 Free energy of the ion-electron system (eV)
  ---------------------------------------------------
  alpha Z        PSCENC =         0.47194346
  Ewald energy   TEWEN  =       220.82230137
  -Hartree energ DENC   =     -1998.28308040
  -exchange      EXHF   =         0.00000000
  -V(xc)+E(xc)   XCENC  =        27.91382685
  PAW double counting   =      1861.22807761    -1816.93894961
  entropy T*S    EENTRO =        -0.00000000
  eigenvalues    EBANDS =      -149.99296435
  atomic energy  EATOM  =      1852.16664478
  ---------------------------------------------------
  free energy    TOTEN  =        -2.61220028 eV

  energy without entropy =       -2.61220028  energy(sigma->0) =       -2.61220028


--------------------------------------------------------------------------------------------------------




--------------------------------------- Iteration      1(   8)  ---------------------------------------


    POTLOK:  cpu time      0.1637: real time      0.1637
    SETDIJ:  cpu time      0.1088: real time      0.1088
    TRIAL :  cpu time      0.4615: real time      0.4617
    CORREC:  cpu time      0.8417: real time      0.8417
    CHARGE:  cpu time      0.4317: real time      0.4318
    --------------------------------------------
      LOOP:  cpu time      2.0202: real time      2.0209

 eigenvalue-minimisations  :     0
 total energy-change (2. order) :-0.5728424E-01  (-0.1929327E-01)
 number of electron      22.0000003 magnetization 
 augmentation part        8.1879837 magnetization 

 DIPCOR: dipole corrections for dipol
 direction  3 min pos     1,
 dipolmoment           0.000000      0.000000     -0.000044 electrons x Angstroem
 Tr[quadrupol]     -4066.063620

 energy correction for charged system         0.000000 eV
 dipol+quadrupol energy correction           -0.000000 eV
 added-field ion interaction          0.000048 eV  (added to PSCEN)


 Free energy of the ion-electron system (eV)
  ---------------------------------------------------
  alpha Z        PSCENC =         0.47171295
  Ewald energy   TEWEN  =       220.82230137
  -Hartree energ DENC   =     -1990.95014952
  -exchange      EXHF   =         0.00000000
  -V(xc)+E(xc)   XCENC  =        27.69390514
  PAW double counting   =      1847.73581176    -1803.36428085
  entropy T*S    EENTRO =        -0.00000000
  eigenvalues    EBANDS =      -157.24543016
  atomic energy  EATOM  =      1852.16664478
  ---------------------------------------------------
  free energy    TOTEN  =        -2.66948452 eV

  energy without entropy =       -2.66948452  energy(sigma->0) =       -2.66948452


--------------------------------------------------------------------------------------------------------




--------------------------------------- Iteration      1(   9)  ---------------------------------------


    POTLOK:  cpu time      0.1648: real time      0.1648
    SETDIJ:  cpu time      0.1065: real time      0.1065
    TRIAL :  cpu time      0.4611: real time      0.4614
    CORREC:  cpu time      0.8352: real time      0.8352
    CHARGE:  cpu time      0.4321: real time      0.4322
    --------------------------------------------
      LOOP:  cpu time      2.0045: real time      2.0131

 eigenvalue-minimisations  :     0
 total energy-change (2. order) :-0.1931940E-01  (-0.5047813E-02)
 number of electron      22.0000003 magnetization 
 augmentation part        8.1885833 magnetization 

 DIPCOR: dipole corrections for dipol
 direction  3 min pos     1,
 dipolmoment           0.000000      0.000000     -0.000005 electrons x Angstroem
 Tr[quadrupol]     -4066.083136

 energy correction for charged system         0.000000 eV
 dipol+quadrupol energy correction           -0.000000 eV
 added-field ion interaction          0.000005 eV  (added to PSCEN)


 Free energy of the ion-electron system (eV)
  ---------------------------------------------------
  alpha Z        PSCENC =         0.47152601
  Ewald energy   TEWEN  =       220.82230137
  -Hartree energ DENC   =     -1995.65556523
  -exchange      EXHF   =         0.00000000
  -V(xc)+E(xc)   XCENC  =        27.83714412
  PAW double counting   =      1854.60265052    -1810.10277906
  entropy T*S    EENTRO =        -0.00000000
  eigenvalues    EBANDS =      -152.83072642
  atomic energy  EATOM  =      1852.16664478
  ---------------------------------------------------
  free energy    TOTEN  =        -2.68880392 eV

  energy without entropy =       -2.68880392  energy(sigma->0) =       -2.68880392


--------------------------------------------------------------------------------------------------------




--------------------------------------- Iteration      1(  10)  ---------------------------------------


    POTLOK:  cpu time      0.1564: real time      0.1564
    SETDIJ:  cpu time      0.1072: real time      0.1072
    TRIAL :  cpu time      0.4604: real time      0.4605
    CORREC:  cpu time      0.8325: real time      0.8326
    CHARGE:  cpu time      0.4310: real time      0.4312
    --------------------------------------------
      LOOP:  cpu time      1.9919: real time      2.0011

 eigenvalue-minimisations  :     0
 total energy-change (2. order) :-0.5048200E-02  (-0.9383023E-03)
 number of electron      22.0000003 magnetization 
 augmentation part        8.1868324 magnetization 

 DIPCOR: dipole corrections for dipol
 direction  3 min pos     1,
 dipolmoment           0.000000      0.000000     -0.000001 electrons x Angstroem
 Tr[quadrupol]     -4066.083500

 energy correction for charged system         0.000000 eV
 dipol+quadrupol energy correction           -0.000000 eV
 added-field ion interaction          0.000002 eV  (added to PSCEN)


 Free energy of the ion-electron system (eV)
  ---------------------------------------------------
  alpha Z        PSCENC =         0.47150315
  Ewald energy   TEWEN  =       220.82230137
  -Hartree energ DENC   =     -1995.27041682
  -exchange      EXHF   =         0.00000000
  -V(xc)+E(xc)   XCENC  =        27.82536580
  PAW double counting   =      1853.22744818    -1808.67177233
  entropy T*S    EENTRO =        -0.00000000
  eigenvalues    EBANDS =      -153.26492625
  atomic energy  EATOM  =      1852.16664478
  ---------------------------------------------------
  free energy    TOTEN  =        -2.69385212 eV

  energy without entropy =       -2.69385212  energy(sigma->0) =       -2.69385212


--------------------------------------------------------------------------------------------------------




--------------------------------------- Iteration      1(  11)  ---------------------------------------


    POTLOK:  cpu time      0.1546: real time      0.1546
    SETDIJ:  cpu time      0.1082: real time      0.1082
    TRIAL :  cpu time      0.4598: real time      0.4600
    CORREC:  cpu time      0.8301: real time      0.8302
    CHARGE:  cpu time      0.4325: real time      0.4327
    --------------------------------------------
      LOOP:  cpu time      1.9905: real time      1.9984

 eigenvalue-minimisations  :     0
 total energy-change (2. order) :-0.9402788E-03  (-0.1669622E-03)
 number of electron      22.0000003 magnetization 
 augmentation part        8.1897129 magnetization 

 DIPCOR: dipole corrections for dipol
 direction  3 min pos     1,
 dipolmoment           0.000000      0.000000     -0.000001 electrons x Angstroem
 Tr[quadrupol]     -4066.085725

 energy correction for charged system         0.000000 eV
 dipol+quadrupol energy correction           -0.000000 eV
 added-field ion interaction          0.000001 eV  (added to PSCEN)


 Free energy of the ion-electron system (eV)
  ---------------------------------------------------
  alpha Z        PSCENC =         0.47150210
  Ewald energy   TEWEN  =       220.82230137
  -Hartree energ DENC   =     -1994.83531179
  -exchange      EXHF   =         0.00000000
  -V(xc)+E(xc)   XCENC  =        27.81254860
  PAW double counting   =      1851.84385826    -1807.27917564
  entropy T*S    EENTRO =        -0.00000000
  eigenvalues    EBANDS =      -153.69716009
  atomic energy  EATOM  =      1852.16664478
  ---------------------------------------------------
  free energy    TOTEN  =        -2.69479240 eV

  energy without entropy =       -2.69479240  energy(sigma->0) =       -2.69479240


--------------------------------------------------------------------------------------------------------




--------------------------------------- Iteration      1(  12)  ---------------------------------------


    POTLOK:  cpu time      0.1534: real time      0.1534
    SETDIJ:  cpu time      0.1084: real time      0.1084
    TRIAL :  cpu time      0.4606: real time      0.4607
    CORREC:  cpu time      0.8300: real time      0.8305
    CHARGE:  cpu time      0.4308: real time      0.4310
    --------------------------------------------
      LOOP:  cpu time      1.9878: real time      1.9969

 eigenvalue-minimisations  :     0
 total energy-change (2. order) :-0.1662788E-03  (-0.4261394E-04)
 number of electron      22.0000003 magnetization 
 augmentation part        8.1888196 magnetization 

 DIPCOR: dipole corrections for dipol
 direction  3 min pos     1,
 dipolmoment           0.000000      0.000000     -0.000001 electrons x Angstroem
 Tr[quadrupol]     -4066.084953

 energy correction for charged system         0.000000 eV
 dipol+quadrupol energy correction           -0.000000 eV
 added-field ion interaction          0.000001 eV  (added to PSCEN)


 Free energy of the ion-electron system (eV)
  ---------------------------------------------------
  alpha Z        PSCENC =         0.47150158
  Ewald energy   TEWEN  =       220.82230137
  -Hartree energ DENC   =     -1995.28806609
  -exchange      EXHF   =         0.00000000
  -V(xc)+E(xc)   XCENC  =        27.82697040
  PAW double counting   =      1852.41719690    -1807.84712713
  entropy T*S    EENTRO =        -0.00000000
  eigenvalues    EBANDS =      -153.26438048
  atomic energy  EATOM  =      1852.16664478
  ---------------------------------------------------
  free energy    TOTEN  =        -2.69495868 eV

  energy without entropy =       -2.69495868  energy(sigma->0) =       -2.69495868


--------------------------------------------------------------------------------------------------------




--------------------------------------- Iteration      1(  13)  ---------------------------------------


    POTLOK:  cpu time      0.1529: real time      0.1529
    SETDIJ:  cpu time      0.1088: real time      0.1088
    TRIAL :  cpu time      0.4611: real time      0.4613
    CORREC:  cpu time      0.8308: real time      0.8308
    CHARGE:  cpu time      0.4345: real time      0.4347
    --------------------------------------------
      LOOP:  cpu time      1.9927: real time      2.0016

 eigenvalue-minimisations  :     0
 total energy-change (2. order) :-0.4290516E-04  (-0.7823189E-05)
 number of electron      22.0000003 magnetization 
 augmentation part        8.1887997 magnetization 

 DIPCOR: dipole corrections for dipol
 direction  3 min pos     1,
 dipolmoment           0.000000      0.000000     -0.000001 electrons x Angstroem
 Tr[quadrupol]     -4066.084357

 energy correction for charged system         0.000000 eV
 dipol+quadrupol energy correction           -0.000000 eV
 added-field ion interaction          0.000001 eV  (added to PSCEN)


 Free energy of the ion-electron system (eV)
  ---------------------------------------------------
  alpha Z        PSCENC =         0.47150141
  Ewald energy   TEWEN  =       220.82230137
  -Hartree energ DENC   =     -1995.11066753
  -exchange      EXHF   =         0.00000000
  -V(xc)+E(xc)   XCENC  =        27.82108797
  PAW double counting   =      1852.09495515    -1807.52628906
  entropy T*S    EENTRO =        -0.00000000
  eigenvalues    EBANDS =      -153.43453567
  atomic energy  EATOM  =      1852.16664478
  ---------------------------------------------------
  free energy    TOTEN  =        -2.69500158 eV

  energy without entropy =       -2.69500158  energy(sigma->0) =       -2.69500158


--------------------------------------------------------------------------------------------------------




--------------------------------------- Iteration      1(  14)  ---------------------------------------


    POTLOK:  cpu time      0.1570: real time      0.1570
    SETDIJ:  cpu time      0.1044: real time      0.1044
    TRIAL :  cpu time      0.4605: real time      0.4607
    CORREC:  cpu time      0.8298: real time      0.8299
    CHARGE:  cpu time      0.4308: real time      0.4309
    --------------------------------------------
      LOOP:  cpu time      1.9872: real time      1.9958

 eigenvalue-minimisations  :     0
 total energy-change (2. order) :-0.7857108E-05  (-0.1508898E-05)
 number of electron      22.0000003 magnetization 
 augmentation part        8.1889749 magnetization 

 DIPCOR: dipole corrections for dipol
 direction  3 min pos     1,
 dipolmoment           0.000000      0.000000     -0.000001 electrons x Angstroem
 Tr[quadrupol]     -4066.084412

 energy correction for charged system         0.000000 eV
 dipol+quadrupol energy correction           -0.000000 eV
 added-field ion interaction          0.000001 eV  (added to PSCEN)


 Free energy of the ion-electron system (eV)
  ---------------------------------------------------
  alpha Z        PSCENC =         0.47150136
  Ewald energy   TEWEN  =       220.82230137
  -Hartree energ DENC   =     -1995.09322092
  -exchange      EXHF   =         0.00000000
  -V(xc)+E(xc)   XCENC  =        27.82059794
  PAW double counting   =      1852.12101681    -1807.55253787
  entropy T*S    EENTRO =        -0.00000000
  eigenvalues    EBANDS =      -153.45131291
  atomic energy  EATOM  =      1852.16664478
  ---------------------------------------------------
  free energy    TOTEN  =        -2.69500944 eV

  energy without entropy =       -2.69500944  energy(sigma->0) =       -2.69500944


--------------------------------------------------------------------------------------------------------




--------------------------------------- Iteration      1(  15)  ---------------------------------------


    POTLOK:  cpu time      0.1543: real time      0.1543
    SETDIJ:  cpu time      0.1077: real time      0.1077
    TRIAL :  cpu time      0.4606: real time      0.4608
    CORREC:  cpu time      0.8287: real time      0.8287
    CHARGE:  cpu time      0.4313: real time      0.4315
    --------------------------------------------
      LOOP:  cpu time      1.9952: real time      1.9956

 eigenvalue-minimisations  :     0
 total energy-change (2. order) :-0.1318863E-05  (-0.2245870E-06)
 number of electron      22.0000003 magnetization 
 augmentation part        8.1888654 magnetization 

 DIPCOR: dipole corrections for dipol
 direction  3 min pos     1,
 dipolmoment           0.000000      0.000000     -0.000001 electrons x Angstroem
 Tr[quadrupol]     -4066.084216

 energy correction for charged system         0.000000 eV
 dipol+quadrupol energy correction           -0.000000 eV
 added-field ion interaction          0.000001 eV  (added to PSCEN)


 Free energy of the ion-electron system (eV)
  ---------------------------------------------------
  alpha Z        PSCENC =         0.47150134
  Ewald energy   TEWEN  =       220.82230137
  -Hartree energ DENC   =     -1995.12714272
  -exchange      EXHF   =         0.00000000
  -V(xc)+E(xc)   XCENC  =        27.82170310
  PAW double counting   =      1852.21059532    -1807.64223246
  entropy T*S    EENTRO =        -0.00000000
  eigenvalues    EBANDS =      -153.41838150
  atomic energy  EATOM  =      1852.16664478
  ---------------------------------------------------
  free energy    TOTEN  =        -2.69501076 eV

  energy without entropy =       -2.69501076  energy(sigma->0) =       -2.69501076


--------------------------------------------------------------------------------------------------------




--------------------------------------- Iteration      1(  16)  ---------------------------------------


    POTLOK:  cpu time      0.1532: real time      0.1532
    SETDIJ:  cpu time      0.1082: real time      0.1082
    TRIAL :  cpu time      0.4613: real time      0.4615
    CORREC:  cpu time      0.8293: real time      0.8293
    EDDIAG:  cpu time      0.1952: real time      0.1956
    CHARGE:  cpu time      0.4304: real time      0.4304
    --------------------------------------------
      LOOP:  cpu time      2.1821: real time      2.1916

 eigenvalue-minimisations  :     0
 total energy-change (2. order) :-0.1890314E-06  (-0.8259999E-07)
 number of electron      22.0000003 magnetization 
 augmentation part        8.1888022 magnetization 

 DIPCOR: dipole corrections for dipol
 direction  3 min pos     1,
 dipolmoment           0.000000      0.000000     -0.000001 electrons x Angstroem
 Tr[quadrupol]     -4066.084078

 energy correction for charged system         0.000000 eV
 dipol+quadrupol energy correction           -0.000000 eV
 added-field ion interaction          0.000001 eV  (added to PSCEN)


 Free energy of the ion-electron system (eV)
  ---------------------------------------------------
  alpha Z        PSCENC =         0.47150134
  Ewald energy   TEWEN  =       220.82230137
  -Hartree energ DENC   =     -1995.11026836
  -exchange      EXHF   =         0.00000000
  -V(xc)+E(xc)   XCENC  =        27.82117113
  PAW double counting   =      1852.18913996    -1807.62109472
  entropy T*S    EENTRO =        -0.00000000
  eigenvalues    EBANDS =      -153.43440646
  atomic energy  EATOM  =      1852.16664478
  ---------------------------------------------------
  free energy    TOTEN  =        -2.69501095 eV

  energy without entropy =       -2.69501095  energy(sigma->0) =       -2.69501095


--------------------------------------------------------------------------------------------------------


  average scaling for gradient   1.6990


 average (electrostatic) potential at core
  the test charge radii are     1.2098
  (the norm of the test charge is              1.0000)
       1 -76.5189       2 -76.5189



 E-fermi :  -6.0666     XC(G=0):  -0.1485     alpha+bet : -0.0481

 Fermi energy:        -6.0665720545

 k-point     1 :       0.1250    0.1250    0.0000
  band No.  band energies     occupation 
      1      -8.8582      2.00000
      2      -7.7546      2.00000
      3      -7.7546      2.00000
      4      -6.8787      2.00000
      5      -6.8786      2.00000
      6      -6.5890      2.00000
      7      -6.5889      2.00000
      8      -6.4027      2.00000
      9      -6.3618      2.00000
     10      -6.3618      2.00000
     11      -6.2982      2.00000
     12      -4.3442      0.00000
     13      -1.1818      0.00000
     14      -1.1818      0.00000
     15      -0.8616      0.00000
     16       0.0452      0.00000
     17       0.2510      0.00000
     18       0.2986      0.00000
     19       0.3390      0.00000
     20       0.3539      0.00000
     21       0.3603      0.00000
     22       0.3815      0.00000
     23       0.4141      0.00000
     24       0.4731      0.00000
     25       0.5352      0.00000
     26       0.5886      0.00000
     27       0.5905      0.00000
     28       0.6247      0.00000
     29       0.6571      0.00000
     30       0.6823      0.00000
     31       0.7369      0.00000
     32       0.7480      0.00000
     33       0.7571      0.00000
     34       0.7987      0.00000
     35       0.8227      0.00000
     36       0.8548      0.00000
     37       0.8748      0.00000
     38       0.9177      0.00000
     39       1.0109      0.00000
     40       1.0217      0.00000
     41       1.0456      0.00000
     42       1.0766      0.00000
     43       1.1530      0.00000
     44       1.1902      0.00000
     45       1.1940      0.00000
     46       1.2258      0.00000
     47       1.2678      0.00000
     48       1.2821      0.00000
     49       1.4052      0.00000
     50       1.4284      0.00000
     51       1.4457      0.00000
     52       1.4770      0.00000
     53       1.5004      0.00000
     54       1.5009      0.00000
     55       1.5077      0.00000
     56       1.5225      0.00000
     57       1.5284      0.00000
     58       1.5398      0.00000
     59       1.5696      0.00000
     60       1.5711      0.00000
     61       1.6221      0.00000
     62       1.6238      0.00000
     63       1.6354      0.00000
     64       1.6578      0.00000

 k-point     2 :       0.3750    0.1250    0.0000
  band No.  band energies     occupation 
      1      -8.8582      2.00000
      2      -7.7546      2.00000
      3      -7.7546      2.00000
      4      -6.8787      2.00000
      5      -6.8786      2.00000
      6      -6.5890      2.00000
      7      -6.5889      2.00000
      8      -6.4027      2.00000
      9      -6.3618      2.00000
     10      -6.3618      2.00000
     11      -6.2982      2.00000
     12      -4.3442      0.00000
     13      -1.1818      0.00000
     14      -1.1818      0.00000
     15      -0.8609      0.00000
     16       0.0744      0.00000
     17       0.1451      0.00000
     18       0.2986      0.00000
     19       0.3152      0.00000
     20       0.3709      0.00000
     21       0.3773      0.00000
     22       0.4362      0.00000
     23       0.4371      0.00000
     24       0.4728      0.00000
     25       0.5301      0.00000
     26       0.5489      0.00000
     27       0.6024      0.00000
     28       0.6271      0.00000
     29       0.6391      0.00000
     30       0.6785      0.00000
     31       0.7366      0.00000
     32       0.7471      0.00000
     33       0.8046      0.00000
     34       0.8325      0.00000
     35       0.8871      0.00000
     36       0.8982      0.00000
     37       0.9058      0.00000
     38       0.9362      0.00000
     39       0.9643      0.00000
     40       1.0180      0.00000
     41       1.0879      0.00000
     42       1.1611      0.00000
     43       1.1802      0.00000
     44       1.2054      0.00000
     45       1.2078      0.00000
     46       1.2449      0.00000
     47       1.2623      0.00000
     48       1.2823      0.00000
     49       1.3226      0.00000
     50       1.3261      0.00000
     51       1.3562      0.00000
     52       1.3807      0.00000
     53       1.3808      0.00000
     54       1.4066      0.00000
     55       1.4144      0.00000
     56       1.4773      0.00000
     57       1.4956      0.00000
     58       1.5102      0.00000
     59       1.5217      0.00000
     60       1.5652      0.00000
     61       1.5709      0.00000
     62       1.5896      0.00000
     63       1.5997      0.00000
     64       1.6200      0.00000

 k-point     3 :      -0.1250    0.3750    0.0000
  band No.  band energies     occupation 
      1      -8.8582      2.00000
      2      -7.7546      2.00000
      3      -7.7546      2.00000
      4      -6.8787      2.00000
      5      -6.8786      2.00000
      6      -6.5890      2.00000
      7      -6.5889      2.00000
      8      -6.4027      2.00000
      9      -6.3618      2.00000
     10      -6.3618      2.00000
     11      -6.2982      2.00000
     12      -4.3442      0.00000
     13      -1.1818      0.00000
     14      -1.1818      0.00000
     15      -0.8615      0.00000
     16       0.0886      0.00000
     17       0.1747      0.00000
     18       0.2827      0.00000
     19       0.3307      0.00000
     20       0.3526      0.00000
     21       0.3993      0.00000
     22       0.4056      0.00000
     23       0.4381      0.00000
     24       0.4719      0.00000
     25       0.4815      0.00000
     26       0.4942      0.00000
     27       0.5875      0.00000
     28       0.6296      0.00000
     29       0.6710      0.00000
     30       0.6829      0.00000
     31       0.7317      0.00000
     32       0.7683      0.00000
     33       0.7864      0.00000
     34       0.8430      0.00000
     35       0.8822      0.00000
     36       0.9293      0.00000
     37       0.9376      0.00000
     38       0.9443      0.00000
     39       0.9788      0.00000
     40       1.0009      0.00000
     41       1.0968      0.00000
     42       1.1525      0.00000
     43       1.1672      0.00000
     44       1.2240      0.00000
     45       1.2294      0.00000
     46       1.2302      0.00000
     47       1.2619      0.00000
     48       1.2972      0.00000
     49       1.3133      0.00000
     50       1.3291      0.00000
     51       1.3549      0.00000
     52       1.3584      0.00000
     53       1.4096      0.00000
     54       1.4203      0.00000
     55       1.4379      0.00000
     56       1.4516      0.00000
     57       1.4931      0.00000
     58       1.5274      0.00000
     59       1.5395      0.00000
     60       1.5524      0.00000
     61       1.5826      0.00000
     62       1.5916      0.00000
     63       1.6175      0.00000
     64       1.6244      0.00000

 k-point     4 :       0.3750    0.3750    0.0000
  band No.  band energies     occupation 
      1      -8.8582      2.00000
      2      -7.7546      2.00000
      3      -7.7546      2.00000
      4      -6.8787      2.00000
      5      -6.8786      2.00000
      6      -6.5890      2.00000
      7      -6.5889      2.00000
      8      -6.4027      2.00000
      9      -6.3618      2.00000
     10      -6.3618      2.00000
     11      -6.2982      2.00000
     12      -4.3442      0.00000
     13      -1.1818      0.00000
     14      -1.1818      0.00000
     15      -0.8609      0.00000
     16       0.1149      0.00000
     17       0.1846      0.00000
     18       0.1992      0.00000
     19       0.2736      0.00000
     20       0.3271      0.00000
     21       0.3954      0.00000
     22       0.4402      0.00000
     23       0.4575      0.00000
     24       0.4954      0.00000
     25       0.5374      0.00000
     26       0.5443      0.00000
     27       0.5552      0.00000
     28       0.6136      0.00000
     29       0.6641      0.00000
     30       0.6702      0.00000
     31       0.7224      0.00000
     32       0.7917      0.00000
     33       0.8208      0.00000
     34       0.9282      0.00000
     35       0.9622      0.00000
     36       0.9799      0.00000
     37       0.9827      0.00000
     38       1.0300      0.00000
     39       1.0355      0.00000
     40       1.0369      0.00000
     41       1.0567      0.00000
     42       1.0838      0.00000
     43       1.1124      0.00000
     44       1.1283      0.00000
     45       1.1474      0.00000
     46       1.2310      0.00000
     47       1.2317      0.00000
     48       1.2465      0.00000
     49       1.2826      0.00000
     50       1.3192      0.00000
     51       1.3320      0.00000
     52       1.3366      0.00000
     53       1.3511      0.00000
     54       1.3602      0.00000
     55       1.3755      0.00000
     56       1.3823      0.00000
     57       1.4155      0.00000
     58       1.4329      0.00000
     59       1.4609      0.00000
     60       1.4758      0.00000
     61       1.5004      0.00000
     62       1.5585      0.00000
     63       1.5604      0.00000
     64       1.5850      0.00000


--------------------------------------------------------------------------------------------------------


 soft charge-density along one line, spin component           1
         0         1         2         3         4         5         6         7         8         9
 total charge-density along one line

 pseudopotential strength for first ion, spin component:           1
 -9.170  -0.000  -0.000   0.000   0.000  -9.294  -0.000  -0.000
 -0.000  -9.083   0.000   0.000  -0.000  -0.000  -9.208   0.000
 -0.000   0.000  -9.117  -0.000   0.060  -0.000   0.000  -9.242
  0.000   0.000  -0.000  -9.170  -0.000   0.000   0.000  -0.000
  0.000  -0.000   0.060  -0.000  -9.186   0.000  -0.000   0.059
 -9.294  -0.000  -0.000   0.000   0.000  -9.401  -0.000  -0.000
 -0.000  -9.208   0.000   0.000  -0.000  -0.000  -9.317   0.000
 -0.000   0.000  -9.242  -0.000   0.059  -0.000   0.000  -9.350
  0.000   0.000  -0.000  -9.294  -0.000   0.000   0.000  -0.000
  0.000  -0.000   0.059  -0.000  -9.309   0.000  -0.000   0.057
 -0.000  -0.000  -0.023   0.000   0.041  -0.000  -0.000  -0.024
 -0.000  -0.000  -0.034   0.000   0.059  -0.000  -0.000  -0.034
  0.038   0.000  -0.000   0.000  -0.000   0.038   0.000  -0.000
  0.000   0.000  -0.000   0.038  -0.000   0.000   0.000  -0.000
  0.000   0.000  -0.023  -0.000   0.039   0.000   0.000  -0.022
  0.044   0.000  -0.000   0.000  -0.000   0.043   0.000  -0.000
  0.000   0.000  -0.000   0.044  -0.000   0.000   0.000  -0.000
  0.000   0.000  -0.027  -0.000   0.046   0.000   0.000  -0.026
 total augmentation occupancy for first ion, spin component:           1
  2.618   0.000  -0.000   0.000   0.000  -0.583   0.000   0.000   0.000   0.000   0.000   0.000   0.033   0.000   0.000   0.039
  0.000   2.259   0.000   0.000   0.000   0.000  -0.142   0.000  -0.000   0.000   0.000   0.000   0.000  -0.000   0.000   0.000
  0.000   0.000   2.460   0.000  -0.350   0.000   0.000  -0.441   0.000   0.517   0.785  -0.119   0.000   0.000  -0.087   0.000
  0.000   0.000   0.000   2.618   0.000   0.000   0.000   0.000  -0.583   0.000   0.000   0.000   0.000   0.033   0.000   0.000
 -0.000   0.000  -0.350   0.000   2.865   0.000   0.000   0.517   0.000  -1.038  -1.360   0.206   0.000   0.000   0.152   0.000
 -0.583   0.000   0.000   0.000   0.000   0.537   0.000  -0.000   0.000   0.000   0.000  -0.000  -0.069   0.000   0.000   0.001
  0.000  -0.142   0.000   0.000   0.000   0.000   0.030  -0.000  -0.000   0.000   0.000   0.000   0.000  -0.000  -0.000   0.000
  0.000   0.000  -0.441   0.000   0.517  -0.000  -0.000   0.404   0.000  -0.648  -0.645   0.107   0.000   0.000   0.137   0.000
  0.000  -0.000   0.000  -0.583   0.000   0.000  -0.000   0.000   0.537   0.000   0.000   0.000   0.000  -0.069   0.000  -0.000
  0.000   0.000   0.517   0.000  -1.038   0.000   0.000  -0.648   0.000   1.151   1.117  -0.186   0.000   0.000  -0.237   0.000
  0.000   0.000   0.785   0.000  -1.360   0.000   0.000  -0.645   0.000   1.117   1.759  -0.224   0.000   0.000  -0.247   0.000
  0.000   0.000  -0.119   0.000   0.206  -0.000   0.000   0.107   0.000  -0.186  -0.224   0.033  -0.000   0.000   0.038  -0.000
  0.033   0.000   0.000   0.000  -0.000  -0.069   0.000   0.000   0.000   0.000   0.000  -0.000   0.010   0.000   0.000  -0.001
  0.000  -0.000   0.000   0.033   0.000   0.000  -0.000   0.000  -0.069   0.000   0.000   0.000   0.000   0.010   0.000   0.000
 -0.000   0.000  -0.087   0.000   0.152   0.000  -0.000   0.137   0.000  -0.237  -0.247   0.038   0.000   0.000   0.053   0.000
  0.039   0.000   0.000   0.000  -0.000   0.001   0.000   0.000  -0.000   0.000   0.000   0.000  -0.001   0.000   0.000   0.001
  0.000   0.000   0.000   0.039   0.000   0.000   0.000   0.000   0.001   0.000   0.000   0.000   0.000  -0.001   0.000   0.000
  0.000   0.000  -0.013   0.000   0.022  -0.000   0.000  -0.010   0.000   0.017   0.012  -0.002  -0.000   0.000  -0.005   0.000


------------------------ aborting loop because EDIFF is reached ----------------------------------------


    FORLOC:  cpu time      0.0022: real time      0.0022
    FORNL :  cpu time      0.2292: real time      0.2296
    STRESS:  cpu time      0.6896: real time      0.6899
    FORCOR:  cpu time      0.1107: real time      0.1107
    OFIELD:  cpu time      0.0008: real time      0.0008

  Hirshfeld charges:
            ion         q(e)     
   ------------------------------
      1     Au          0.000
      2     Au         -0.000

  Hirshfeld-I charges:
            ion         q(e)        dq(e)    
   ------------------------------------------
      1     Au          0.000     -0.881E-07
      2     Au         -0.000      0.881E-07

   Hirshfeld-I converged in   1 cycles. Convergence criterion |dq|< 0.500E-04 e

  Atomic reference data used in the T-S method for vdW correction:
            C6at              R0at           ALPHAat      REFSTATE
            (au)              (au)            (au)                
   ---------------------------------------------------------------
   Au        298.000          3.855         36.500         0
 
 Nth order contribution to Edisp (eV)
 Edisp(N=2):  -2.4727965612998982E-002
 Edisp(N=3):   2.2393168092058573E-005
 Edisp(N=4):  -9.3290450507923673E-005
 Edisp(N=5):   2.9128934893302270E-007
 Edisp(N=6):  -7.1978391546713821E-007
 Edisp(N=inf):  -2.4799294954479460E-002

  Tkatchenko/Scheffler method for vdW energy calculation
  ---------------------------------------------------------------------------------------------

  Parameters of vdW forcefield:
            C6ts              R0ts          ALPHAts         R0scs        ALPHAscs        RELVOL 
            (au)              (au)           (au)            (au)          (au)                 
   ---------------------------------------------------------------------------------------------
   Au        294.961          3.848         36.313          3.839         36.060          0.995
   Au        294.961          3.848         36.313          3.839         36.060          0.995

  vdW correction parametrized for the method pbe       

  IVDW = 212
  VDW_RADIUS =    50.000 A
  VDW_SR =     0.820
  VDW_D =     6.000
  SCSRAD =   120.000 A
  LVDWSCS = T
  LSCSGRAD = T
  LSCALER0 = T
  ITIM = -1
  Edisp (eV):   -0.02480
    FORVDW:  cpu time     32.8728: real time     32.8795

  FORCE on cell =-STRESS in cart. coord.  units (eV):
  Direction    XX          YY          ZZ          XY          YZ          ZX
  --------------------------------------------------------------------------------------
  Alpha Z     0.47150     0.47150     0.47150
  Ewald     537.03586  -147.63019  -168.58345     0.00000    -0.00000     0.00000
  Hartree   981.60191   517.12727   496.37103    -0.00000    -0.00000     0.00000
  E(xc)     -97.75479   -98.80091   -98.80090    -0.00000     0.00000    -0.00000
  Local   -1835.75373  -714.71751  -673.00811    -0.00000    -0.00000    -0.00000
  n-local   -24.39273    -7.03516    -7.03168    -0.00000    -0.00000    -0.00000
  augment   132.80956   136.18172   136.18162    -0.00000     0.00000     0.00000
  Kinetic   304.50026   314.36599   314.36593    -0.00000     0.00000    -0.00000
  Fock        0.00000     0.00000     0.00000     0.00000     0.00000     0.00000
  vdW         0.02799    -0.00018     0.00122    -0.00059    -0.00000    -0.00000
  -------------------------------------------------------------------------------------
  Total      -1.45418    -0.03746    -0.03284     0.00000     0.00000     0.00000
  in kB      -0.23578    -0.00607    -0.00532     0.00000     0.00000     0.00000
  external pressure =       -0.08 kB  Pullay stress =        0.00 kB


 VOLUME and BASIS-vectors are now :
 -----------------------------------------------------------------------------
  energy-cutoff  :      520.00
  volume of cell :     9881.61
      direct lattice vectors                 reciprocal lattice vectors
    21.138852197  0.000000000  0.000000000     0.047306258  0.000000000  0.000000000
     0.000000000 21.138852197  0.000000000     0.000000000  0.047306258  0.000000000
     0.000000000  0.000000000 22.113885220     0.000000000  0.000000000  0.045220457

  length of vectors
    21.138852197 21.138852197 22.113885220     0.047306258  0.047306258  0.045220457


 FORCES acting on ions:
    Electron-Ion                     Ewald-Force                    Non-Local-Force
 -----------------------------------------------------------------------------------------------
   -.270E+03 -.112E-05 -.109E-04   0.262E+03 0.847E-17 -.775E-17   0.698E+01 0.000E+00 0.184E-20
   0.270E+03 -.112E-05 -.108E-04   -.262E+03 0.114E-16 -.217E-16   -.698E+01 0.000E+00 -.178E-20
 -----------------------------------------------------------------------------------------------
   0.102E-05 -.228E-05 -.238E-04   0.000E+00 0.199E-16 -.295E-16   0.888E-15 0.000E+00 0.553E-22


 POSITION                                       TOTAL-FORCE (eV/Angst)
 -----------------------------------------------------------------------------------
     13.96710     10.56943     13.56860        -0.556282      0.000000     -0.000000
     11.39952     10.56943     13.56860         0.556282      0.000000      0.000000
 -----------------------------------------------------------------------------------
    total drift:                                0.000001     -0.000002     -0.000024


--------------------------------------------------------------------------------------------------------



  FREE ENERGIE OF THE ION-ELECTRON SYSTEM (eV)
  ---------------------------------------------------
  free  energy   TOTEN  =        -2.71981024 eV

  energy  without entropy=       -2.71981024  energy(sigma->0) =       -2.71981024



--------------------------------------------------------------------------------------------------------


    POTLOK:  cpu time      0.4505: real time      0.4507


--------------------------------------------------------------------------------------------------------


     LOOP+:  cpu time     63.7449: real time     63.8681
    4ORBIT:  cpu time      0.0000: real time      0.0000

 total amount of memory used by VASP MPI-rank0   135422. kBytes
=======================================================================

   base      :      30000. kBytes
   nonlr-proj:        713. kBytes
   fftplans  :      38432. kBytes
   grid      :      53473. kBytes
   one-center:         15. kBytes
   wavefun   :      12789. kBytes

  
  
 General timing and accounting informations for this job:
 ========================================================
  
                  Total CPU time used (sec):       80.815
                            User time (sec):       79.077
                          System time (sec):        1.738
                         Elapsed time (sec):       85.510
  
                   Maximum memory used (kb):      332964.
                   Average memory used (kb):          N/A
  
                          Minor page faults:        73583
                          Major page faults:            0
                 Voluntary context switches:         6649
