 vasp.6.3.0 20Jan22 (build Apr  1 2022 16:44:48) complex                         
 executed on        HPECrayEX_GCC date 2022.12.06  08:22:28
 running   64 mpi-ranks, with    1 threads/rank
 distrk:  each k-point on   32 cores,    2 groups
 distr:  one band on NCORE=   4 cores,    8 groups


--------------------------------------------------------------------------------------------------------


 INCAR:
   SYSTEM = MgO-rocksalt
   ISMEAR = 0
   SIGMA = 0.05
   EDIFF = 1E-6
   ALGO = ALL
   ISTART = 0
   IBRION = -1
   NSW = 0
   ISYM = 2
   GGA = PE
   IVDW = 13
   VDW_S8 = 0.9595
   VDW_A1 = 0.3857
   VDW_A2 = 4.8069
   ENCUT = 520
   PREC = Accurate
   LASPH = .TRUE.
   LREAL = Auto
   NELM = 200
   NELMIN = 8
   NCORE = 4
   KPAR = 2
   LWAVE = .FALSE.
   LCHARG = .FALSE.
   ISPIN = 2

 POTCAR:    PAW_PBE Ag 02Apr2005                  
 -----------------------------------------------------------------------------
|                                                                             |
|           W    W    AA    RRRRR   N    N  II  N    N   GGGG   !!!           |
|           W    W   A  A   R    R  NN   N  II  NN   N  G    G  !!!           |
|           W    W  A    A  R    R  N N  N  II  N N  N  G       !!!           |
|           W WW W  AAAAAA  RRRRR   N  N N  II  N  N N  G  GGG   !            |
|           WW  WW  A    A  R   R   N   NN  II  N   NN  G    G                |
|           W    W  A    A  R    R  N    N  II  N    N   GGGG   !!!           |
|                                                                             |
|     You use a magnetic or noncollinear calculation, but did not specify     |
|     the initial magnetic moment with the MAGMOM tag. Note that a            |
|     default of 1 will be used for all atoms. This ferromagnetic setup       |
|     may break the symmetry of the crystal, in particular it may rule        |
|     out finding an antiferromagnetic solution. Thence, we recommend         |
|     setting the initial magnetic moment manually or verifying carefully     |
|     that this magnetic setup is desired.                                    |
|                                                                             |
 -----------------------------------------------------------------------------

 POTCAR:    PAW_PBE Ag 02Apr2005                  
   SHA256 =  6550cfa3543261e132c169e1b98a529204624d72be14e2da2e0242bcb74a174d Ag/POTCAR             
   COPYR  = (c) Copyright 02Apr2005 Georg Kresse                                                    
   COPYR  = This file is part of the software VASP. Any use, copying, and all other rights are regul
   COPYR  = If you do not have a valid VASP license, you may not use, copy or distribute this file. 
   VRHFIN =Ag : s1 d10                                                                              
   LEXCH  = PE                                                                                      
   EATOM  =  1037.2675 eV,   76.2370 Ry                                                             
                                                                                                    
   TITEL  = PAW_PBE Ag 02Apr2005                                                                    
   LULTRA =        F    use ultrasoft PP ?                                                          
   IUNSCR =        1    unscreen: 0-lin 1-nonlin 2-no                                               
   RPACOR =    2.000    partial core radius                                                         
   POMASS =  107.868; ZVAL   =   11.000    mass and valenz                                          
   RCORE  =    2.500    outmost cutoff radius                                                       
   RWIGS  =    2.840; RWIGS  =    1.503    wigner-seitz radius (au A)                               
   ENMAX  =  249.844; ENMIN  =  187.383 eV                                                          
   ICORE  =        3    local potential                                                             
   LCOR   =        T    correct aug charges                                                         
   LPAW   =        T    paw PP                                                                      
   EAUG   =  412.496                                                                                
   DEXC   =    0.000                                                                                
   RMAX   =    2.560    core radius for proj-oper                                                   
   RAUG   =    1.300    factor for augmentation sphere                                              
   RDEP   =    2.576    radius for radial grids                                                     
   RDEPT  =    2.072    core radius for aug-charge                                                  
                                                                                                    
   Atomic configuration                                                                             
   12 entries                                                                                       
     n  l   j            E        occ.                                                              
     1  0  0.50    -25324.9161   2.0000                                                             
     2  0  0.50     -3728.5341   2.0000                                                             
     2  1  1.50     -3344.0404   6.0000                                                             
     3  0  0.50      -683.5581   2.0000                                                             
     3  1  1.50      -557.3225   6.0000                                                             
     3  2  2.50      -358.3853  10.0000                                                             
     4  0  0.50       -95.0341   2.0000                                                             
     4  1  1.50       -58.5511   6.0000                                                             
     4  2  2.50        -7.4440  10.0000                                                             
     5  0  0.50        -4.4045   1.0000                                                             
     5  1  0.50        -1.3606   0.0000                                                             
     4  3  2.50        -1.3606   0.0000                                                             
   Description                                                                                      
     l       E           TYP  RCUT    TYP  RCUT                                                     
     2     -7.4439781     23  2.400                                                                 
     2     -8.8045607     23  2.400                                                                 
     0     -4.4044681     23  2.400                                                                 
     0      1.9520038     23  2.400                                                                 
     1     -1.3605826     23  2.500                                                                 
     1     27.2116520     23  2.500                                                                 
     3     -4.0817478     23  2.400                                                                 
  local pseudopotential read in
  partial core-charges read in
  partial kinetic energy density read in
  atomic valenz-charges read in
  non local Contribution for L=           2  read in
    real space projection operators read in
  non local Contribution for L=           2  read in
    real space projection operators read in
  non local Contribution for L=           0  read in
    real space projection operators read in
  non local Contribution for L=           0  read in
    real space projection operators read in
  non local Contribution for L=           1  read in
    real space projection operators read in
  non local Contribution for L=           1  read in
    real space projection operators read in
    PAW grid and wavefunctions read in

   number of l-projection  operators is LMAX  =           6
   number of lm-projection operators is LMMAX =          18

 -----------------------------------------------------------------------------
|                                                                             |
|               ----> ADVICE to this user running VASP <----                  |
|                                                                             |
|     You have a (more or less) 'small supercell' and for smaller cells       |
|     it is recommended to use the reciprocal-space projection scheme!        |
|     The real-space optimization is not efficient for small cells and it     |
|     is also less accurate ...                                               |
|     Therefore, set LREAL=.FALSE. in the INCAR file.                         |
|                                                                             |
 -----------------------------------------------------------------------------

 Optimization of the real space projectors (new method)

 maximal supplied QI-value         = 15.12
 optimisation between [QCUT,QGAM] = [ 11.64, 23.28] = [ 37.95,151.78] Ry 
 Optimized for a Real-space Cutoff    1.45 Angstroem

   l    n(q)    QCUT    max X(q) W(low)/X(q) W(high)/X(q)  e(spline) 
   2      9    11.641    53.897    0.22E-03    0.42E-04    0.28E-06
   2      9    11.641    52.416    0.23E-03    0.44E-04    0.29E-06
   0     10    11.641   122.045    0.51E-04    0.25E-04    0.16E-06
   0     10    11.641    73.629    0.49E-04    0.24E-04    0.16E-06
   1     10    11.641    15.255    0.99E-04    0.55E-04    0.11E-06
   1     10    11.641     9.562    0.81E-04    0.47E-04    0.95E-07
  PAW_PBE Ag 02Apr2005                  :
 energy of atom  1       EATOM=-1037.2675
 kinetic energy error for atom=    0.0047 (will be added to EATOM!!)


 POSCAR: au4
  positions in direct lattice
  No initial velocities read in
 -----------------------------------------------------------------------------
|                                                                             |
|           W    W    AA    RRRRR   N    N  II  N    N   GGGG   !!!           |
|           W    W   A  A   R    R  NN   N  II  NN   N  G    G  !!!           |
|           W    W  A    A  R    R  N N  N  II  N N  N  G       !!!           |
|           W WW W  AAAAAA  RRRRR   N  N N  II  N  N N  G  GGG   !            |
|           WW  WW  A    A  R   R   N   NN  II  N   NN  G    G                |
|           W    W  A    A  R    R  N    N  II  N    N   GGGG   !!!           |
|                                                                             |
|     Specifying the vdW parameters                                           |
|     VDW_S8 = 0.96                                                           |
|     VDW_A1 = 0.386                                                          |
|     VDW_A2 = 4.807                                                          |
|     in the INCAR file will overwrite the defaults for pbe. Please make      |
|     sure that is what you intended.                                         |
|                                                                             |
 -----------------------------------------------------------------------------

 exchange correlation table for  LEXCH =        8
   RHO(1)=    0.500       N(1)  =     2000
   RHO(2)=  100.500       N(2)  =     4000



--------------------------------------------------------------------------------------------------------


 ion  position               nearest neighbor table
   1  0.450  0.460  0.600-

  LATTYP: Found a simple cubic cell.
 ALAT       =    20.0000000000
  
  Lattice vectors:
  
 A1 = (  20.0000000000,   0.0000000000,   0.0000000000)
 A2 = (   0.0000000000,  20.0000000000,   0.0000000000)
 A3 = (   0.0000000000,   0.0000000000,  20.0000000000)


Analysis of symmetry for initial positions (statically):
=====================================================================
 Subroutine PRICEL returns:
 Original cell was already a primitive cell.
 

 Routine SETGRP: Setting up the symmetry group for a 
 simple cubic supercell.


 Subroutine GETGRP returns: Found 48 space group operations
 (whereof  1 operations were pure point group operations)
 out of a pool of 48 trial point group operations.


The static configuration has the point symmetry C_1 .
 The point group associated with its full space group is O_h .


Analysis of symmetry for dynamics (positions and initial velocities):
=====================================================================
 Subroutine PRICEL returns:
 Original cell was already a primitive cell.
 

 Routine SETGRP: Setting up the symmetry group for a 
 simple cubic supercell.


 Subroutine GETGRP returns: Found 48 space group operations
 (whereof  1 operations were pure point group operations)
 out of a pool of 48 trial point group operations.


The dynamic configuration has the point symmetry C_1 .
 The point group associated with its full space group is O_h .


Analysis of structural, dynamic, and magnetic symmetry:
=====================================================================
 Subroutine PRICEL returns:
 Original cell was already a primitive cell.
 

 Routine SETGRP: Setting up the symmetry group for a 
 simple cubic supercell.


 Subroutine GETGRP returns: Found 48 space group operations
 (whereof  1 operations were pure point group operations)
 out of a pool of 48 trial point group operations.


The overall configuration has the point symmetry C_1 .
 The point group associated with its full space group is O_h .


 Subroutine INISYM returns: Found 48 space group operations
 (whereof  1 operations are pure point group operations),
 and found     1 'primitive' translations


----------------------------------------------------------------------------------------

                                     Primitive cell                                     

  volume of cell :    8000.0000

  direct lattice vectors                    reciprocal lattice vectors
    20.000000000  0.000000000  0.000000000     0.050000000  0.000000000  0.000000000
     0.000000000 20.000000000  0.000000000     0.000000000  0.050000000  0.000000000
     0.000000000  0.000000000 20.000000000     0.000000000  0.000000000  0.050000000

  length of vectors
    20.000000000 20.000000000 20.000000000     0.050000000  0.050000000  0.050000000

  position of ions in fractional coordinates (direct lattice)
     0.450000000  0.460000000  0.600000000

  ion indices of the primitive-cell ions
   primitive index   ion index
                 1           1

----------------------------------------------------------------------------------------



 KPOINTS: KPOINTS created by Atomic Simulation Env

Automatic generation of k-mesh.
 Grid dimensions read from file:
 generate k-points for:    1    1    1

 Generating k-lattice:

  Cartesian coordinates                     Fractional coordinates (reciprocal lattice)
     0.050000000  0.000000000  0.000000000     1.000000000  0.000000000  0.000000000
     0.000000000  0.050000000  0.000000000     0.000000000  1.000000000  0.000000000
     0.000000000  0.000000000  0.050000000     0.000000000  0.000000000  1.000000000

  Length of vectors
     0.050000000  0.050000000  0.050000000

  Shift w.r.t. Gamma in fractional coordinates (k-lattice)
     0.000000000  0.000000000  0.000000000

 
 Subroutine IBZKPT returns following result:
 ===========================================
 
 Found      1 irreducible k-points:
 
 Following reciprocal coordinates:
            Coordinates               Weight
  0.000000  0.000000  0.000000      1.000000
 
 Following cartesian coordinates:
            Coordinates               Weight
  0.000000  0.000000  0.000000      1.000000
 


--------------------------------------------------------------------------------------------------------




 Dimension of arrays:
   k-points           NKPTS =      1   k-points in BZ     NKDIM =      1   number of bands    NBANDS=     16
   number of dos      NEDOS =    301   number of ions     NIONS =      1
   non local maximal  LDIM  =      6   non local SUM 2l+1 LMDIM =     18
   total plane-waves  NPLWV = ******
   max r-space proj   IRMAX =   5390   max aug-charges    IRDMAX=  20940
   dimension x,y,z NGX =   150 NGY =  150 NGZ =  150
   dimension x,y,z NGXF=   300 NGYF=  300 NGZF=  300
   support grid    NGXF=   300 NGYF=  300 NGZF=  300
   ions per type =               1
   NGX,Y,Z   is equivalent  to a cutoff of  12.47, 12.47, 12.47 a.u.
   NGXF,Y,Z  is equivalent  to a cutoff of  24.94, 24.94, 24.94 a.u.

 SYSTEM =  MgO-rocksalt                            
 POSCAR =  au4                                     

 Startparameter for this run:
   NWRITE =      2    write-flag & timer
   PREC   = accura    normal or accurate (medium, high low for compatibility)
   ISTART =      0    job   : 0-new  1-cont  2-samecut
   ICHARG =      2    charge: 1-file 2-atom 10-const
   ISPIN  =      2    spin polarized calculation?
   LNONCOLLINEAR =      F non collinear calculations
   LSORBIT =      F    spin-orbit coupling
   INIWAV =      1    electr: 0-lowe 1-rand  2-diag
   LASPH  =      T    aspherical Exc in radial PAW
 Electronic Relaxation 1
   ENCUT  =  520.0 eV  38.22 Ry    6.18 a.u.  37.19 37.19 37.19*2*pi/ulx,y,z
   ENINI  =  520.0     initial cutoff
   ENAUG  =  412.5 eV  augmentation charge cutoff
   NELM   =    200;   NELMIN=  8; NELMDL= -5     # of ELM steps 
   EDIFF  = 0.1E-05   stopping-criterion for ELM
   LREAL  =      T    real-space projection
   NLSPLINE    = F    spline interpolate recip. space projectors
   LCOMPAT=      F    compatible to vasp.4.4
   GGA_COMPAT  = T    GGA compatible to vasp.4.4-vasp.4.6
   LMAXPAW     = -100 max onsite density
   LMAXMIX     =    2 max onsite mixed and CHGCAR
   VOSKOWN=      0    Vosko Wilk Nusair interpolation
   ROPT   =   -0.00025
 Ionic relaxation
   EDIFFG = 0.1E-04   stopping-criterion for IOM
   NSW    =      0    number of steps for IOM
   NBLOCK =      1;   KBLOCK =      1    inner block; outer block 
   IBRION =     -1    ionic relax: 0-MD 1-quasi-New 2-CG
   NFREE  =      0    steps in history (QN), initial steepest desc. (CG)
   ISIF   =      2    stress and relaxation
   IWAVPR =     10    prediction:  0-non 1-charg 2-wave 3-comb
   ISYM   =      2    0-nonsym 1-usesym 2-fastsym
   LCORR  =      T    Harris-Foulkes like correction to forces

   POTIM  = 0.5000    time-step for ionic-motion
   TEIN   =    0.0    initial temperature
   TEBEG  =    0.0;   TEEND  =   0.0 temperature during run
   SMASS  =  -3.00    Nose mass-parameter (am)
   estimated Nose-frequenzy (Omega)   =  0.10E-29 period in steps = 0.13E+47 mass=  -0.914E-26a.u.
   SCALEE = 1.0000    scale energy and forces
   NPACO  =    256;   APACO  = 10.0  distance and # of slots for P.C.
   PSTRESS=    0.0 pullay stress

  Mass of Ions in am
   POMASS = 107.87
  Ionic Valenz
   ZVAL   =  11.00
  Atomic Wigner-Seitz radii
   RWIGS  =  -1.00
  virtual crystal weights 
   VCA    =   1.00
   NELECT =      11.0000    total number of electrons
   NUPDOWN=      -1.0000    fix difference up-down

 DOS related values:
   EMIN   =  10.00;   EMAX   =-10.00  energy-range for DOS
   EFERMI =   0.00
   ISMEAR =     0;   SIGMA  =   0.05  broadening in eV -4-tet -1-fermi 0-gaus

 Electronic relaxation 2 (details)
   IALGO  =     58    algorithm
   LDIAG  =      T    sub-space diagonalisation (order eigenvalues)
   LSUBROT=      F    optimize rotation matrix (better conditioning)
   TURBO    =      0    0=normal 1=particle mesh
   IRESTART =      0    0=no restart 2=restart with 2 vectors
   NREBOOT  =      0    no. of reboots
   NMIN     =      0    reboot dimension
   EREF     =   0.00    reference energy to select bands
   IMIX   =      4    mixing-type and parameters
     AMIX     =   0.40;   BMIX     =  1.00
     AMIX_MAG =   1.60;   BMIX_MAG =  1.00
     AMIN     =   0.10
     WC   =   100.;   INIMIX=   1;  MIXPRE=   1;  MAXMIX= -45

 Intra band minimization:
   WEIMIN = 0.0000     energy-eigenvalue tresh-hold
   EBREAK =  0.16E-07  absolut break condition
   DEPER  =   0.30     relativ break condition  

   TIME   =   0.40     timestep for ELM

  volume/ion in A,a.u.               =    8000.00     53986.66
  Fermi-wavevector in a.u.,A,eV,Ry     =   0.182044  0.344013  0.450896  0.033140
  Thomas-Fermi vector in A             =   0.909791

 Write flags
   LWAVE        =      F    write WAVECAR
   LDOWNSAMPLE  =      F    k-point downsampling of WAVECAR
   LCHARG       =      F    write CHGCAR
   LVTOT        =      F    write LOCPOT, total local potential
   LVHAR        =      F    write LOCPOT, Hartree potential only
   LELF         =      F    write electronic localiz. function (ELF)
   LORBIT       =      0    0 simple, 1 ext, 2 COOP (PROOUT), +10 PAW based schemes


 Dipole corrections
   LMONO  =      F    monopole corrections only (constant potential shift)
   LDIPOL =      F    correct potential (dipole corrections)
   IDIPOL =      0    1-x, 2-y, 3-z, 4-all directions 
   EPSILON=  1.0000000 bulk dielectric constant

 Exchange correlation treatment:
   GGA     =    PE    GGA type
   LEXCH   =     8    internal setting for exchange type
   LIBXC   =     F    Libxc                    
   VOSKOWN =     0    Vosko Wilk Nusair interpolation
   LHFCALC =     F    Hartree Fock is set to
   LHFONE  =     F    Hartree Fock one center treatment
   AEXX    =    0.0000 exact exchange contribution

 Linear response parameters
   LEPSILON=     F    determine dielectric tensor
   LRPA    =     F    only Hartree local field effects (RPA)
   LNABLA  =     F    use nabla operator in PAW spheres
   LVEL    =     F    velocity operator in full k-point grid
   CSHIFT  =0.1000    complex shift for real part using Kramers Kronig
   OMEGAMAX=  -1.0    maximum frequency
   DEG_THRESHOLD= 0.2000000E-02 threshold for treating states as degnerate
   RTIME   =   -0.100 relaxation time in fs
  (WPLASMAI=    0.000 imaginary part of plasma frequency in eV, 0.658/RTIME)
   DFIELD  = 0.0000000 0.0000000 0.0000000 field for delta impulse in time

  Optional k-point grid parameters
   LKPOINTS_OPT  =     F    use optional k-point grid
   KPOINTS_OPT_MODE=     1    mode for optional k-point grid

 Orbital magnetization related:
   ORBITALMAG=     F  switch on orbital magnetization
   LCHIMAG   =     F  perturbation theory with respect to B field
   DQ        =  0.001000  dq finite difference perturbation B field
   LLRAUG    =     F  two centre corrections for induced B field



--------------------------------------------------------------------------------------------------------


 Static calculation
 charge density and potential will be updated during run
 spin polarized calculation
 Conjugate gradient for all bands (Freysoldt, et al. PRB 79, 241103 (2009))
 preconditioned conjugated gradient                                        
 perform sub-space diagonalisation
    before iterative eigenvector-optimisation
 modified Broyden-mixing scheme, WC =      100.0
 initial mixing is a Kerker type mixing with AMIX =  0.4000 and BMIX =      1.0000
 Hartree-type preconditioning will be used
 using additional bands           10
 real space projection scheme for non local part
 use partial core corrections
 no Harris-corrections to forces 
 use gradient corrections 
 use of overlap-Matrix (Vanderbilt PP)
 Gauss-broadening in eV      SIGMA  =   0.05


--------------------------------------------------------------------------------------------------------


  energy-cutoff  :      520.00
  volume of cell :     8000.00
      direct lattice vectors                 reciprocal lattice vectors
    20.000000000  0.000000000  0.000000000     0.050000000  0.000000000  0.000000000
     0.000000000 20.000000000  0.000000000     0.000000000  0.050000000  0.000000000
     0.000000000  0.000000000 20.000000000     0.000000000  0.000000000  0.050000000

  length of vectors
    20.000000000 20.000000000 20.000000000     0.050000000  0.050000000  0.050000000



 k-points in units of 2pi/SCALE and weight: KPOINTS created by Atomic Simulation Env
   0.00000000  0.00000000  0.00000000       1.000

 k-points in reciprocal lattice and weights: KPOINTS created by Atomic Simulation Env
   0.00000000  0.00000000  0.00000000       1.000

 position of ions in fractional coordinates (direct lattice) 
   0.45000000  0.46000000  0.60000000

 position of ions in cartesian coordinates  (Angst):
   9.00000000  9.20000000 12.00000000



--------------------------------------------------------------------------------------------------------


 k-point   1 :   0.0000 0.0000 0.0000  plane waves:  215503

 maximum and minimum number of plane-waves per node :     53900    53857

 maximum number of plane-waves:    215503
 maximum index in each direction: 
   IXMAX=   37   IYMAX=   37   IZMAX=   37
   IXMIN=  -37   IYMIN=  -37   IZMIN=  -37


 real space projection operators:
  total allocation   :        718.59 KBytes
  max/ min on nodes  :        182.39        176.91


 parallel 3D FFT for wavefunctions:
    minimum data exchange during FFTs selected (reduces bandwidth)
 parallel 3D FFT for charge:
    minimum data exchange during FFTs selected (reduces bandwidth)


 total amount of memory used by VASP MPI-rank0   229579. kBytes
=======================================================================

   base      :      30000. kBytes
   nonlr-proj:        313. kBytes
   fftplans  :      55167. kBytes
   grid      :     133718. kBytes
   one-center:         31. kBytes
   wavefun   :      10350. kBytes

     INWAV:  cpu time      0.0000: real time      0.0000
 Broyden mixing: mesh for mixing (old mesh)
   NGX = 75   NGY = 75   NGZ = 75
  (NGX  =300   NGY  =300   NGZ  =300)
  gives a total of 421875 points

 initial charge density was supplied:
 charge density of overlapping atoms calculated
 number of electron      11.0000000 magnetization       1.0000000
 keeping initial charge density in first step


--------------------------------------------------------------------------------------------------------


 Maximum index for non-local projection operator         1297
 Maximum index for augmentation-charges          749 (set IRDMAX)


--------------------------------------------------------------------------------------------------------


 First call to EWALD:  gamma=   0.089
 Maximum number of real-space cells 3x 3x 3
 Maximum number of reciprocal cells 3x 3x 3

    FEWALD:  cpu time      0.0012: real time      0.0012


--------------------------------------- Iteration      1(   1)  ---------------------------------------


    POTLOK:  cpu time      1.3723: real time      1.3726
    SETDIJ:  cpu time      0.4019: real time      0.4020
    TRIAL :  cpu time      1.0622: real time      1.2477
    CORREC:  cpu time      0.0004: real time      0.0004
    --------------------------------------------
      LOOP:  cpu time      2.8494: real time      3.0357

 eigenvalue-minimisations  :    64
 total energy-change (2. order) : 0.7855103E+02  (-0.1313379E+03)
 number of electron      11.0000000 magnetization       1.0000000
 augmentation part       11.0000000 magnetization       1.0000000

 Free energy of the ion-electron system (eV)
  ---------------------------------------------------
  alpha Z        PSCENC =         0.10632226
  Ewald energy   TEWEN  =      -123.59085203
  -Hartree energ DENC   =      -869.22072703
  -exchange      EXHF   =         0.00000000
  -V(xc)+E(xc)   XCENC  =       -12.06854912
  PAW double counting   =      1003.37217807     -957.26460888
  entropy T*S    EENTRO =        -0.02729746
  eigenvalues    EBANDS =        -0.01821859
  atomic energy  EATOM  =      1037.26278146
  ---------------------------------------------------
  free energy    TOTEN  =        78.55102868 eV

  energy without entropy =       78.57832614  energy(sigma->0) =       78.56467741


--------------------------------------------------------------------------------------------------------




--------------------------------------- Iteration      1(   2)  ---------------------------------------


    TRIAL :  cpu time      1.2067: real time      1.2068
    CORREC:  cpu time      0.0002: real time      0.0002
    --------------------------------------------
      LOOP:  cpu time      1.2117: real time      1.2197

 eigenvalue-minimisations  :    80
 total energy-change (2. order) :-0.1050686E+02  (-0.9605174E+01)
 number of electron      11.0000000 magnetization       1.0000000
 augmentation part       11.0000000 magnetization       1.0000000

 Free energy of the ion-electron system (eV)
  ---------------------------------------------------
  alpha Z        PSCENC =         0.10632226
  Ewald energy   TEWEN  =      -123.59085203
  -Hartree energ DENC   =      -869.22072703
  -exchange      EXHF   =         0.00000000
  -V(xc)+E(xc)   XCENC  =       -12.06854912
  PAW double counting   =      1003.37217807     -957.26460888
  entropy T*S    EENTRO =        -0.04666350
  eigenvalues    EBANDS =       -10.50571104
  atomic energy  EATOM  =      1037.26278146
  ---------------------------------------------------
  free energy    TOTEN  =        68.04417019 eV

  energy without entropy =       68.09083369  energy(sigma->0) =       68.06750194


--------------------------------------------------------------------------------------------------------




--------------------------------------- Iteration      1(   3)  ---------------------------------------


    TRIAL :  cpu time      1.7729: real time      1.7732
    CORREC:  cpu time      0.0002: real time      0.0002
    --------------------------------------------
      LOOP:  cpu time      1.7764: real time      1.7837

 eigenvalue-minimisations  :   128
 total energy-change (2. order) :-0.5530770E+02  (-0.4986125E+02)
 number of electron      11.0000000 magnetization       1.0000000
 augmentation part       11.0000000 magnetization       1.0000000

 Free energy of the ion-electron system (eV)
  ---------------------------------------------------
  alpha Z        PSCENC =         0.10632226
  Ewald energy   TEWEN  =      -123.59085203
  -Hartree energ DENC   =      -869.22072703
  -exchange      EXHF   =         0.00000000
  -V(xc)+E(xc)   XCENC  =       -12.06854912
  PAW double counting   =      1003.37217807     -957.26460888
  entropy T*S    EENTRO =        -0.00001653
  eigenvalues    EBANDS =       -65.86005608
  atomic energy  EATOM  =      1037.26278146
  ---------------------------------------------------
  free energy    TOTEN  =        12.73647211 eV

  energy without entropy =       12.73648864  energy(sigma->0) =       12.73648038


--------------------------------------------------------------------------------------------------------




--------------------------------------- Iteration      1(   4)  ---------------------------------------


    TRIAL :  cpu time      1.1268: real time      1.1269
    CORREC:  cpu time      0.0002: real time      0.0002
    --------------------------------------------
      LOOP:  cpu time      1.1374: real time      1.1378

 eigenvalue-minimisations  :    72
 total energy-change (2. order) :-0.1263607E+02  (-0.1261512E+02)
 number of electron      11.0000000 magnetization       1.0000000
 augmentation part       11.0000000 magnetization       1.0000000

 Free energy of the ion-electron system (eV)
  ---------------------------------------------------
  alpha Z        PSCENC =         0.10632226
  Ewald energy   TEWEN  =      -123.59085203
  -Hartree energ DENC   =      -869.22072703
  -exchange      EXHF   =         0.00000000
  -V(xc)+E(xc)   XCENC  =       -12.06854912
  PAW double counting   =      1003.37217807     -957.26460888
  entropy T*S    EENTRO =        -0.00001618
  eigenvalues    EBANDS =       -78.49612380
  atomic energy  EATOM  =      1037.26278146
  ---------------------------------------------------
  free energy    TOTEN  =         0.10040474 eV

  energy without entropy =        0.10042092  energy(sigma->0) =        0.10041283


--------------------------------------------------------------------------------------------------------




--------------------------------------- Iteration      1(   5)  ---------------------------------------


    TRIAL :  cpu time      1.3170: real time      1.3171
    CORREC:  cpu time      0.0002: real time      0.0002
    CHARGE:  cpu time      1.0810: real time      1.0813
    --------------------------------------------
      LOOP:  cpu time      2.4017: real time      2.4088

 eigenvalue-minimisations  :    88
 total energy-change (2. order) :-0.1066146E+00  (-0.1065808E+00)
 number of electron      10.9999991 magnetization       0.9998887
 augmentation part        5.3647435 magnetization      -0.0560222

 Free energy of the ion-electron system (eV)
  ---------------------------------------------------
  alpha Z        PSCENC =         0.10632226
  Ewald energy   TEWEN  =      -123.59085203
  -Hartree energ DENC   =      -869.22072703
  -exchange      EXHF   =         0.00000000
  -V(xc)+E(xc)   XCENC  =       -12.06854912
  PAW double counting   =      1003.37217807     -957.26460888
  entropy T*S    EENTRO =        -0.00001613
  eigenvalues    EBANDS =       -78.60273844
  atomic energy  EATOM  =      1037.26278146
  ---------------------------------------------------
  free energy    TOTEN  =        -0.00620984 eV

  energy without entropy =       -0.00619372  energy(sigma->0) =       -0.00620178


--------------------------------------------------------------------------------------------------------




--------------------------------------- Iteration      1(   6)  ---------------------------------------


    POTLOK:  cpu time      1.3549: real time      1.3551
    SETDIJ:  cpu time      0.4305: real time      0.4305
    TRIAL :  cpu time      0.6173: real time      0.6178
    CORREC:  cpu time      2.9385: real time      2.9390
    CHARGE:  cpu time      0.9963: real time      0.9964
    --------------------------------------------
      LOOP:  cpu time      6.3413: real time      6.3518

 eigenvalue-minimisations  :     0
 total energy-change (2. order) :-0.1679375E+00  (-0.2329926E-01)
 number of electron      10.9999991 magnetization       1.0000000
 augmentation part        5.3689370 magnetization      -0.1130405

 Free energy of the ion-electron system (eV)
  ---------------------------------------------------
  alpha Z        PSCENC =         0.10632226
  Ewald energy   TEWEN  =      -123.59085203
  -Hartree energ DENC   =      -869.47400855
  -exchange      EXHF   =         0.00000000
  -V(xc)+E(xc)   XCENC  =       -12.05300631
  PAW double counting   =       998.71917594     -952.66063361
  entropy T*S    EENTRO =        -0.00000000
  eigenvalues    EBANDS =       -78.48391041
  atomic energy  EATOM  =      1037.26278146
  ---------------------------------------------------
  free energy    TOTEN  =        -0.17414738 eV

  energy without entropy =       -0.17414738  energy(sigma->0) =       -0.17414738


--------------------------------------------------------------------------------------------------------




--------------------------------------- Iteration      1(   7)  ---------------------------------------


    POTLOK:  cpu time      1.3765: real time      1.3766
    SETDIJ:  cpu time      0.4200: real time      0.4200
    TRIAL :  cpu time      0.6158: real time      0.6159
    CORREC:  cpu time      2.9198: real time      2.9200
    CHARGE:  cpu time      0.9949: real time      0.9950
    --------------------------------------------
      LOOP:  cpu time      6.3395: real time      6.3402

 eigenvalue-minimisations  :     0
 total energy-change (2. order) :-0.2338079E-01  (-0.1461107E-02)
 number of electron      10.9999991 magnetization       1.0000000
 augmentation part        5.3663346 magnetization      -0.1196661

 Free energy of the ion-electron system (eV)
  ---------------------------------------------------
  alpha Z        PSCENC =         0.10632226
  Ewald energy   TEWEN  =      -123.59085203
  -Hartree energ DENC   =      -869.82630621
  -exchange      EXHF   =         0.00000000
  -V(xc)+E(xc)   XCENC  =       -12.02415064
  PAW double counting   =      1004.62392492     -958.53046345
  entropy T*S    EENTRO =        -0.00000000
  eigenvalues    EBANDS =       -78.21878448
  atomic energy  EATOM  =      1037.26278146
  ---------------------------------------------------
  free energy    TOTEN  =        -0.19752817 eV

  energy without entropy =       -0.19752817  energy(sigma->0) =       -0.19752817


--------------------------------------------------------------------------------------------------------




--------------------------------------- Iteration      1(   8)  ---------------------------------------


    POTLOK:  cpu time      1.3555: real time      1.3556
    SETDIJ:  cpu time      0.4291: real time      0.4296
    TRIAL :  cpu time      0.6164: real time      0.6164
    CORREC:  cpu time      2.9051: real time      2.9053
    CHARGE:  cpu time      0.9955: real time      0.9955
    --------------------------------------------
      LOOP:  cpu time      6.3052: real time      6.3166

 eigenvalue-minimisations  :     0
 total energy-change (2. order) :-0.1461888E-02  (-0.1655663E-03)
 number of electron      10.9999991 magnetization       1.0000000
 augmentation part        5.3687748 magnetization      -0.1207054

 Free energy of the ion-electron system (eV)
  ---------------------------------------------------
  alpha Z        PSCENC =         0.10632226
  Ewald energy   TEWEN  =      -123.59085203
  -Hartree energ DENC   =      -869.34032943
  -exchange      EXHF   =         0.00000000
  -V(xc)+E(xc)   XCENC  =       -12.03749685
  PAW double counting   =      1005.62052416     -959.51836871
  entropy T*S    EENTRO =        -0.00000000
  eigenvalues    EBANDS =       -78.70157091
  atomic energy  EATOM  =      1037.26278146
  ---------------------------------------------------
  free energy    TOTEN  =        -0.19899006 eV

  energy without entropy =       -0.19899006  energy(sigma->0) =       -0.19899006


--------------------------------------------------------------------------------------------------------




--------------------------------------- Iteration      1(   9)  ---------------------------------------


    POTLOK:  cpu time      1.3435: real time      1.3436
    SETDIJ:  cpu time      0.4243: real time      0.4243
    TRIAL :  cpu time      0.6145: real time      0.6146
    CORREC:  cpu time      2.9023: real time      2.9025
    CHARGE:  cpu time      0.9926: real time      0.9926
    --------------------------------------------
      LOOP:  cpu time      6.2814: real time      6.2902

 eigenvalue-minimisations  :     0
 total energy-change (2. order) :-0.1652955E-03  (-0.3261658E-04)
 number of electron      10.9999991 magnetization       1.0000000
 augmentation part        5.3680058 magnetization      -0.1210377

 Free energy of the ion-electron system (eV)
  ---------------------------------------------------
  alpha Z        PSCENC =         0.10632226
  Ewald energy   TEWEN  =      -123.59085203
  -Hartree energ DENC   =      -869.70627771
  -exchange      EXHF   =         0.00000000
  -V(xc)+E(xc)   XCENC  =       -12.02543485
  PAW double counting   =      1006.55697169     -960.46257740
  entropy T*S    EENTRO =        -0.00000000
  eigenvalues    EBANDS =       -78.34008876
  atomic energy  EATOM  =      1037.26278146
  ---------------------------------------------------
  free energy    TOTEN  =        -0.19915536 eV

  energy without entropy =       -0.19915536  energy(sigma->0) =       -0.19915536


--------------------------------------------------------------------------------------------------------




--------------------------------------- Iteration      1(  10)  ---------------------------------------


    POTLOK:  cpu time      1.3339: real time      1.3340
    SETDIJ:  cpu time      0.4219: real time      0.4219
    TRIAL :  cpu time      0.6135: real time      0.6135
    CORREC:  cpu time      2.9002: real time      2.9003
    CHARGE:  cpu time      0.9923: real time      0.9923
    --------------------------------------------
      LOOP:  cpu time      6.2746: real time      6.2753

 eigenvalue-minimisations  :     0
 total energy-change (2. order) :-0.3285428E-04  (-0.9250209E-05)
 number of electron      10.9999991 magnetization       1.0000000
 augmentation part        5.3679841 magnetization      -0.1211535

 Free energy of the ion-electron system (eV)
  ---------------------------------------------------
  alpha Z        PSCENC =         0.10632226
  Ewald energy   TEWEN  =      -123.59085203
  -Hartree energ DENC   =      -869.60284817
  -exchange      EXHF   =         0.00000000
  -V(xc)+E(xc)   XCENC  =       -12.02867273
  PAW double counting   =      1006.75544679     -960.66114100
  entropy T*S    EENTRO =        -0.00000000
  eigenvalues    EBANDS =       -78.44022478
  atomic energy  EATOM  =      1037.26278146
  ---------------------------------------------------
  free energy    TOTEN  =        -0.19918821 eV

  energy without entropy =       -0.19918821  energy(sigma->0) =       -0.19918821


--------------------------------------------------------------------------------------------------------




--------------------------------------- Iteration      1(  11)  ---------------------------------------


    POTLOK:  cpu time      1.3311: real time      1.3312
    SETDIJ:  cpu time      0.4297: real time      0.4297
    TRIAL :  cpu time      0.6139: real time      0.6139
    CORREC:  cpu time      2.9033: real time      2.9036
    CHARGE:  cpu time      0.9916: real time      0.9917
    --------------------------------------------
      LOOP:  cpu time      6.2740: real time      6.2838

 eigenvalue-minimisations  :     0
 total energy-change (2. order) :-0.8813872E-05  (-0.3512276E-05)
 number of electron      10.9999991 magnetization       1.0000000
 augmentation part        5.3680906 magnetization      -0.1210520

 Free energy of the ion-electron system (eV)
  ---------------------------------------------------
  alpha Z        PSCENC =         0.10632226
  Ewald energy   TEWEN  =      -123.59085203
  -Hartree energ DENC   =      -869.62025265
  -exchange      EXHF   =         0.00000000
  -V(xc)+E(xc)   XCENC  =       -12.02808678
  PAW double counting   =      1007.19700124     -961.10479180
  entropy T*S    EENTRO =        -0.00000000
  eigenvalues    EBANDS =       -78.42131873
  atomic energy  EATOM  =      1037.26278146
  ---------------------------------------------------
  free energy    TOTEN  =        -0.19919702 eV

  energy without entropy =       -0.19919702  energy(sigma->0) =       -0.19919702


--------------------------------------------------------------------------------------------------------




--------------------------------------- Iteration      1(  12)  ---------------------------------------


    POTLOK:  cpu time      1.3298: real time      1.3300
    SETDIJ:  cpu time      0.4266: real time      0.4266
    TRIAL :  cpu time      0.6129: real time      0.6130
    CORREC:  cpu time      2.8963: real time      2.8966
    CHARGE:  cpu time      0.9930: real time      0.9931
    --------------------------------------------
      LOOP:  cpu time      6.2634: real time      6.2729

 eigenvalue-minimisations  :     0
 total energy-change (2. order) :-0.3212496E-05  (-0.4130873E-06)
 number of electron      10.9999991 magnetization       1.0000000
 augmentation part        5.3680234 magnetization      -0.1210386

 Free energy of the ion-electron system (eV)
  ---------------------------------------------------
  alpha Z        PSCENC =         0.10632226
  Ewald energy   TEWEN  =      -123.59085203
  -Hartree energ DENC   =      -869.63635276
  -exchange      EXHF   =         0.00000000
  -V(xc)+E(xc)   XCENC  =       -12.02758239
  PAW double counting   =      1007.61210448     -961.52036081
  entropy T*S    EENTRO =        -0.00000000
  eigenvalues    EBANDS =       -78.40526045
  atomic energy  EATOM  =      1037.26278146
  ---------------------------------------------------
  free energy    TOTEN  =        -0.19920024 eV

  energy without entropy =       -0.19920024  energy(sigma->0) =       -0.19920024


--------------------------------------------------------------------------------------------------------




--------------------------------------- Iteration      1(  13)  ---------------------------------------


    POTLOK:  cpu time      1.3234: real time      1.3240
    SETDIJ:  cpu time      0.4193: real time      0.4193
    TRIAL :  cpu time      0.6100: real time      0.6101
    CORREC:  cpu time      2.8963: real time      2.8965
    EDDIAG:  cpu time      0.2411: real time      0.2412
    CHARGE:  cpu time      0.9910: real time      0.9911
    --------------------------------------------
      LOOP:  cpu time      6.4942: real time      6.4956

 eigenvalue-minimisations  :     0
 total energy-change (2. order) :-0.4000871E-06  (-0.2044588E-06)
 number of electron      10.9999991 magnetization       1.0000000
 augmentation part        5.3680315 magnetization      -0.1210372

 Free energy of the ion-electron system (eV)
  ---------------------------------------------------
  alpha Z        PSCENC =         0.10632226
  Ewald energy   TEWEN  =      -123.59085203
  -Hartree energ DENC   =      -869.62391108
  -exchange      EXHF   =         0.00000000
  -V(xc)+E(xc)   XCENC  =       -12.02797731
  PAW double counting   =      1007.65446453     -961.56237882
  entropy T*S    EENTRO =        -0.00000000
  eigenvalues    EBANDS =       -78.41764964
  atomic energy  EATOM  =      1037.26278146
  ---------------------------------------------------
  free energy    TOTEN  =        -0.19920064 eV

  energy without entropy =       -0.19920064  energy(sigma->0) =       -0.19920064


--------------------------------------------------------------------------------------------------------


  average scaling for gradient   1.5052


 average (electrostatic) potential at core
  the test charge radii are     1.1249
  (the norm of the test charge is              1.0000)
       1 -82.1734



 E-fermi :  -4.4605     XC(G=0):  -0.1169     alpha+bet : -0.0287

 Fermi energy:        -4.4604714252

 spin component 1

 k-point     1 :       0.0000    0.0000    0.0000
  band No.  band energies     occupation 
      1      -7.4745      1.00000
      2      -7.4745      1.00000
      3      -7.4745      1.00000
      4      -7.4745      1.00000
      5      -7.4745      1.00000
      6      -4.7039      1.00000
      7      -0.9429      0.00000
      8      -0.9429      0.00000
      9      -0.9429      0.00000
     10      -0.0844      0.00000
     11       0.2699      0.00000
     12       0.3575      0.00000
     13       0.3579      0.00000
     14       0.3976      0.00000
     15       0.3976      0.00000
     16       0.3976      0.00000
 Fermi energy:        -4.4604714252

 spin component 2

 k-point     1 :       0.0000    0.0000    0.0000
  band No.  band energies     occupation 
      1      -7.2683      1.00000
      2      -7.2683      1.00000
      3      -7.2683      1.00000
      4      -7.2683      1.00000
      5      -7.2683      1.00000
      6      -3.9301      0.00000
      7      -0.2171      0.00000
      8      -0.2171      0.00000
      9      -0.2171      0.00000
     10       0.0312      0.00000
     11       0.3969      0.00000
     12       0.3970      0.00000
     13       0.4439      0.00000
     14       0.4492      0.00000
     15       0.4493      0.00000
     16       0.4493      0.00000


--------------------------------------------------------------------------------------------------------


 soft charge-density along one line, spin component           1
         0         1         2         3         4         5         6         7         8         9
 total charge-density along one line

 soft charge-density along one line, spin component           2
         0         1         2         3         4         5         6         7         8         9
 total charge-density along one line

 pseudopotential strength for first ion, spin component:           1
-10.317   0.000   0.000  -0.000  -0.000 -10.293   0.000   0.000
  0.000 -10.317  -0.000  -0.000   0.000   0.000 -10.293  -0.000
  0.000  -0.000 -10.317   0.000  -0.000   0.000  -0.000 -10.293
 -0.000  -0.000   0.000 -10.317   0.000  -0.000  -0.000   0.000
 -0.000   0.000  -0.000   0.000 -10.317  -0.000   0.000  -0.000
-10.293   0.000   0.000  -0.000  -0.000 -10.244   0.000   0.000
  0.000 -10.293  -0.000  -0.000   0.000   0.000 -10.244  -0.000
  0.000  -0.000 -10.293   0.000  -0.000   0.000  -0.000 -10.244
 -0.000  -0.000   0.000 -10.293   0.000  -0.000  -0.000   0.000
 -0.000   0.000  -0.000   0.000 -10.293  -0.000   0.000  -0.000
  0.000   0.000   0.000  -0.000  -0.000   0.000   0.000   0.000
  0.000   0.000   0.000  -0.000  -0.000   0.000   0.000   0.000
 -0.000   0.000   0.000  -0.000   0.000  -0.000   0.000   0.000
 -0.000  -0.000   0.000  -0.000  -0.000  -0.000  -0.000   0.000
 -0.000  -0.000   0.000   0.000  -0.000  -0.000  -0.000   0.000
 -0.000   0.000   0.000  -0.000   0.000  -0.000   0.000   0.000
 -0.000  -0.000   0.000  -0.000  -0.000  -0.000  -0.000   0.000
 -0.000  -0.000   0.000   0.000  -0.000  -0.000  -0.000   0.000
 pseudopotential strength for first ion, spin component:           2
-10.339   0.000   0.000  -0.000  -0.000 -10.314   0.000   0.000
  0.000 -10.339  -0.000  -0.000   0.000   0.000 -10.314  -0.000
  0.000  -0.000 -10.339   0.000  -0.000   0.000  -0.000 -10.314
 -0.000  -0.000   0.000 -10.339   0.000  -0.000  -0.000   0.000
 -0.000   0.000  -0.000   0.000 -10.339  -0.000   0.000  -0.000
-10.314   0.000   0.000  -0.000  -0.000 -10.265   0.000   0.000
  0.000 -10.314  -0.000  -0.000   0.000   0.000 -10.265  -0.000
  0.000  -0.000 -10.314   0.000  -0.000   0.000  -0.000 -10.265
 -0.000  -0.000   0.000 -10.314   0.000  -0.000  -0.000   0.000
 -0.000   0.000  -0.000   0.000 -10.314  -0.000   0.000  -0.000
  0.000   0.000   0.000  -0.000  -0.000   0.000   0.000   0.000
  0.000   0.000   0.000  -0.000  -0.000   0.000   0.000   0.000
 -0.000   0.000   0.000  -0.000   0.000  -0.000   0.000   0.000
 -0.000  -0.000   0.000  -0.000  -0.000  -0.000  -0.000   0.000
 -0.000  -0.000   0.000   0.000  -0.000  -0.000  -0.000   0.000
 -0.000   0.000   0.000  -0.000   0.000  -0.000   0.000   0.000
 -0.000  -0.000   0.000  -0.000  -0.000  -0.000  -0.000   0.000
 -0.000  -0.000   0.000   0.000  -0.000  -0.000  -0.000   0.000
 total augmentation occupancy for first ion, spin component:           1
  2.025   0.000   0.000  -0.000  -0.000  -0.019   0.000  -0.000   0.000   0.000   0.000  -0.000   0.000   0.000   0.000   0.000
  0.000   2.025  -0.000   0.000   0.000  -0.000  -0.019   0.000   0.000   0.000  -0.000  -0.000   0.000   0.000   0.000   0.000
  0.000  -0.000   2.025  -0.000   0.000   0.000  -0.000  -0.019  -0.000  -0.000   0.000  -0.000   0.000   0.000   0.000   0.000
 -0.000   0.000  -0.000   2.025   0.000   0.000   0.000  -0.000  -0.019   0.000   0.000   0.000   0.000   0.000   0.000   0.000
 -0.000   0.000   0.000   0.000   2.025   0.000   0.000  -0.000   0.000  -0.019   0.000  -0.000   0.000   0.000   0.000   0.000
 -0.019  -0.000   0.000   0.000   0.000   0.012  -0.000   0.000  -0.000  -0.000   0.000  -0.000   0.000   0.000   0.000   0.000
  0.000  -0.019  -0.000   0.000   0.000  -0.000   0.012   0.000  -0.000   0.000   0.000  -0.000   0.000   0.000   0.000   0.000
 -0.000   0.000  -0.019  -0.000  -0.000   0.000   0.000   0.012   0.000   0.000  -0.000   0.000   0.000   0.000   0.000   0.000
  0.000   0.000  -0.000  -0.019   0.000  -0.000  -0.000   0.000   0.012   0.000  -0.000  -0.000   0.000   0.000   0.000   0.000
  0.000   0.000  -0.000   0.000  -0.019  -0.000   0.000   0.000   0.000   0.012  -0.000   0.000   0.000   0.000   0.000   0.000
  0.000  -0.000   0.000   0.000   0.000  -0.000  -0.000   0.000  -0.000   0.000   1.089  -0.026   0.000   0.000   0.000   0.000
 -0.000  -0.000  -0.000   0.000  -0.000  -0.000  -0.000  -0.000  -0.000  -0.000  -0.026   0.001   0.000   0.000   0.000   0.000
  0.000   0.000   0.000   0.000   0.000   0.000   0.000   0.000   0.000   0.000   0.000   0.000   0.000   0.000   0.000  -0.000
  0.000   0.000   0.000   0.000   0.000   0.000   0.000   0.000   0.000   0.000   0.000   0.000   0.000   0.000  -0.000   0.000
  0.000   0.000   0.000   0.000   0.000   0.000   0.000   0.000   0.000   0.000   0.000   0.000   0.000  -0.000   0.000  -0.000
  0.000   0.000   0.000   0.000   0.000   0.000   0.000   0.000   0.000   0.000   0.000   0.000  -0.000   0.000  -0.000   0.000
  0.000   0.000   0.000   0.000   0.000   0.000   0.000   0.000   0.000   0.000   0.000   0.000  -0.000  -0.000   0.000   0.000
  0.000   0.000   0.000   0.000   0.000   0.000   0.000   0.000   0.000   0.000   0.000   0.000   0.000   0.000  -0.000  -0.000
 total augmentation occupancy for first ion, spin component:           2
 -0.318  -0.000  -0.000   0.000   0.000   0.157  -0.000  -0.000   0.000  -0.000  -0.000   0.000   0.000   0.000   0.000   0.000
 -0.000  -0.318   0.000   0.000  -0.000  -0.000   0.157   0.000   0.000   0.000  -0.000   0.000   0.000   0.000   0.000   0.000
 -0.000   0.000  -0.318   0.000  -0.000  -0.000   0.000   0.157   0.000   0.000   0.000   0.000   0.000   0.000   0.000   0.000
  0.000   0.000   0.000  -0.318  -0.000   0.000   0.000   0.000   0.157   0.000   0.000   0.000   0.000   0.000   0.000   0.000
  0.000  -0.000  -0.000  -0.000  -0.318   0.000   0.000   0.000   0.000   0.157   0.000   0.000   0.000   0.000   0.000   0.000
  0.157  -0.000  -0.000   0.000   0.000  -0.001  -0.000   0.000   0.000   0.000   0.000   0.000   0.000   0.000   0.000   0.000
 -0.000   0.157   0.000   0.000   0.000  -0.000  -0.001   0.000   0.000   0.000   0.000  -0.000   0.000   0.000   0.000   0.000
 -0.000   0.000   0.157   0.000   0.000   0.000   0.000  -0.001   0.000  -0.000   0.000  -0.000   0.000   0.000   0.000   0.000
  0.000   0.000   0.000   0.157   0.000   0.000   0.000   0.000  -0.001   0.000  -0.000   0.000   0.000   0.000   0.000   0.000
 -0.000   0.000   0.000   0.000   0.157   0.000   0.000  -0.000   0.000  -0.001  -0.000   0.000   0.000   0.000   0.000   0.000
 -0.000  -0.000   0.000   0.000   0.000   0.000   0.000   0.000  -0.000   0.000   1.089  -0.026   0.000   0.000   0.000   0.000
  0.000   0.000   0.000   0.000   0.000   0.000  -0.000   0.000   0.000  -0.000  -0.026   0.001   0.000   0.000   0.000   0.000
  0.000   0.000   0.000   0.000   0.000   0.000   0.000   0.000   0.000   0.000   0.000   0.000  -0.000   0.000   0.000   0.000
  0.000   0.000   0.000   0.000   0.000   0.000   0.000   0.000   0.000   0.000   0.000   0.000   0.000  -0.000   0.000  -0.000
  0.000   0.000   0.000   0.000   0.000   0.000   0.000   0.000   0.000   0.000   0.000   0.000   0.000   0.000  -0.000   0.000
  0.000   0.000   0.000   0.000   0.000   0.000   0.000   0.000   0.000   0.000   0.000   0.000   0.000  -0.000   0.000  -0.000
  0.000   0.000   0.000   0.000   0.000   0.000   0.000   0.000   0.000   0.000   0.000   0.000   0.000   0.000   0.000   0.000
  0.000   0.000   0.000   0.000   0.000   0.000   0.000   0.000   0.000   0.000   0.000   0.000   0.000  -0.000   0.000  -0.000


------------------------ aborting loop because EDIFF is reached ----------------------------------------


    FORLOC:  cpu time      0.0097: real time      0.0097
    FORNL :  cpu time      0.4158: real time      0.4159
    STRESS:  cpu time      1.2773: real time      1.2775
    FORCOR:  cpu time      1.2386: real time      1.2387
    OFIELD:  cpu time      0.0074: real time      0.0074
    FORVDW:  cpu time      0.0052: real time      0.1490

  FORCE on cell =-STRESS in cart. coord.  units (eV):
  Direction    XX          YY          ZZ          XY          YZ          ZX
  --------------------------------------------------------------------------------------
  Alpha Z     0.10632     0.10632     0.10632
  Ewald     -41.19695   -41.19695   -41.19695     0.00000    -0.00000    -0.00000
  Hartree   289.87455   289.87455   289.87455    -0.00000    -0.00000    -0.00000
  E(xc)     -57.78566   -57.78566   -57.78566    -0.00000    -0.00000     0.00000
  Local    -405.88130  -405.88130  -405.88130    -0.00000    -0.00000     0.00000
  n-local   -15.33890   -15.33796   -15.33801     0.00007     0.00003     0.00008
  augment    91.76150    91.76150    91.76150    -0.00000     0.00000    -0.00000
  Kinetic   138.44135   138.44132   138.44140    -0.00005    -0.00004    -0.00007
  Fock        0.00000     0.00000     0.00000     0.00000     0.00000     0.00000
  vdW        -0.00003    -0.00003    -0.00003     0.00000     0.00000     0.00000
  -------------------------------------------------------------------------------------
  Total      -0.01850    -0.01850    -0.01850    -0.00000     0.00000    -0.00000
  in kB      -0.00371    -0.00371    -0.00371    -0.00000     0.00000    -0.00000
  external pressure =       -0.00 kB  Pullay stress =        0.00 kB


 VOLUME and BASIS-vectors are now :
 -----------------------------------------------------------------------------
  energy-cutoff  :      520.00
  volume of cell :     8000.00
      direct lattice vectors                 reciprocal lattice vectors
    20.000000000  0.000000000  0.000000000     0.050000000  0.000000000  0.000000000
     0.000000000 20.000000000  0.000000000     0.000000000  0.050000000  0.000000000
     0.000000000  0.000000000 20.000000000     0.000000000  0.000000000  0.050000000

  length of vectors
    20.000000000 20.000000000 20.000000000     0.050000000  0.050000000  0.050000000


 FORCES acting on ions:
    Electron-Ion                     Ewald-Force                    Non-Local-Force
 -----------------------------------------------------------------------------------------------
   0.331E-12 0.701E-10 -.514E-10   0.106E-16 -.303E-16 -.392E-16   0.000E+00 0.000E+00 0.212E-21
 -----------------------------------------------------------------------------------------------
   0.436E-12 0.733E-10 -.579E-10   0.106E-16 -.303E-16 -.392E-16   0.000E+00 0.000E+00 0.212E-21


 POSITION                                       TOTAL-FORCE (eV/Angst)
 -----------------------------------------------------------------------------------
      9.00000      9.20000     12.00000         0.000000      0.000000      0.000000
 -----------------------------------------------------------------------------------
    total drift:                                0.000000      0.000000     -0.000000


--------------------------------------------------------------------------------------------------------



  FREE ENERGIE OF THE ION-ELECTRON SYSTEM (eV)
  ---------------------------------------------------
  free  energy   TOTEN  =        -0.19921674 eV

  energy  without entropy=       -0.19921674  energy(sigma->0) =       -0.19921674



--------------------------------------------------------------------------------------------------------


    POTLOK:  cpu time      1.7533: real time      1.7536


--------------------------------------------------------------------------------------------------------


     LOOP+:  cpu time     65.0878: real time     65.5048
    4ORBIT:  cpu time      0.0000: real time      0.0000

 total amount of memory used by VASP MPI-rank0   229579. kBytes
=======================================================================

   base      :      30000. kBytes
   nonlr-proj:        313. kBytes
   fftplans  :      55167. kBytes
   grid      :     133718. kBytes
   one-center:         31. kBytes
   wavefun   :      10350. kBytes

  
  
 General timing and accounting informations for this job:
 ========================================================
  
                  Total CPU time used (sec):       72.480
                            User time (sec):       70.441
                          System time (sec):        2.039
                         Elapsed time (sec):       74.260
  
                   Maximum memory used (kb):      350072.
                   Average memory used (kb):          N/A
  
                          Minor page faults:       131812
                          Major page faults:           51
                 Voluntary context switches:         2256
