 vasp.6.4.0 14Feb23 (build Dec 05 2023 14:15:48) complex                        
  
 executed on             LinuxIFC date 2023.12.12  10:10:16
 running  512 mpi-ranks, with    1 threads/rank, on   32 nodes
 distrk:  each k-point on  512 cores,    1 groups
 distr:  one band on NCORE=  16 cores,   32 groups


--------------------------------------------------------------------------------------------------------


 INCAR:
   SYSTEM = MgO-rocksalt
   ISMEAR = 0
   SIGMA = 0.05
   EDIFF = 1E-6
   ALGO = ALL
   ISTART = 2
   IBRION = -1
   NSW = 0
   ISYM = 0
   DIPOL = 0.5 0.5 0.5
   IDIPOL = 3
   LDIPOL = .TRUE.
   METAGGA = M06L
   ENCUT = 520
   PREC = Accurate
   LASPH = .TRUE.
   LREAL = Auto
   ISPIN = 1
   NELM = 20000
   NELMIN = 8
   NCORE = 16
   LWAVE = .FALSE.
   LCHARG = .FALSE.

 POTCAR:    PAW_PBE Au 04Oct2007                  
 POTCAR:    PAW_PBE Mg_pv 13Apr2007               
 POTCAR:    PAW_PBE O 08Apr2002                   
 POTCAR:    PAW_PBE Au 04Oct2007                  
   SHA256 =  d0044ae04e2bdce24051b198fc5c053d722a5bc6fe3c3b100514a13fc5d2db88 Au/POTCAR             
   COPYR  = (c) Copyright 04Oct2007 Georg Kresse                                                    
   COPYR  = This file is part of the software VASP. Any use, copying, and all other rights are regul
   COPYR  = If you do not have a valid VASP license, you may not use, copy or distribute this file. 
   VRHFIN =Au: s1d10                                                                                
   LEXCH  = PE                                                                                      
   EATOM  =   926.0867 eV,   68.0654 Ry                                                             
                                                                                                    
   TITEL  = PAW_PBE Au 04Oct2007                                                                    
   LULTRA =        F    use ultrasoft PP ?                                                          
   IUNSCR =        1    unscreen: 0-lin 1-nonlin 2-no                                               
   RPACOR =    2.330    partial core radius                                                         
   POMASS =  196.966; ZVAL   =   11.000    mass and valenz                                          
   RCORE  =    2.500    outmost cutoff radius                                                       
   RWIGS  =    2.840; RWIGS  =    1.503    wigner-seitz radius (au A)                               
   ENMAX  =  229.943; ENMIN  =  172.457 eV                                                          
   ICORE  =        3    local potential                                                             
   LCOR   =        T    correct aug charges                                                         
   LPAW   =        T    paw PP                                                                      
   EAUG   =  356.670                                                                                
   DEXC   =    0.000                                                                                
   RMAX   =    2.562    core radius for proj-oper                                                   
   RAUG   =    1.300    factor for augmentation sphere                                              
   RDEP   =    2.598    radius for radial grids                                                     
   RDEPT  =    2.193    core radius for aug-charge                                                  
                                                                                                    
   Atomic configuration                                                                             
   16 entries                                                                                       
     n  l   j            E        occ.                                                              
     1  0  0.50    -80748.5001   2.0000                                                             
     2  0  0.50    -14244.7466   2.0000                                                             
     2  1  1.50    -12310.9591   6.0000                                                             
     3  0  0.50     -3362.1768   2.0000                                                             
     3  1  1.50     -2801.5463   6.0000                                                             
     3  2  2.50     -2203.8206  10.0000                                                             
     4  0  0.50      -729.8168   2.0000                                                             
     4  1  1.50      -546.0527   6.0000                                                             
     4  2  2.50      -325.7302  10.0000                                                             
     4  3  3.50       -81.1472  14.0000                                                             
     5  0  0.50      -108.3201   2.0000                                                             
     5  1  1.50       -59.7479   6.0000                                                             
     5  2  2.50        -6.8783  10.0000                                                             
     6  0  0.50        -5.7602   1.0000                                                             
     6  1  1.50        -6.8029   0.0000                                                             
     5  3  2.50        -1.3606   0.0000                                                             
   Description                                                                                      
     l       E           TYP  RCUT    TYP  RCUT                                                     
     2     -6.8782861     23  2.500                                                                 
     2     -8.2388687     23  2.500                                                                 
     0     -5.7601759     23  2.500                                                                 
     0     -0.8493231     23  2.500                                                                 
     1     -2.7211652     23  2.500                                                                 
     1     27.2116520     23  2.500                                                                 
     3     -1.3605826     23  2.500                                                                 
  local pseudopotential read in
  partial core-charges read in
  partial kinetic energy density read in
  atomic valenz-charges read in
  non local Contribution for L=           2  read in
    real space projection operators read in
  non local Contribution for L=           2  read in
    real space projection operators read in
  non local Contribution for L=           0  read in
    real space projection operators read in
  non local Contribution for L=           0  read in
    real space projection operators read in
  non local Contribution for L=           1  read in
    real space projection operators read in
  non local Contribution for L=           1  read in
    real space projection operators read in
    PAW grid and wavefunctions read in
 
   number of l-projection  operators is LMAX  =           6
   number of lm-projection operators is LMMAX =          18
 
 POTCAR:    PAW_PBE Mg_pv 13Apr2007               
   SHA256 =  f474ac0dd33840b9ae76c01d57fea79fdf77cdfbb07d5ade72c65f83c709b62b Mg_pv/POTCAR          
   COPYR  = (c) Copyright 13Apr2007 Georg Kresse                                                    
   COPYR  = This file is part of the software VASP. Any use, copying, and all other rights are regul
   COPYR  = If you do not have a valid VASP license, you may not use, copy or distribute this file. 
   VRHFIN =Mg: p6s2                                                                                 
   LEXCH  = PE                                                                                      
   EATOM  =  1056.7344 eV,   77.6678 Ry                                                             
                                                                                                    
   TITEL  = PAW_PBE Mg_pv 13Apr2007                                                                 
   LULTRA =        F    use ultrasoft PP ?                                                          
   IUNSCR =        1    unscreen: 0-lin 1-nonlin 2-no                                               
   RPACOR =    1.500    partial core radius                                                         
   POMASS =   24.305; ZVAL   =    8.000    mass and valenz                                          
   RCORE  =    2.000    outmost cutoff radius                                                       
   RWIGS  =    2.000; RWIGS  =    1.058    wigner-seitz radius (au A)                               
   ENMAX  =  403.929; ENMIN  =  302.947 eV                                                          
   RCLOC  =    1.506    cutoff for local pot                                                        
   LCOR   =        T    correct aug charges                                                         
   LPAW   =        T    paw PP                                                                      
   EAUG   =  758.780                                                                                
   DEXC   =    0.000                                                                                
   RMAX   =    2.045    core radius for proj-oper                                                   
   RAUG   =    1.300    factor for augmentation sphere                                              
   RDEP   =    2.025    radius for radial grids                                                     
   RDEPT  =    1.557    core radius for aug-charge                                                  
                                                                                                    
   Atomic configuration                                                                             
    5 entries                                                                                       
     n  l   j            E        occ.                                                              
     1  0  0.50     -1259.6230   2.0000                                                             
     2  0  0.50       -79.8442   2.0000                                                             
     2  1  1.50       -46.6121   6.0000                                                             
     3  0  0.50        -4.7055   2.0000                                                             
     3  2  1.50        -1.3606   0.0000                                                             
   Description                                                                                      
     l       E           TYP  RCUT    TYP  RCUT                                                     
     1    -46.6121073     23  1.600                                                                 
     1      2.7211652     23  1.600                                                                 
     0     -4.7054661     23  2.000                                                                 
     0     61.2262170     23  2.000                                                                 
     2     -1.3605826     23  2.000                                                                 
  local pseudopotential read in
  partial core-charges read in
  partial kinetic energy density read in
  atomic valenz-charges read in
  non local Contribution for L=           1  read in
    real space projection operators read in
  non local Contribution for L=           1  read in
    real space projection operators read in
  non local Contribution for L=           0  read in
    real space projection operators read in
  non local Contribution for L=           0  read in
    real space projection operators read in
  non local Contribution for L=           2  read in
    real space projection operators read in
    PAW grid and wavefunctions read in
 
   number of l-projection  operators is LMAX  =           5
   number of lm-projection operators is LMMAX =          13
 
 POTCAR:    PAW_PBE O 08Apr2002                   
   SHA256 =  818f92134a0a090dccd8ba1447fa70422a3b330e708bb4f08108d8ae51209ddf O/POTCAR              
   COPYR  = (c) Copyright 08Apr2002 Georg Kresse                                                    
   COPYR  = This file is part of the software VASP. Any use, copying, and all other rights are regul
   COPYR  = If you do not have a valid VASP license, you may not use, copy or distribute this file. 
   VRHFIN =O: s2p4                                                                                  
   LEXCH  = PE                                                                                      
   EATOM  =   432.3788 eV,   31.7789 Ry                                                             
                                                                                                    
   TITEL  = PAW_PBE O 08Apr2002                                                                     
   LULTRA =        F    use ultrasoft PP ?                                                          
   IUNSCR =        1    unscreen: 0-lin 1-nonlin 2-no                                               
   RPACOR =    1.200    partial core radius                                                         
   POMASS =   16.000; ZVAL   =    6.000    mass and valenz                                          
   RCORE  =    1.520    outmost cutoff radius                                                       
   RWIGS  =    1.550; RWIGS  =    0.820    wigner-seitz radius (au A)                               
   ENMAX  =  400.000; ENMIN  =  300.000 eV                                                          
   ICORE  =        2    local potential                                                             
   LCOR   =        T    correct aug charges                                                         
   LPAW   =        T    paw PP                                                                      
   EAUG   =  605.392                                                                                
   DEXC   =    0.000                                                                                
   RMAX   =    1.553    core radius for proj-oper                                                   
   RAUG   =    1.300    factor for augmentation sphere                                              
   RDEP   =    1.550    radius for radial grids                                                     
   RDEPT  =    1.329    core radius for aug-charge                                                  
                                                                                                    
   Atomic configuration                                                                             
    4 entries                                                                                       
     n  l   j            E        occ.                                                              
     1  0  0.50      -514.6923   2.0000                                                             
     2  0  0.50       -23.9615   2.0000                                                             
     2  1  0.50        -9.0305   4.0000                                                             
     3  2  1.50        -9.5241   0.0000                                                             
   Description                                                                                      
     l       E           TYP  RCUT    TYP  RCUT                                                     
     0    -23.9615318     23  1.200                                                                 
     0     -9.5240782     23  1.200                                                                 
     1     -9.0304911     23  1.520                                                                 
     1      8.1634956     23  1.520                                                                 
     2     -9.5240782      7  1.500                                                                 
  local pseudopotential read in
  partial core-charges read in
  partial kinetic energy density read in
  kinetic energy density of atom read in
  atomic valenz-charges read in
  non local Contribution for L=           0  read in
    real space projection operators read in
  non local Contribution for L=           0  read in
    real space projection operators read in
  non local Contribution for L=           1  read in
    real space projection operators read in
  non local Contribution for L=           1  read in
    real space projection operators read in
    PAW grid and wavefunctions read in
 
   number of l-projection  operators is LMAX  =           4
   number of lm-projection operators is LMMAX =           8
 
 Optimization of the real space projectors (new method)

 maximal supplied QI-value         = 15.12
 optimisation between [QCUT,QGAM] = [ 11.64, 23.28] = [ 37.95,151.78] Ry 
 Optimized for a Real-space Cutoff    1.49 Angstroem

   l    n(q)    QCUT    max X(q) W(low)/X(q) W(high)/X(q)  e(spline) 
   2      9    11.641    60.898    0.24E-03    0.10E-03    0.19E-06
   2      9    11.641    58.894    0.25E-03    0.10E-03    0.19E-06
   0     10    11.641   109.617    0.73E-04    0.33E-04    0.11E-06
   0     10    11.641    75.026    0.71E-04    0.32E-04    0.11E-06
   1     10    11.641    16.344    0.27E-04    0.97E-04    0.16E-06
   1     10    11.641    10.160    0.23E-04    0.77E-04    0.13E-06
 Optimization of the real space projectors (new method)

 maximal supplied QI-value         = 18.90
 optimisation between [QCUT,QGAM] = [ 11.53, 23.24] = [ 37.21,151.29] Ry 
 Optimized for a Real-space Cutoff    1.28 Angstroem

   l    n(q)    QCUT    max X(q) W(low)/X(q) W(high)/X(q)  e(spline) 
   1      8    11.527     2.974    0.44E-04    0.56E-04    0.12E-06
   1      8    11.527     4.279    0.12E-03    0.12E-03    0.26E-06
   0      9    11.527    16.381    0.46E-04    0.64E-04    0.78E-07
   0      9    11.527     5.611    0.26E-04    0.43E-04    0.55E-07
   2      8    11.527     4.652    0.22E-03    0.72E-04    0.47E-07
 Optimization of the real space projectors (new method)

 maximal supplied QI-value         = 24.76
 optimisation between [QCUT,QGAM] = [ 11.64, 23.27] = [ 37.91,151.63] Ry 
 Optimized for a Real-space Cutoff    1.14 Angstroem

   l    n(q)    QCUT    max X(q) W(low)/X(q) W(high)/X(q)  e(spline) 
   0      8    11.635    20.381    0.10E-03    0.33E-03    0.24E-06
   0      8    11.635    15.268    0.11E-03    0.35E-03    0.26E-06
   1      7    11.635     5.964    0.24E-03    0.31E-03    0.30E-06
   1      7    11.635     5.382    0.22E-03    0.25E-03    0.26E-06
  PAW_PBE Au 04Oct2007                  :
 energy of atom  1       EATOM= -926.0867
 kinetic energy error for atom=    0.0034 (will be added to EATOM!!)
  PAW_PBE Mg_pv 13Apr2007               :
 energy of atom  2       EATOM=-1056.7344
 kinetic energy error for atom=    0.0340 (will be added to EATOM!!)
  PAW_PBE O 08Apr2002                   :
 energy of atom  3       EATOM= -432.3788
 kinetic energy error for atom=    0.0208 (will be added to EATOM!!)
 
 
 POSCAR: Au Mg  O
  positions in direct lattice
  No initial velocities read in

 METAGGA = M06L                                        LMAXTAU =  6    LMIXTAU =  F

 exchange correlation table for  LEXCH =        8
   RHO(1)=    0.500       N(1)  =     2000
   RHO(2)=  100.500       N(2)  =     4000
 


--------------------------------------------------------------------------------------------------------


 ion  position               nearest neighbor table
   1  0.543  0.557  0.621-   2 2.56  58 2.91
   2  0.457  0.643  0.621-   1 2.56  58 2.91
   3  0.000  0.000  0.407- 105 2.11 106 2.11 121 2.11 186 2.11 103 2.11
   4  0.100  0.100  0.407- 105 2.11 106 2.11 110 2.11 125 2.11 104 2.11
   5  0.000  0.100  0.503- 103 2.11 104 2.11 107 2.11 184 2.11 105 2.11
   6  0.100  0.000  0.503- 103 2.11 104 2.11 120 2.11 123 2.11 106 2.11
   7  0.000  0.200  0.407- 109 2.11 105 2.11 110 2.11 190 2.11 107 2.11
   8  0.100  0.300  0.407- 110 2.11 109 2.11 114 2.11 129 2.11 108 2.11
   9  0.000  0.300  0.503- 107 2.11 108 2.11 111 2.11 188 2.11 109 2.11
  10  0.100  0.200  0.503- 108 2.11 107 2.11 104 2.11 127 2.11 110 2.11
  11  0.000  0.400  0.407- 109 2.11 113 2.11 114 2.11 194 2.11 111 2.11
  12  0.100  0.500  0.407- 113 2.11 114 2.11 118 2.11 133 2.11 112 2.11
  13  0.000  0.500  0.503- 111 2.11 112 2.11 115 2.11 192 2.11 113 2.11
  14  0.100  0.400  0.503- 108 2.11 111 2.11 112 2.11 131 2.11 114 2.11
  15  0.000  0.600  0.407- 113 2.11 117 2.11 118 2.11 198 2.11 115 2.11
  16  0.100  0.700  0.407- 122 2.11 118 2.11 117 2.11 137 2.11 116 2.11
  17  0.000  0.700  0.503- 119 2.11 116 2.11 115 2.11 196 2.11 117 2.11
  18  0.100  0.600  0.503- 112 2.11 115 2.11 116 2.11 135 2.11 118 2.11
  19  0.000  0.800  0.407- 117 2.11 121 2.11 122 2.11 202 2.11 119 2.11
  20  0.100  0.900  0.407- 106 2.11 121 2.11 122 2.11 141 2.11 120 2.11
  21  0.000  0.900  0.503- 103 2.11 119 2.11 120 2.11 200 2.11 121 2.11
  22  0.100  0.800  0.503- 116 2.11 119 2.11 120 2.11 139 2.11 122 2.11
  23  0.200  0.000  0.407- 126 2.11 125 2.11 106 2.11 141 2.11 123 2.11
  24  0.300  0.100  0.407- 125 2.11 126 2.11 130 2.11 145 2.11 124 2.11
  25  0.200  0.100  0.503- 124 2.11 123 2.11 104 2.11 127 2.11 125 2.11
  26  0.300  0.000  0.503- 123 2.11 124 2.11 140 2.11 143 2.11 126 2.11
  27  0.200  0.200  0.407- 129 2.11 130 2.11 110 2.11 125 2.11 127 2.11
  28  0.300  0.300  0.407- 129 2.11 130 2.11 134 2.11 149 2.11 128 2.11
  29  0.200  0.300  0.503- 127 2.11 128 2.11 108 2.11 131 2.11 129 2.11
  30  0.300  0.200  0.503- 127 2.11 128 2.11 124 2.11 147 2.11 130 2.11
  31  0.200  0.400  0.407- 134 2.11 129 2.11 133 2.11 114 2.11 131 2.11
  32  0.300  0.500  0.407- 133 2.11 134 2.11 138 2.11 153 2.11 132 2.11
  33  0.200  0.500  0.503- 132 2.11 131 2.11 112 2.11 135 2.11 133 2.11
  34  0.300  0.400  0.503- 131 2.11 128 2.11 132 2.11 151 2.11 134 2.11
  35  0.200  0.600  0.407- 138 2.11 133 2.11 137 2.11 118 2.11 135 2.11
  36  0.300  0.700  0.407- 137 2.11 142 2.11 138 2.11 157 2.11 136 2.11
  37  0.200  0.700  0.503- 136 2.11 139 2.11 116 2.11 135 2.11 137 2.11
  38  0.300  0.600  0.503- 135 2.11 132 2.11 136 2.11 155 2.11 138 2.11
  39  0.200  0.800  0.407- 137 2.11 142 2.11 141 2.11 122 2.11 139 2.11
  40  0.300  0.900  0.407- 141 2.11 126 2.11 142 2.11 161 2.11 140 2.11
  41  0.200  0.900  0.503- 140 2.11 123 2.11 139 2.11 120 2.11 141 2.11
  42  0.300  0.800  0.503- 136 2.11 139 2.11 140 2.11 159 2.11 142 2.11
  43  0.400  0.000  0.407- 126 2.11 145 2.11 146 2.11 161 2.11 143 2.11
  44  0.500  0.100  0.407- 145 2.11 146 2.11 150 2.11 165 2.11 144 2.11
  45  0.400  0.100  0.503- 124 2.11 143 2.11 144 2.11 147 2.11 145 2.11
  46  0.500  0.000  0.503- 143 2.11 144 2.11 160 2.11 163 2.11 146 2.11
  47  0.400  0.200  0.407- 149 2.11 145 2.11 130 2.11 150 2.11 147 2.11
  48  0.500  0.300  0.407- 150 2.11 149 2.11 154 2.11 169 2.11 148 2.11
  49  0.400  0.300  0.503- 147 2.11 128 2.11 148 2.11 151 2.11 149 2.11
  50  0.500  0.200  0.503- 148 2.11 147 2.11 144 2.11 167 2.11 150 2.11
  51  0.400  0.400  0.407- 134 2.11 149 2.11 153 2.11 154 2.11 151 2.11
  52  0.500  0.500  0.407- 153 2.11 154 2.11 158 2.11 173 2.11 152 2.11
  53  0.400  0.500  0.503- 132 2.11 151 2.11 152 2.11 155 2.11 153 2.11
  54  0.500  0.400  0.503- 148 2.11 151 2.11 152 2.11 171 2.11 154 2.11
  55  0.400  0.600  0.407- 138 2.11 153 2.11 157 2.11 158 2.11 155 2.11
  56  0.500  0.700  0.407- 162 2.11 158 2.11 157 2.11 177 2.11 156 2.11
  57  0.400  0.700  0.503- 159 2.11 155 2.11 156 2.11 136 2.11 157 2.11
  58  0.500  0.600  0.503- 152 2.11 155 2.11 156 2.11 175 2.11 158 2.11   2 2.91   1 2.91
  59  0.400  0.800  0.407- 157 2.11 142 2.11 161 2.11 162 2.11 159 2.11
  60  0.500  0.900  0.407- 146 2.11 161 2.11 162 2.11 181 2.11 160 2.11
  61  0.400  0.900  0.503- 140 2.11 143 2.11 159 2.11 160 2.11 161 2.11
  62  0.500  0.800  0.503- 156 2.11 159 2.11 160 2.11 179 2.11 162 2.11
  63  0.600  0.000  0.407- 146 2.11 165 2.11 166 2.11 181 2.11 163 2.11
  64  0.700  0.100  0.407- 185 2.11 166 2.11 170 2.11 165 2.11 164 2.11
  65  0.600  0.100  0.503- 144 2.11 163 2.11 164 2.11 167 2.11 165 2.11
  66  0.700  0.000  0.503- 183 2.11 164 2.11 180 2.11 163 2.11 166 2.11
  67  0.600  0.200  0.407- 169 2.11 165 2.11 150 2.11 170 2.11 167 2.11
  68  0.700  0.300  0.407- 170 2.11 189 2.11 174 2.11 169 2.11 168 2.11
  69  0.600  0.300  0.503- 167 2.11 148 2.11 168 2.11 171 2.11 169 2.11
  70  0.700  0.200  0.503- 168 2.11 187 2.11 164 2.11 167 2.11 170 2.11
  71  0.600  0.400  0.407- 154 2.11 169 2.11 173 2.11 174 2.11 171 2.11
  72  0.700  0.500  0.407- 193 2.11 174 2.11 178 2.11 173 2.11 172 2.11
  73  0.600  0.500  0.503- 152 2.11 171 2.11 172 2.11 175 2.11 173 2.11
  74  0.700  0.400  0.503- 191 2.11 171 2.11 172 2.11 168 2.11 174 2.11
  75  0.600  0.600  0.407- 158 2.11 173 2.11 177 2.11 178 2.11 175 2.11
  76  0.700  0.700  0.407- 182 2.11 197 2.11 177 2.11 178 2.11 176 2.11
  77  0.600  0.700  0.503- 179 2.11 175 2.11 176 2.11 156 2.11 177 2.11
  78  0.700  0.600  0.503- 195 2.11 175 2.11 176 2.11 172 2.11 178 2.11
  79  0.600  0.800  0.407- 177 2.11 162 2.11 181 2.11 182 2.11 179 2.11
  80  0.700  0.900  0.407- 201 2.11 181 2.11 182 2.11 166 2.11 180 2.11
  81  0.600  0.900  0.503- 160 2.11 163 2.11 179 2.11 180 2.11 181 2.11
  82  0.700  0.800  0.503- 176 2.11 199 2.11 180 2.11 179 2.11 182 2.11
  83  0.800  0.000  0.407- 166 2.11 185 2.11 186 2.11 201 2.11 183 2.11
  84  0.900  0.100  0.407- 105 2.11 185 2.11 186 2.11 190 2.11 184 2.11
  85  0.800  0.100  0.503- 164 2.11 183 2.11 184 2.11 187 2.11 185 2.11
  86  0.900  0.000  0.503- 103 2.11 183 2.11 184 2.11 200 2.11 186 2.11
  87  0.800  0.200  0.407- 170 2.11 189 2.11 185 2.11 190 2.11 187 2.11
  88  0.900  0.300  0.407- 190 2.11 189 2.11 109 2.11 194 2.11 188 2.11
  89  0.800  0.300  0.503- 168 2.11 187 2.11 188 2.11 191 2.11 189 2.11
  90  0.900  0.200  0.503- 188 2.11 184 2.11 187 2.11 107 2.11 190 2.11
  91  0.800  0.400  0.407- 174 2.11 189 2.11 193 2.11 194 2.11 191 2.11
  92  0.900  0.500  0.407- 113 2.11 193 2.11 194 2.11 198 2.11 192 2.11
  93  0.800  0.500  0.503- 172 2.11 191 2.11 192 2.11 195 2.11 193 2.11
  94  0.900  0.400  0.503- 111 2.11 188 2.11 191 2.11 192 2.11 194 2.11
  95  0.800  0.600  0.407- 178 2.11 193 2.11 197 2.11 198 2.11 195 2.11
  96  0.900  0.700  0.407- 202 2.11 197 2.11 198 2.11 117 2.11 196 2.11
  97  0.800  0.700  0.503- 176 2.11 199 2.11 196 2.11 195 2.11 197 2.11
  98  0.900  0.600  0.503- 115 2.11 192 2.11 195 2.11 196 2.11 198 2.11
  99  0.800  0.800  0.407- 182 2.11 197 2.11 201 2.11 202 2.11 199 2.11
 100  0.900  0.900  0.407- 121 2.11 186 2.11 201 2.11 202 2.11 200 2.11
 101  0.800  0.900  0.503- 180 2.11 183 2.11 199 2.11 200 2.11 201 2.11
 102  0.900  0.800  0.503- 196 2.11 119 2.11 199 2.11 200 2.11 202 2.11
 103  0.000  0.000  0.503-   5 2.11   6 2.11  21 2.11  86 2.11   3 2.11
 104  0.100  0.100  0.503-   5 2.11   6 2.11  10 2.11  25 2.11   4 2.11
 105  0.000  0.100  0.407-   3 2.11   4 2.11   7 2.11  84 2.11   5 2.11
 106  0.100  0.000  0.407-   3 2.11   4 2.11  20 2.11  23 2.11   6 2.11
 107  0.000  0.200  0.503-   9 2.11   5 2.11  10 2.11  90 2.11   7 2.11
 108  0.100  0.300  0.503-  10 2.11   9 2.11  14 2.11  29 2.11   8 2.11
 109  0.000  0.300  0.407-   7 2.11   8 2.11  11 2.11  88 2.11   9 2.11
 110  0.100  0.200  0.407-   8 2.11   7 2.11   4 2.11  27 2.11  10 2.11
 111  0.000  0.400  0.503-   9 2.11  13 2.11  14 2.11  94 2.11  11 2.11
 112  0.100  0.500  0.503-  13 2.11  14 2.11  18 2.11  33 2.11  12 2.11
 113  0.000  0.500  0.407-  11 2.11  12 2.11  15 2.11  92 2.11  13 2.11
 114  0.100  0.400  0.407-   8 2.11  11 2.11  12 2.11  31 2.11  14 2.11
 115  0.000  0.600  0.503-  13 2.11  17 2.11  18 2.11  98 2.11  15 2.11
 116  0.100  0.700  0.503-  22 2.11  18 2.11  17 2.11  37 2.11  16 2.11
 117  0.000  0.700  0.407-  19 2.11  16 2.11  15 2.11  96 2.11  17 2.11
 118  0.100  0.600  0.407-  12 2.11  15 2.11  16 2.11  35 2.11  18 2.11
 119  0.000  0.800  0.503-  17 2.11  21 2.11  22 2.11 102 2.11  19 2.11
 120  0.100  0.900  0.503-   6 2.11  21 2.11  22 2.11  41 2.11  20 2.11
 121  0.000  0.900  0.407-   3 2.11  19 2.11  20 2.11 100 2.11  21 2.11
 122  0.100  0.800  0.407-  16 2.11  19 2.11  20 2.11  39 2.11  22 2.11
 123  0.200  0.000  0.503-  26 2.11  25 2.11   6 2.11  41 2.11  23 2.11
 124  0.300  0.100  0.503-  25 2.11  26 2.11  30 2.11  45 2.11  24 2.11
 125  0.200  0.100  0.407-  24 2.11  23 2.11   4 2.11  27 2.11  25 2.11
 126  0.300  0.000  0.407-  23 2.11  24 2.11  40 2.11  43 2.11  26 2.11
 127  0.200  0.200  0.503-  29 2.11  30 2.11  10 2.11  25 2.11  27 2.11
 128  0.300  0.300  0.503-  29 2.11  30 2.11  34 2.11  49 2.11  28 2.11
 129  0.200  0.300  0.407-  27 2.11  28 2.11   8 2.11  31 2.11  29 2.11
 130  0.300  0.200  0.407-  27 2.11  28 2.11  24 2.11  47 2.11  30 2.11
 131  0.200  0.400  0.503-  34 2.11  29 2.11  33 2.11  14 2.11  31 2.11
 132  0.300  0.500  0.503-  33 2.11  34 2.11  38 2.11  53 2.11  32 2.11
 133  0.200  0.500  0.407-  32 2.11  31 2.11  12 2.11  35 2.11  33 2.11
 134  0.300  0.400  0.407-  31 2.11  28 2.11  32 2.11  51 2.11  34 2.11
 135  0.200  0.600  0.503-  38 2.11  33 2.11  37 2.11  18 2.11  35 2.11
 136  0.300  0.700  0.503-  37 2.11  42 2.11  38 2.11  57 2.11  36 2.11
 137  0.200  0.700  0.407-  36 2.11  39 2.11  16 2.11  35 2.11  37 2.11
 138  0.300  0.600  0.407-  35 2.11  32 2.11  36 2.11  55 2.11  38 2.11
 139  0.200  0.800  0.503-  37 2.11  42 2.11  41 2.11  22 2.11  39 2.11
 140  0.300  0.900  0.503-  41 2.11  26 2.11  42 2.11  61 2.11  40 2.11
 141  0.200  0.900  0.407-  40 2.11  23 2.11  39 2.11  20 2.11  41 2.11
 142  0.300  0.800  0.407-  36 2.11  39 2.11  40 2.11  59 2.11  42 2.11
 143  0.400  0.000  0.503-  26 2.11  45 2.11  46 2.11  61 2.11  43 2.11
 144  0.500  0.100  0.503-  45 2.11  46 2.11  50 2.11  65 2.11  44 2.11
 145  0.400  0.100  0.407-  24 2.11  43 2.11  44 2.11  47 2.11  45 2.11
 146  0.500  0.000  0.407-  43 2.11  44 2.11  60 2.11  63 2.11  46 2.11
 147  0.400  0.200  0.503-  49 2.11  45 2.11  30 2.11  50 2.11  47 2.11
 148  0.500  0.300  0.503-  50 2.11  49 2.11  54 2.11  69 2.11  48 2.11
 149  0.400  0.300  0.407-  47 2.11  28 2.11  48 2.11  51 2.11  49 2.11
 150  0.500  0.200  0.407-  48 2.11  47 2.11  44 2.11  67 2.11  50 2.11
 151  0.400  0.400  0.503-  34 2.11  49 2.11  53 2.11  54 2.11  51 2.11
 152  0.500  0.500  0.503-  53 2.11  54 2.11  58 2.11  73 2.11  52 2.11
 153  0.400  0.500  0.407-  32 2.11  51 2.11  52 2.11  55 2.11  53 2.11
 154  0.500  0.400  0.407-  48 2.11  51 2.11  52 2.11  71 2.11  54 2.11
 155  0.400  0.600  0.503-  38 2.11  53 2.11  57 2.11  58 2.11  55 2.11
 156  0.500  0.700  0.503-  62 2.11  58 2.11  57 2.11  77 2.11  56 2.11
 157  0.400  0.700  0.407-  59 2.11  55 2.11  56 2.11  36 2.11  57 2.11
 158  0.500  0.600  0.407-  52 2.11  55 2.11  56 2.11  75 2.11  58 2.11
 159  0.400  0.800  0.503-  57 2.11  42 2.11  61 2.11  62 2.11  59 2.11
 160  0.500  0.900  0.503-  46 2.11  61 2.11  62 2.11  81 2.11  60 2.11
 161  0.400  0.900  0.407-  40 2.11  43 2.11  59 2.11  60 2.11  61 2.11
 162  0.500  0.800  0.407-  56 2.11  59 2.11  60 2.11  79 2.11  62 2.11
 163  0.600  0.000  0.503-  46 2.11  65 2.11  66 2.11  81 2.11  63 2.11
 164  0.700  0.100  0.503-  85 2.11  66 2.11  70 2.11  65 2.11  64 2.11
 165  0.600  0.100  0.407-  44 2.11  63 2.11  64 2.11  67 2.11  65 2.11
 166  0.700  0.000  0.407-  83 2.11  64 2.11  80 2.11  63 2.11  66 2.11
 167  0.600  0.200  0.503-  69 2.11  65 2.11  50 2.11  70 2.11  67 2.11
 168  0.700  0.300  0.503-  70 2.11  89 2.11  74 2.11  69 2.11  68 2.11
 169  0.600  0.300  0.407-  67 2.11  48 2.11  68 2.11  71 2.11  69 2.11
 170  0.700  0.200  0.407-  68 2.11  87 2.11  64 2.11  67 2.11  70 2.11
 171  0.600  0.400  0.503-  54 2.11  69 2.11  73 2.11  74 2.11  71 2.11
 172  0.700  0.500  0.503-  93 2.11  74 2.11  78 2.11  73 2.11  72 2.11
 173  0.600  0.500  0.407-  52 2.11  71 2.11  72 2.11  75 2.11  73 2.11
 174  0.700  0.400  0.407-  91 2.11  71 2.11  72 2.11  68 2.11  74 2.11
 175  0.600  0.600  0.503-  58 2.11  73 2.11  77 2.11  78 2.11  75 2.11
 176  0.700  0.700  0.503-  82 2.11  97 2.11  77 2.11  78 2.11  76 2.11
 177  0.600  0.700  0.407-  79 2.11  75 2.11  76 2.11  56 2.11  77 2.11
 178  0.700  0.600  0.407-  95 2.11  75 2.11  76 2.11  72 2.11  78 2.11
 179  0.600  0.800  0.503-  77 2.11  62 2.11  81 2.11  82 2.11  79 2.11
 180  0.700  0.900  0.503- 101 2.11  81 2.11  82 2.11  66 2.11  80 2.11
 181  0.600  0.900  0.407-  60 2.11  63 2.11  79 2.11  80 2.11  81 2.11
 182  0.700  0.800  0.407-  76 2.11  99 2.11  80 2.11  79 2.11  82 2.11
 183  0.800  0.000  0.503-  66 2.11  85 2.11  86 2.11 101 2.11  83 2.11
 184  0.900  0.100  0.503-   5 2.11  85 2.11  86 2.11  90 2.11  84 2.11
 185  0.800  0.100  0.407-  64 2.11  83 2.11  84 2.11  87 2.11  85 2.11
 186  0.900  0.000  0.407-   3 2.11  83 2.11  84 2.11 100 2.11  86 2.11
 187  0.800  0.200  0.503-  70 2.11  89 2.11  85 2.11  90 2.11  87 2.11
 188  0.900  0.300  0.503-  90 2.11  89 2.11   9 2.11  94 2.11  88 2.11
 189  0.800  0.300  0.407-  68 2.11  87 2.11  88 2.11  91 2.11  89 2.11
 190  0.900  0.200  0.407-  88 2.11  84 2.11  87 2.11   7 2.11  90 2.11
 191  0.800  0.400  0.503-  74 2.11  89 2.11  93 2.11  94 2.11  91 2.11
 192  0.900  0.500  0.503-  13 2.11  93 2.11  94 2.11  98 2.11  92 2.11
 193  0.800  0.500  0.407-  72 2.11  91 2.11  92 2.11  95 2.11  93 2.11
 194  0.900  0.400  0.407-  11 2.11  88 2.11  91 2.11  92 2.11  94 2.11
 195  0.800  0.600  0.503-  78 2.11  93 2.11  97 2.11  98 2.11  95 2.11
 196  0.900  0.700  0.503- 102 2.11  97 2.11  98 2.11  17 2.11  96 2.11
 197  0.800  0.700  0.407-  76 2.11  99 2.11  96 2.11  95 2.11  97 2.11
 198  0.900  0.600  0.407-  15 2.11  92 2.11  95 2.11  96 2.11  98 2.11
 199  0.800  0.800  0.503-  82 2.11  97 2.11 101 2.11 102 2.11  99 2.11
 200  0.900  0.900  0.503-  21 2.11  86 2.11 101 2.11 102 2.11 100 2.11
 201  0.800  0.900  0.407-  80 2.11  83 2.11  99 2.11 100 2.11 101 2.11
 202  0.900  0.800  0.407-  96 2.11  19 2.11  99 2.11 100 2.11 102 2.11
 

IMPORTANT INFORMATION: All symmetrisations will be switched off!
NOSYMM: (Re-)initialisation of all symmetry stuff for point group C_1.


----------------------------------------------------------------------------------------

                                     Primitive cell                                     

  volume of cell :    9881.6133

  direct lattice vectors                    reciprocal lattice vectors
    21.138852197  0.000000000  0.000000000     0.047306258  0.000000000  0.000000000
     0.000000000 21.138852197  0.000000000     0.000000000  0.047306258  0.000000000
     0.000000000  0.000000000 22.113885220     0.000000000  0.000000000  0.045220457

  length of vectors
    21.138852197 21.138852197 22.113885220     0.047306258  0.047306258  0.045220457

  position of ions in fractional coordinates (direct lattice)
     0.542815811  0.557184154  0.620909636
     0.457184189  0.642815775  0.620909636
     0.000000000  0.000000000  0.406984115
     0.100000000  0.100000000  0.406984115
     0.000000000  0.100000000  0.502574971
     0.100000000  0.000000000  0.502574971
     0.000000000  0.200000000  0.406984115
     0.100000000  0.300000000  0.406984115
     0.000000000  0.300000000  0.502574971
     0.100000000  0.200000000  0.502574971
     0.000000000  0.400000000  0.406984115
     0.100000000  0.500000000  0.406984115
     0.000000000  0.500000000  0.502574971
     0.100000000  0.400000000  0.502574971
     0.000000000  0.600000000  0.406984115
     0.100000000  0.700000000  0.406984115
     0.000000000  0.700000000  0.502574971
     0.100000000  0.600000000  0.502574971
     0.000000000  0.800000000  0.406984115
     0.100000000  0.900000000  0.406984115
     0.000000000  0.900000000  0.502574971
     0.100000000  0.800000000  0.502574971
     0.200000000  0.000000000  0.406984115
     0.300000000  0.100000000  0.406984115
     0.200000000  0.100000000  0.502574971
     0.300000000  0.000000000  0.502574971
     0.200000000  0.200000000  0.406984115
     0.300000000  0.300000000  0.406984115
     0.200000000  0.300000000  0.502574971
     0.300000000  0.200000000  0.502574971
     0.200000000  0.400000000  0.406984115
     0.300000000  0.500000000  0.406984115
     0.200000000  0.500000000  0.502574971
     0.300000000  0.400000000  0.502574971
     0.200000000  0.600000000  0.406984115
     0.300000000  0.700000000  0.406984115
     0.200000000  0.700000000  0.502574971
     0.300000000  0.600000000  0.502574971
     0.200000000  0.800000000  0.406984115
     0.300000000  0.900000000  0.406984115
     0.200000000  0.900000000  0.502574971
     0.300000000  0.800000000  0.502574971
     0.400000000  0.000000000  0.406984115
     0.500000000  0.100000000  0.406984115
     0.400000000  0.100000000  0.502574971
     0.500000000  0.000000000  0.502574971
     0.400000000  0.200000000  0.406984115
     0.500000000  0.300000000  0.406984115
     0.400000000  0.300000000  0.502574971
     0.500000000  0.200000000  0.502574971
     0.400000000  0.400000000  0.406984115
     0.500000000  0.500000000  0.406984115
     0.400000000  0.500000000  0.502574971
     0.500000000  0.400000000  0.502574971
     0.400000000  0.600000000  0.406984115
     0.500000000  0.700000000  0.406984115
     0.400000000  0.700000000  0.502574971
     0.500000000  0.600000000  0.502574971
     0.400000000  0.800000000  0.406984115
     0.500000000  0.900000000  0.406984115
     0.400000000  0.900000000  0.502574971
     0.500000000  0.800000000  0.502574971
     0.600000000  0.000000000  0.406984115
     0.700000000  0.100000000  0.406984115
     0.600000000  0.100000000  0.502574971
     0.700000000  0.000000000  0.502574971
     0.600000000  0.200000000  0.406984115
     0.700000000  0.300000000  0.406984115
     0.600000000  0.300000000  0.502574971
     0.700000000  0.200000000  0.502574971
     0.600000000  0.400000000  0.406984115
     0.700000000  0.500000000  0.406984115
     0.600000000  0.500000000  0.502574971
     0.700000000  0.400000000  0.502574971
     0.600000000  0.600000000  0.406984115
     0.700000000  0.700000000  0.406984115
     0.600000000  0.700000000  0.502574971
     0.700000000  0.600000000  0.502574971
     0.600000000  0.800000000  0.406984115
     0.700000000  0.900000000  0.406984115
     0.600000000  0.900000000  0.502574971
     0.700000000  0.800000000  0.502574971
     0.800000000  0.000000000  0.406984115
     0.900000000  0.100000000  0.406984115
     0.800000000  0.100000000  0.502574971
     0.900000000  0.000000000  0.502574971
     0.800000000  0.200000000  0.406984115
     0.900000000  0.300000000  0.406984115
     0.800000000  0.300000000  0.502574971
     0.900000000  0.200000000  0.502574971
     0.800000000  0.400000000  0.406984115
     0.900000000  0.500000000  0.406984115
     0.800000000  0.500000000  0.502574971
     0.900000000  0.400000000  0.502574971
     0.800000000  0.600000000  0.406984115
     0.900000000  0.700000000  0.406984115
     0.800000000  0.700000000  0.502574971
     0.900000000  0.600000000  0.502574971
     0.800000000  0.800000000  0.406984115
     0.900000000  0.900000000  0.406984115
     0.800000000  0.900000000  0.502574971
     0.900000000  0.800000000  0.502574971
     0.000000000  0.000000000  0.502574971
     0.100000000  0.100000000  0.502574971
     0.000000000  0.100000000  0.406984115
     0.100000000  0.000000000  0.406984115
     0.000000000  0.200000000  0.502574971
     0.100000000  0.300000000  0.502574971
     0.000000000  0.300000000  0.406984115
     0.100000000  0.200000000  0.406984115
     0.000000000  0.400000000  0.502574971
     0.100000000  0.500000000  0.502574971
     0.000000000  0.500000000  0.406984115
     0.100000000  0.400000000  0.406984115
     0.000000000  0.600000000  0.502574971
     0.100000000  0.700000000  0.502574971
     0.000000000  0.700000000  0.406984115
     0.100000000  0.600000000  0.406984115
     0.000000000  0.800000000  0.502574971
     0.100000000  0.900000000  0.502574971
     0.000000000  0.900000000  0.406984115
     0.100000000  0.800000000  0.406984115
     0.200000000  0.000000000  0.502574971
     0.300000000  0.100000000  0.502574971
     0.200000000  0.100000000  0.406984115
     0.300000000  0.000000000  0.406984115
     0.200000000  0.200000000  0.502574971
     0.300000000  0.300000000  0.502574971
     0.200000000  0.300000000  0.406984115
     0.300000000  0.200000000  0.406984115
     0.200000000  0.400000000  0.502574971
     0.300000000  0.500000000  0.502574971
     0.200000000  0.500000000  0.406984115
     0.300000000  0.400000000  0.406984115
     0.200000000  0.600000000  0.502574971
     0.300000000  0.700000000  0.502574971
     0.200000000  0.700000000  0.406984115
     0.300000000  0.600000000  0.406984115
     0.200000000  0.800000000  0.502574971
     0.300000000  0.900000000  0.502574971
     0.200000000  0.900000000  0.406984115
     0.300000000  0.800000000  0.406984115
     0.400000000  0.000000000  0.502574971
     0.500000000  0.100000000  0.502574971
     0.400000000  0.100000000  0.406984115
     0.500000000  0.000000000  0.406984115
     0.400000000  0.200000000  0.502574971
     0.500000000  0.300000000  0.502574971
     0.400000000  0.300000000  0.406984115
     0.500000000  0.200000000  0.406984115
     0.400000000  0.400000000  0.502574971
     0.500000000  0.500000000  0.502574971
     0.400000000  0.500000000  0.406984115
     0.500000000  0.400000000  0.406984115
     0.400000000  0.600000000  0.502574971
     0.500000000  0.700000000  0.502574971
     0.400000000  0.700000000  0.406984115
     0.500000000  0.600000000  0.406984115
     0.400000000  0.800000000  0.502574971
     0.500000000  0.900000000  0.502574971
     0.400000000  0.900000000  0.406984115
     0.500000000  0.800000000  0.406984115
     0.600000000  0.000000000  0.502574971
     0.700000000  0.100000000  0.502574971
     0.600000000  0.100000000  0.406984115
     0.700000000  0.000000000  0.406984115
     0.600000000  0.200000000  0.502574971
     0.700000000  0.300000000  0.502574971
     0.600000000  0.300000000  0.406984115
     0.700000000  0.200000000  0.406984115
     0.600000000  0.400000000  0.502574971
     0.700000000  0.500000000  0.502574971
     0.600000000  0.500000000  0.406984115
     0.700000000  0.400000000  0.406984115
     0.600000000  0.600000000  0.502574971
     0.700000000  0.700000000  0.502574971
     0.600000000  0.700000000  0.406984115
     0.700000000  0.600000000  0.406984115
     0.600000000  0.800000000  0.502574971
     0.700000000  0.900000000  0.502574971
     0.600000000  0.900000000  0.406984115
     0.700000000  0.800000000  0.406984115
     0.800000000  0.000000000  0.502574971
     0.900000000  0.100000000  0.502574971
     0.800000000  0.100000000  0.406984115
     0.900000000  0.000000000  0.406984115
     0.800000000  0.200000000  0.502574971
     0.900000000  0.300000000  0.502574971
     0.800000000  0.300000000  0.406984115
     0.900000000  0.200000000  0.406984115
     0.800000000  0.400000000  0.502574971
     0.900000000  0.500000000  0.502574971
     0.800000000  0.500000000  0.406984115
     0.900000000  0.400000000  0.406984115
     0.800000000  0.600000000  0.502574971
     0.900000000  0.700000000  0.502574971
     0.800000000  0.700000000  0.406984115
     0.900000000  0.600000000  0.406984115
     0.800000000  0.800000000  0.502574971
     0.900000000  0.900000000  0.502574971
     0.800000000  0.900000000  0.406984115
     0.900000000  0.800000000  0.406984115

  ion indices of the primitive-cell ions
   primitive index   ion index
                 1           1
                 2           2
                 3           3
                 4           4
                 5           5
                 6           6
                 7           7
                 8           8
                 9           9
                10          10
                11          11
                12          12
                13          13
                14          14
                15          15
                16          16
                17          17
                18          18
                19          19
                20          20
                21          21
                22          22
                23          23
                24          24
                25          25
                26          26
                27          27
                28          28
                29          29
                30          30
                31          31
                32          32
                33          33
                34          34
                35          35
                36          36
                37          37
                38          38
                39          39
                40          40
                41          41
                42          42
                43          43
                44          44
                45          45
                46          46
                47          47
                48          48
                49          49
                50          50
                51          51
                52          52
                53          53
                54          54
                55          55
                56          56
                57          57
                58          58
                59          59
                60          60
                61          61
                62          62
                63          63
                64          64
                65          65
                66          66
                67          67
                68          68
                69          69
                70          70
                71          71
                72          72
                73          73
                74          74
                75          75
                76          76
                77          77
                78          78
                79          79
                80          80
                81          81
                82          82
                83          83
                84          84
                85          85
                86          86
                87          87
                88          88
                89          89
                90          90
                91          91
                92          92
                93          93
                94          94
                95          95
                96          96
                97          97
                98          98
                99          99
               100         100
               101         101
               102         102
               103         103
               104         104
               105         105
               106         106
               107         107
               108         108
               109         109
               110         110
               111         111
               112         112
               113         113
               114         114
               115         115
               116         116
               117         117
               118         118
               119         119
               120         120
               121         121
               122         122
               123         123
               124         124
               125         125
               126         126
               127         127
               128         128
               129         129
               130         130
               131         131
               132         132
               133         133
               134         134
               135         135
               136         136
               137         137
               138         138
               139         139
               140         140
               141         141
               142         142
               143         143
               144         144
               145         145
               146         146
               147         147
               148         148
               149         149
               150         150
               151         151
               152         152
               153         153
               154         154
               155         155
               156         156
               157         157
               158         158
               159         159
               160         160
               161         161
               162         162
               163         163
               164         164
               165         165
               166         166
               167         167
               168         168
               169         169
               170         170
               171         171
               172         172
               173         173
               174         174
               175         175
               176         176
               177         177
               178         178
               179         179
               180         180
               181         181
               182         182
               183         183
               184         184
               185         185
               186         186
               187         187
               188         188
               189         189
               190         190
               191         191
               192         192
               193         193
               194         194
               195         195
               196         196
               197         197
               198         198
               199         199
               200         200
               201         201
               202         202

----------------------------------------------------------------------------------------

 
 
 KPOINTS: KPOINTS created by Atomic Simulation Env

Automatic generation of k-mesh.
 Grid dimensions read from file:
 generate k-points for:    1    1    1

 Generating k-lattice:

  Cartesian coordinates                     Fractional coordinates (reciprocal lattice)
     0.047306258  0.000000000  0.000000000     1.000000000  0.000000000  0.000000000
     0.000000000  0.047306258  0.000000000     0.000000000  1.000000000  0.000000000
     0.000000000  0.000000000  0.045220457     0.000000000  0.000000000  1.000000000

  Length of vectors
     0.047306258  0.047306258  0.045220457

  Shift w.r.t. Gamma in fractional coordinates (k-lattice)
     0.000000000  0.000000000  0.000000000

 
 Subroutine IBZKPT returns following result:
 ===========================================
 
 Found      1 irreducible k-points:
 
 Following reciprocal coordinates:
            Coordinates               Weight
  0.000000  0.000000  0.000000      1.000000
 
 Following cartesian coordinates:
            Coordinates               Weight
  0.000000  0.000000  0.000000      1.000000
 


--------------------------------------------------------------------------------------------------------




 Dimension of arrays:
   k-points           NKPTS =      1   k-points in BZ     NKDIM =      1   number of bands    NBANDS=    864
   number of dos      NEDOS =    301   number of ions     NIONS =    202
   non local maximal  LDIM  =      6   non local SUM 2l+1 LMDIM =     18
   total plane-waves  NPLWV = ******
   max r-space proj   IRMAX =   6070   max aug-charges    IRDMAX=  26812
   dimension x,y,z NGX =   160 NGY =  160 NGZ =  168
   dimension x,y,z NGXF=   320 NGYF=  320 NGZF=  336
   support grid    NGXF=   320 NGYF=  320 NGZF=  336
   ions per type =               2 100 100
   NGX,Y,Z   is equivalent  to a cutoff of  12.58, 12.58, 12.63 a.u.
   NGXF,Y,Z  is equivalent  to a cutoff of  25.17, 25.17, 25.26 a.u.

 SYSTEM =  MgO-rocksalt                            
 POSCAR =  Au Mg  O                                

 Startparameter for this run:
   NWRITE =      2    write-flag & timer
   PREC   = accura    normal or accurate (medium, high low for compatibility)
   ISTART =      2    job   : 0-new  1-cont  2-samecut
   ICHARG =      0    charge: 1-file 2-atom 10-const
   ISPIN  =      1    spin polarized calculation?
   LNONCOLLINEAR =      F non collinear calculations
   LSORBIT =      F    spin-orbit coupling
   INIWAV =      1    electr: 0-lowe 1-rand  2-diag
   LASPH  =      T    aspherical Exc in radial PAW
 Electronic Relaxation 1
   ENCUT  =  520.0 eV  38.22 Ry    6.18 a.u.  39.30 39.30 41.12*2*pi/ulx,y,z
   ENINI  =  520.0     initial cutoff
   ENAUG  =  758.8 eV  augmentation charge cutoff
   NELM   =  20000;   NELMIN=  8; NELMDL=  0     # of ELM steps 
   EDIFF  = 0.1E-05   stopping-criterion for ELM
   LREAL  =      T    real-space projection
   NLSPLINE    = F    spline interpolate recip. space projectors
   LCOMPAT=      F    compatible to vasp.4.4
   GGA_COMPAT  = T    GGA compatible to vasp.4.4-vasp.4.6
   LMAXPAW     = -100 max onsite density
   LMAXMIX     =    2 max onsite mixed and CHGCAR
   VOSKOWN=      0    Vosko Wilk Nusair interpolation
   ROPT   =   -0.00025  -0.00025  -0.00025
 Ionic relaxation
   EDIFFG = 0.1E-04   stopping-criterion for IOM
   NSW    =      0    number of steps for IOM
   NBLOCK =      1;   KBLOCK =      1    inner block; outer block 
   IBRION =     -1    ionic relax: 0-MD 1-quasi-New 2-CG
   NFREE  =      0    steps in history (QN), initial steepest desc. (CG)
   ISIF   =      2    stress and relaxation
   IWAVPR =     10    prediction:  0-non 1-charg 2-wave 3-comb
   ISYM   =      0    0-nonsym 1-usesym 2-fastsym
   LCORR  =      T    Harris-Foulkes like correction to forces

   POTIM  = 0.5000    time-step for ionic-motion
   TEIN   =    0.0    initial temperature
   TEBEG  =    0.0;   TEEND  =   0.0 temperature during run
   SMASS  =  -3.00    Nose mass-parameter (am)
   estimated Nose-frequenzy (Omega)   =  0.10E-29 period in steps = 0.13E+47 mass=  -0.102E-25a.u.
   SCALEE = 1.0000    scale energy and forces
   NPACO  =    256;   APACO  = 10.0  distance and # of slots for P.C.
   PSTRESS=    0.0 pullay stress

  Mass of Ions in am
   POMASS = 196.97 24.30 16.00
  Ionic Valenz
   ZVAL   =  11.00  8.00  6.00
  Atomic Wigner-Seitz radii
   RWIGS  =  -1.00 -1.00 -1.00
  virtual crystal weights 
   VCA    =   1.00  1.00  1.00
   NELECT =    1422.0000    total number of electrons
   NUPDOWN=      -1.0000    fix difference up-down

 DOS related values:
   EMIN   =  10.00;   EMAX   =-10.00  energy-range for DOS
   EFERMI =   0.00;   METHOD = LEGACY      
   ISMEAR =     0;   SIGMA  =   0.05  broadening in eV -4-tet -1-fermi 0-gaus

 Electronic relaxation 2 (details)
   IALGO  =     58    algorithm
   LDIAG  =      T    sub-space diagonalisation (order eigenvalues)
   LSUBROT=      F    optimize rotation matrix (better conditioning)
   TURBO    =      0    0=normal 1=particle mesh
   IRESTART =      0    0=no restart 2=restart with 2 vectors
   NREBOOT  =      0    no. of reboots
   NMIN     =      0    reboot dimension
   EREF     =   0.00    reference energy to select bands
   IMIX   =      4    mixing-type and parameters
     AMIX     =   0.40;   BMIX     =  1.00
     AMIX_MAG =   1.60;   BMIX_MAG =  1.00
     AMIN     =   0.10
     WC   =   100.;   INIMIX=   1;  MIXPRE=   1;  MAXMIX= -45

 Intra band minimization:
   WEIMIN = 0.0000     energy-eigenvalue tresh-hold
   EBREAK =  0.29E-09  absolut break condition
   DEPER  =   0.30     relativ break condition  

   TIME   =   0.40     timestep for ELM

  volume/ion in A,a.u.               =      48.92       330.12
  Fermi-wavevector in a.u.,A,eV,Ry     =   0.857891  1.621179 10.013573  0.735977
  Thomas-Fermi vector in A             =   1.975013
 
 Write flags
   LWAVE        =      F    write WAVECAR
   LDOWNSAMPLE  =      F    k-point downsampling of WAVECAR
   LCHARG       =      F    write CHGCAR
   LVTOT        =      F    write LOCPOT, total local potential
   LVHAR        =      F    write LOCPOT, Hartree potential only
   LELF         =      F    write electronic localiz. function (ELF)
   LORBIT       =      0    0 simple, 1 ext, 2 COOP (PROOUT), +10 PAW based schemes


 Dipole corrections
   LMONO  =      F    monopole corrections only (constant potential shift)
   LDIPOL =      T    correct potential (dipole corrections)
   IDIPOL =      3    1-x, 2-y, 3-z, 4-all directions 
   EPSILON=  1.0000000 bulk dielectric constant

 Exchange correlation treatment:
   GGA     =    --    GGA type
   LEXCH   =     8    internal setting for exchange type
   LIBXC   =     F    Libxc                    
   VOSKOWN =     0    Vosko Wilk Nusair interpolation
   LHFCALC =     F    Hartree Fock is set to
   LHFONE  =     F    Hartree Fock one center treatment
   AEXX    =    0.0000 exact exchange contribution

 Linear response parameters
   LEPSILON=     F    determine dielectric tensor
   LRPA    =     F    only Hartree local field effects (RPA)
   LNABLA  =     F    use nabla operator in PAW spheres
   LVEL    =     F    velocity operator in full k-point grid
   CSHIFT  =0.1000    complex shift for real part using Kramers Kronig
   OMEGAMAX=  -1.0    maximum frequency
   DEG_THRESHOLD= 0.2000000E-02 threshold for treating states as degnerate
   RTIME   =   -0.100 relaxation time in fs
  (WPLASMAI=    0.000 imaginary part of plasma frequency in eV, 0.658/RTIME)
   DFIELD  = 0.0000000 0.0000000 0.0000000 field for delta impulse in time
 
  Optional k-point grid parameters
   LKPOINTS_OPT  =     F    use optional k-point grid
   KPOINTS_OPT_MODE=     1    mode for optional k-point grid
 
 Orbital magnetization related:
   ORBITALMAG=     F  switch on orbital magnetization
   LCHIMAG   =     F  perturbation theory with respect to B field
   DQ        =  0.001000  dq finite difference perturbation B field
   LLRAUG    =     F  two centre corrections for induced B field
   LBONE     =     F  B-component reconstruction in AE one-centre
   LVGVCALC  =     T  calculate vGv susceptibility
   LVGVAPPL  =     F  apply vGv susceptibility instead of pGv for G=0

 Random number generation:
   RANDOM_GENERATOR = DEFAULT
   PCG_SEED         = not used


--------------------------------------------------------------------------------------------------------


 Static calculation
 charge density and potential will be updated during run
 non-spin polarized calculation
 Conjugate gradient for all bands (Freysoldt, et al. PRB 79, 241103 (2009))
 preconditioned conjugated gradient                                        
 perform sub-space diagonalisation
    before iterative eigenvector-optimisation
 modified Broyden-mixing scheme, WC =      100.0
 initial mixing is a Kerker type mixing with AMIX =  0.4000 and BMIX =      1.0000
 Hartree-type preconditioning will be used
 using additional bands          153
 real space projection scheme for non local part
 use partial core corrections
 no Harris-corrections to forces 
 use gradient corrections 
 use of overlap-Matrix (Vanderbilt PP)
 Gauss-broadening in eV      SIGMA  =   0.05


--------------------------------------------------------------------------------------------------------


  energy-cutoff  :      520.00
  volume of cell :     9881.61
      direct lattice vectors                 reciprocal lattice vectors
    21.138852197  0.000000000  0.000000000     0.047306258  0.000000000  0.000000000
     0.000000000 21.138852197  0.000000000     0.000000000  0.047306258  0.000000000
     0.000000000  0.000000000 22.113885220     0.000000000  0.000000000  0.045220457

  length of vectors
    21.138852197 21.138852197 22.113885220     0.047306258  0.047306258  0.045220457


 
 old parameters found on file WAVECAR:
  energy-cutoff  :      520.00
  volume of cell :     9881.61
      direct lattice vectors                 reciprocal lattice vectors
    21.138852197  0.000000000  0.000000000     0.047306258  0.000000000  0.000000000
     0.000000000 21.138852197  0.000000000     0.000000000  0.047306258  0.000000000
     0.000000000  0.000000000 22.113885220     0.000000000  0.000000000  0.045220457

  length of vectors

 
 k-points in units of 2pi/SCALE and weight: KPOINTS created by Atomic Simulation Env
   0.00000000  0.00000000  0.00000000       1.000
 
 k-points in reciprocal lattice and weights: KPOINTS created by Atomic Simulation Env
   0.00000000  0.00000000  0.00000000       1.000
 
 position of ions in fractional coordinates (direct lattice) 
   0.54281581  0.55718415  0.62090964
   0.45718419  0.64281577  0.62090964
   0.00000000  0.00000000  0.40698411
   0.10000000  0.10000000  0.40698411
   0.00000000  0.10000000  0.50257497
   0.10000000  0.00000000  0.50257497
   0.00000000  0.20000000  0.40698411
   0.10000000  0.30000000  0.40698411
   0.00000000  0.30000000  0.50257497
   0.10000000  0.20000000  0.50257497
   0.00000000  0.40000000  0.40698411
   0.10000000  0.50000000  0.40698411
   0.00000000  0.50000000  0.50257497
   0.10000000  0.40000000  0.50257497
   0.00000000  0.60000000  0.40698411
   0.10000000  0.70000000  0.40698411
   0.00000000  0.70000000  0.50257497
   0.10000000  0.60000000  0.50257497
   0.00000000  0.80000000  0.40698411
   0.10000000  0.90000000  0.40698411
   0.00000000  0.90000000  0.50257497
   0.10000000  0.80000000  0.50257497
   0.20000000  0.00000000  0.40698411
   0.30000000  0.10000000  0.40698411
   0.20000000  0.10000000  0.50257497
   0.30000000  0.00000000  0.50257497
   0.20000000  0.20000000  0.40698411
   0.30000000  0.30000000  0.40698411
   0.20000000  0.30000000  0.50257497
   0.30000000  0.20000000  0.50257497
   0.20000000  0.40000000  0.40698411
   0.30000000  0.50000000  0.40698411
   0.20000000  0.50000000  0.50257497
   0.30000000  0.40000000  0.50257497
   0.20000000  0.60000000  0.40698411
   0.30000000  0.70000000  0.40698411
   0.20000000  0.70000000  0.50257497
   0.30000000  0.60000000  0.50257497
   0.20000000  0.80000000  0.40698411
   0.30000000  0.90000000  0.40698411
   0.20000000  0.90000000  0.50257497
   0.30000000  0.80000000  0.50257497
   0.40000000  0.00000000  0.40698411
   0.50000000  0.10000000  0.40698411
   0.40000000  0.10000000  0.50257497
   0.50000000  0.00000000  0.50257497
   0.40000000  0.20000000  0.40698411
   0.50000000  0.30000000  0.40698411
   0.40000000  0.30000000  0.50257497
   0.50000000  0.20000000  0.50257497
   0.40000000  0.40000000  0.40698411
   0.50000000  0.50000000  0.40698411
   0.40000000  0.50000000  0.50257497
   0.50000000  0.40000000  0.50257497
   0.40000000  0.60000000  0.40698411
   0.50000000  0.70000000  0.40698411
   0.40000000  0.70000000  0.50257497
   0.50000000  0.60000000  0.50257497
   0.40000000  0.80000000  0.40698411
   0.50000000  0.90000000  0.40698411
   0.40000000  0.90000000  0.50257497
   0.50000000  0.80000000  0.50257497
   0.60000000  0.00000000  0.40698411
   0.70000000  0.10000000  0.40698411
   0.60000000  0.10000000  0.50257497
   0.70000000  0.00000000  0.50257497
   0.60000000  0.20000000  0.40698411
   0.70000000  0.30000000  0.40698411
   0.60000000  0.30000000  0.50257497
   0.70000000  0.20000000  0.50257497
   0.60000000  0.40000000  0.40698411
   0.70000000  0.50000000  0.40698411
   0.60000000  0.50000000  0.50257497
   0.70000000  0.40000000  0.50257497
   0.60000000  0.60000000  0.40698411
   0.70000000  0.70000000  0.40698411
   0.60000000  0.70000000  0.50257497
   0.70000000  0.60000000  0.50257497
   0.60000000  0.80000000  0.40698411
   0.70000000  0.90000000  0.40698411
   0.60000000  0.90000000  0.50257497
   0.70000000  0.80000000  0.50257497
   0.80000000  0.00000000  0.40698411
   0.90000000  0.10000000  0.40698411
   0.80000000  0.10000000  0.50257497
   0.90000000  0.00000000  0.50257497
   0.80000000  0.20000000  0.40698411
   0.90000000  0.30000000  0.40698411
   0.80000000  0.30000000  0.50257497
   0.90000000  0.20000000  0.50257497
   0.80000000  0.40000000  0.40698411
   0.90000000  0.50000000  0.40698411
   0.80000000  0.50000000  0.50257497
   0.90000000  0.40000000  0.50257497
   0.80000000  0.60000000  0.40698411
   0.90000000  0.70000000  0.40698411
   0.80000000  0.70000000  0.50257497
   0.90000000  0.60000000  0.50257497
   0.80000000  0.80000000  0.40698411
   0.90000000  0.90000000  0.40698411
   0.80000000  0.90000000  0.50257497
   0.90000000  0.80000000  0.50257497
   0.00000000  0.00000000  0.50257497
   0.10000000  0.10000000  0.50257497
   0.00000000  0.10000000  0.40698411
   0.10000000  0.00000000  0.40698411
   0.00000000  0.20000000  0.50257497
   0.10000000  0.30000000  0.50257497
   0.00000000  0.30000000  0.40698411
   0.10000000  0.20000000  0.40698411
   0.00000000  0.40000000  0.50257497
   0.10000000  0.50000000  0.50257497
   0.00000000  0.50000000  0.40698411
   0.10000000  0.40000000  0.40698411
   0.00000000  0.60000000  0.50257497
   0.10000000  0.70000000  0.50257497
   0.00000000  0.70000000  0.40698411
   0.10000000  0.60000000  0.40698411
   0.00000000  0.80000000  0.50257497
   0.10000000  0.90000000  0.50257497
   0.00000000  0.90000000  0.40698411
   0.10000000  0.80000000  0.40698411
   0.20000000  0.00000000  0.50257497
   0.30000000  0.10000000  0.50257497
   0.20000000  0.10000000  0.40698411
   0.30000000  0.00000000  0.40698411
   0.20000000  0.20000000  0.50257497
   0.30000000  0.30000000  0.50257497
   0.20000000  0.30000000  0.40698411
   0.30000000  0.20000000  0.40698411
   0.20000000  0.40000000  0.50257497
   0.30000000  0.50000000  0.50257497
   0.20000000  0.50000000  0.40698411
   0.30000000  0.40000000  0.40698411
   0.20000000  0.60000000  0.50257497
   0.30000000  0.70000000  0.50257497
   0.20000000  0.70000000  0.40698411
   0.30000000  0.60000000  0.40698411
   0.20000000  0.80000000  0.50257497
   0.30000000  0.90000000  0.50257497
   0.20000000  0.90000000  0.40698411
   0.30000000  0.80000000  0.40698411
   0.40000000  0.00000000  0.50257497
   0.50000000  0.10000000  0.50257497
   0.40000000  0.10000000  0.40698411
   0.50000000  0.00000000  0.40698411
   0.40000000  0.20000000  0.50257497
   0.50000000  0.30000000  0.50257497
   0.40000000  0.30000000  0.40698411
   0.50000000  0.20000000  0.40698411
   0.40000000  0.40000000  0.50257497
   0.50000000  0.50000000  0.50257497
   0.40000000  0.50000000  0.40698411
   0.50000000  0.40000000  0.40698411
   0.40000000  0.60000000  0.50257497
   0.50000000  0.70000000  0.50257497
   0.40000000  0.70000000  0.40698411
   0.50000000  0.60000000  0.40698411
   0.40000000  0.80000000  0.50257497
   0.50000000  0.90000000  0.50257497
   0.40000000  0.90000000  0.40698411
   0.50000000  0.80000000  0.40698411
   0.60000000  0.00000000  0.50257497
   0.70000000  0.10000000  0.50257497
   0.60000000  0.10000000  0.40698411
   0.70000000  0.00000000  0.40698411
   0.60000000  0.20000000  0.50257497
   0.70000000  0.30000000  0.50257497
   0.60000000  0.30000000  0.40698411
   0.70000000  0.20000000  0.40698411
   0.60000000  0.40000000  0.50257497
   0.70000000  0.50000000  0.50257497
   0.60000000  0.50000000  0.40698411
   0.70000000  0.40000000  0.40698411
   0.60000000  0.60000000  0.50257497
   0.70000000  0.70000000  0.50257497
   0.60000000  0.70000000  0.40698411
   0.70000000  0.60000000  0.40698411
   0.60000000  0.80000000  0.50257497
   0.70000000  0.90000000  0.50257497
   0.60000000  0.90000000  0.40698411
   0.70000000  0.80000000  0.40698411
   0.80000000  0.00000000  0.50257497
   0.90000000  0.10000000  0.50257497
   0.80000000  0.10000000  0.40698411
   0.90000000  0.00000000  0.40698411
   0.80000000  0.20000000  0.50257497
   0.90000000  0.30000000  0.50257497
   0.80000000  0.30000000  0.40698411
   0.90000000  0.20000000  0.40698411
   0.80000000  0.40000000  0.50257497
   0.90000000  0.50000000  0.50257497
   0.80000000  0.50000000  0.40698411
   0.90000000  0.40000000  0.40698411
   0.80000000  0.60000000  0.50257497
   0.90000000  0.70000000  0.50257497
   0.80000000  0.70000000  0.40698411
   0.90000000  0.60000000  0.40698411
   0.80000000  0.80000000  0.50257497
   0.90000000  0.90000000  0.50257497
   0.80000000  0.90000000  0.40698411
   0.90000000  0.80000000  0.40698411
 
 position of ions in cartesian coordinates  (Angst):
  11.47450319 11.77823347 13.73072442
   9.66434901 13.58838765 13.73072442
   0.00000000  0.00000000  9.00000000
   2.11388522  2.11388522  9.00000000
   0.00000000  2.11388522 11.11388522
   2.11388522  0.00000000 11.11388522
   0.00000000  4.22777044  9.00000000
   2.11388522  6.34165566  9.00000000
   0.00000000  6.34165566 11.11388522
   2.11388522  4.22777044 11.11388522
   0.00000000  8.45554088  9.00000000
   2.11388522 10.56942610  9.00000000
   0.00000000 10.56942610 11.11388522
   2.11388522  8.45554088 11.11388522
   0.00000000 12.68331132  9.00000000
   2.11388522 14.79719654  9.00000000
   0.00000000 14.79719654 11.11388522
   2.11388522 12.68331132 11.11388522
   0.00000000 16.91108176  9.00000000
   2.11388522 19.02496698  9.00000000
   0.00000000 19.02496698 11.11388522
   2.11388522 16.91108176 11.11388522
   4.22777044  0.00000000  9.00000000
   6.34165566  2.11388522  9.00000000
   4.22777044  2.11388522 11.11388522
   6.34165566  0.00000000 11.11388522
   4.22777044  4.22777044  9.00000000
   6.34165566  6.34165566  9.00000000
   4.22777044  6.34165566 11.11388522
   6.34165566  4.22777044 11.11388522
   4.22777044  8.45554088  9.00000000
   6.34165566 10.56942610  9.00000000
   4.22777044 10.56942610 11.11388522
   6.34165566  8.45554088 11.11388522
   4.22777044 12.68331132  9.00000000
   6.34165566 14.79719654  9.00000000
   4.22777044 14.79719654 11.11388522
   6.34165566 12.68331132 11.11388522
   4.22777044 16.91108176  9.00000000
   6.34165566 19.02496698  9.00000000
   4.22777044 19.02496698 11.11388522
   6.34165566 16.91108176 11.11388522
   8.45554088  0.00000000  9.00000000
  10.56942610  2.11388522  9.00000000
   8.45554088  2.11388522 11.11388522
  10.56942610  0.00000000 11.11388522
   8.45554088  4.22777044  9.00000000
  10.56942610  6.34165566  9.00000000
   8.45554088  6.34165566 11.11388522
  10.56942610  4.22777044 11.11388522
   8.45554088  8.45554088  9.00000000
  10.56942610 10.56942610  9.00000000
   8.45554088 10.56942610 11.11388522
  10.56942610  8.45554088 11.11388522
   8.45554088 12.68331132  9.00000000
  10.56942610 14.79719654  9.00000000
   8.45554088 14.79719654 11.11388522
  10.56942610 12.68331132 11.11388522
   8.45554088 16.91108176  9.00000000
  10.56942610 19.02496698  9.00000000
   8.45554088 19.02496698 11.11388522
  10.56942610 16.91108176 11.11388522
  12.68331132  0.00000000  9.00000000
  14.79719654  2.11388522  9.00000000
  12.68331132  2.11388522 11.11388522
  14.79719654  0.00000000 11.11388522
  12.68331132  4.22777044  9.00000000
  14.79719654  6.34165566  9.00000000
  12.68331132  6.34165566 11.11388522
  14.79719654  4.22777044 11.11388522
  12.68331132  8.45554088  9.00000000
  14.79719654 10.56942610  9.00000000
  12.68331132 10.56942610 11.11388522
  14.79719654  8.45554088 11.11388522
  12.68331132 12.68331132  9.00000000
  14.79719654 14.79719654  9.00000000
  12.68331132 14.79719654 11.11388522
  14.79719654 12.68331132 11.11388522
  12.68331132 16.91108176  9.00000000
  14.79719654 19.02496698  9.00000000
  12.68331132 19.02496698 11.11388522
  14.79719654 16.91108176 11.11388522
  16.91108176  0.00000000  9.00000000
  19.02496698  2.11388522  9.00000000
  16.91108176  2.11388522 11.11388522
  19.02496698  0.00000000 11.11388522
  16.91108176  4.22777044  9.00000000
  19.02496698  6.34165566  9.00000000
  16.91108176  6.34165566 11.11388522
  19.02496698  4.22777044 11.11388522
  16.91108176  8.45554088  9.00000000
  19.02496698 10.56942610  9.00000000
  16.91108176 10.56942610 11.11388522
  19.02496698  8.45554088 11.11388522
  16.91108176 12.68331132  9.00000000
  19.02496698 14.79719654  9.00000000
  16.91108176 14.79719654 11.11388522
  19.02496698 12.68331132 11.11388522
  16.91108176 16.91108176  9.00000000
  19.02496698 19.02496698  9.00000000
  16.91108176 19.02496698 11.11388522
  19.02496698 16.91108176 11.11388522
   0.00000000  0.00000000 11.11388522
   2.11388522  2.11388522 11.11388522
   0.00000000  2.11388522  9.00000000
   2.11388522  0.00000000  9.00000000
   0.00000000  4.22777044 11.11388522
   2.11388522  6.34165566 11.11388522
   0.00000000  6.34165566  9.00000000
   2.11388522  4.22777044  9.00000000
   0.00000000  8.45554088 11.11388522
   2.11388522 10.56942610 11.11388522
   0.00000000 10.56942610  9.00000000
   2.11388522  8.45554088  9.00000000
   0.00000000 12.68331132 11.11388522
   2.11388522 14.79719654 11.11388522
   0.00000000 14.79719654  9.00000000
   2.11388522 12.68331132  9.00000000
   0.00000000 16.91108176 11.11388522
   2.11388522 19.02496698 11.11388522
   0.00000000 19.02496698  9.00000000
   2.11388522 16.91108176  9.00000000
   4.22777044  0.00000000 11.11388522
   6.34165566  2.11388522 11.11388522
   4.22777044  2.11388522  9.00000000
   6.34165566  0.00000000  9.00000000
   4.22777044  4.22777044 11.11388522
   6.34165566  6.34165566 11.11388522
   4.22777044  6.34165566  9.00000000
   6.34165566  4.22777044  9.00000000
   4.22777044  8.45554088 11.11388522
   6.34165566 10.56942610 11.11388522
   4.22777044 10.56942610  9.00000000
   6.34165566  8.45554088  9.00000000
   4.22777044 12.68331132 11.11388522
   6.34165566 14.79719654 11.11388522
   4.22777044 14.79719654  9.00000000
   6.34165566 12.68331132  9.00000000
   4.22777044 16.91108176 11.11388522
   6.34165566 19.02496698 11.11388522
   4.22777044 19.02496698  9.00000000
   6.34165566 16.91108176  9.00000000
   8.45554088  0.00000000 11.11388522
  10.56942610  2.11388522 11.11388522
   8.45554088  2.11388522  9.00000000
  10.56942610  0.00000000  9.00000000
   8.45554088  4.22777044 11.11388522
  10.56942610  6.34165566 11.11388522
   8.45554088  6.34165566  9.00000000
  10.56942610  4.22777044  9.00000000
   8.45554088  8.45554088 11.11388522
  10.56942610 10.56942610 11.11388522
   8.45554088 10.56942610  9.00000000
  10.56942610  8.45554088  9.00000000
   8.45554088 12.68331132 11.11388522
  10.56942610 14.79719654 11.11388522
   8.45554088 14.79719654  9.00000000
  10.56942610 12.68331132  9.00000000
   8.45554088 16.91108176 11.11388522
  10.56942610 19.02496698 11.11388522
   8.45554088 19.02496698  9.00000000
  10.56942610 16.91108176  9.00000000
  12.68331132  0.00000000 11.11388522
  14.79719654  2.11388522 11.11388522
  12.68331132  2.11388522  9.00000000
  14.79719654  0.00000000  9.00000000
  12.68331132  4.22777044 11.11388522
  14.79719654  6.34165566 11.11388522
  12.68331132  6.34165566  9.00000000
  14.79719654  4.22777044  9.00000000
  12.68331132  8.45554088 11.11388522
  14.79719654 10.56942610 11.11388522
  12.68331132 10.56942610  9.00000000
  14.79719654  8.45554088  9.00000000
  12.68331132 12.68331132 11.11388522
  14.79719654 14.79719654 11.11388522
  12.68331132 14.79719654  9.00000000
  14.79719654 12.68331132  9.00000000
  12.68331132 16.91108176 11.11388522
  14.79719654 19.02496698 11.11388522
  12.68331132 19.02496698  9.00000000
  14.79719654 16.91108176  9.00000000
  16.91108176  0.00000000 11.11388522
  19.02496698  2.11388522 11.11388522
  16.91108176  2.11388522  9.00000000
  19.02496698  0.00000000  9.00000000
  16.91108176  4.22777044 11.11388522
  19.02496698  6.34165566 11.11388522
  16.91108176  6.34165566  9.00000000
  19.02496698  4.22777044  9.00000000
  16.91108176  8.45554088 11.11388522
  19.02496698 10.56942610 11.11388522
  16.91108176 10.56942610  9.00000000
  19.02496698  8.45554088  9.00000000
  16.91108176 12.68331132 11.11388522
  19.02496698 14.79719654 11.11388522
  16.91108176 14.79719654  9.00000000
  19.02496698 12.68331132  9.00000000
  16.91108176 16.91108176 11.11388522
  19.02496698 19.02496698 11.11388522
  16.91108176 19.02496698  9.00000000
  19.02496698 16.91108176  9.00000000
 


--------------------------------------------------------------------------------------------------------


 k-point   1 :   0.0000 0.0000 0.0000  plane waves:  265979

 maximum and minimum number of plane-waves per node :     16635    16606

 maximum number of plane-waves:    265979
 maximum index in each direction: 
   IXMAX=   39   IYMAX=   39   IZMAX=   41
   IXMIN=  -39   IYMIN=  -39   IZMIN=  -41


 real space projection operators:
  total allocation   :      56234.84 KBytes
  max/ min on nodes  :       4511.44       2295.06


 parallel 3D FFT for wavefunctions:
    minimum data exchange during FFTs selected (reduces bandwidth)
 parallel 3D FFT for charge:
    minimum data exchange during FFTs selected (reduces bandwidth)


 total amount of memory used by VASP MPI-rank0   116895. kBytes
=======================================================================

   base      :      30000. kBytes
   nonlr-proj:      26285. kBytes
   fftplans  :      11482. kBytes
   grid      :      27155. kBytes
   one-center:        202. kBytes
   wavefun   :      21771. kBytes
 
     INWAV:  cpu time     30.8626: real time     30.9219
 Broyden mixing: mesh for mixing (old mesh)
   NGX = 79   NGY = 79   NGZ = 83
  (NGX  =320   NGY  =320   NGZ  =336)
  gives a total of 518003 points

 charge density for first step will be calculated from the start-wavefunctions


--------------------------------------------------------------------------------------------------------


 Maximum index for non-local projection operator          374
 Maximum index for augmentation-charges          495 (set IRDMAX)


--------------------------------------------------------------------------------------------------------


 initial charge from wavefunction
 First call to EWALD:  gamma=   0.083
 Maximum number of real-space cells 3x 3x 3
 Maximum number of reciprocal cells 3x 3x 3

    FEWALD:  cpu time      0.0198: real time      0.0198


--------------------------------------- Ionic step        1  -------------------------------------------




--------------------------------------- Iteration      1(   1)  ---------------------------------------


    POTLOK:  cpu time      1.2557: real time      1.2557
    SETDIJ:  cpu time      5.3880: real time      5.3916
    TRIAL :  cpu time     10.0271: real time     10.0295
    CORREC:  cpu time     11.4042: real time     11.4062
    CHARGE:  cpu time      1.1249: real time      1.1252
    --------------------------------------------
      LOOP:  cpu time     29.2125: real time     29.2214

 eigenvalue-minimisations  :     0
 total energy-change (2. order) :-0.1715415E+04  (-0.5971580E+00)
 number of electron    1421.9998130 magnetization 
 augmentation part      489.4801641 magnetization 

 DIPCOR: dipole corrections for dipol
 direction  3 min pos     1,
 dipolmoment           0.000000      0.000000     54.533539 electrons x Angstroem
 Tr[quadrupol]   -107910.704237

 energy correction for charged system         0.000000 eV
 dipol+quadrupol energy correction          -29.424303 eV
 added-field ion interaction       1447.317634 eV  (added to PSCEN)


 Free energy of the ion-electron system (eV)
  ---------------------------------------------------
  alpha Z        PSCENC =      1377.18974554
  Ewald energy   TEWEN  =    414999.07544507
  -Hartree energ DENC   =   -529308.42982446
  -exchange      EXHF   =         0.00000000
  -V(xc)+E(xc)   XCENC  =      7253.21282925
  PAW double counting   =    107504.75128740  -119883.08881052
  entropy T*S    EENTRO =        -0.00000000
  eigenvalues    EBANDS =    -34416.12849980
[...]
   -.895E+01 -.553E+00 0.706E+03   0.885E+01 0.327E+00 -.710E+03   -.833E-01 -.691E-01 0.358E+01
   -.164E+02 -.127E+02 -.689E+03   0.165E+02 0.127E+02 0.692E+03   -.551E-01 -.546E-01 -.298E+01
   -.510E+01 -.633E+01 -.693E+03   0.514E+01 0.639E+01 0.697E+03   -.246E-02 -.128E-01 -.294E+01
   -.734E+01 -.731E+01 0.704E+03   0.738E+01 0.738E+01 -.707E+03   -.374E-01 -.333E-01 0.364E+01
   -.571E+01 -.562E+01 0.704E+03   0.574E+01 0.562E+01 -.707E+03   -.361E-01 -.510E-01 0.369E+01
 -----------------------------------------------------------------------------------------------
   -.149E-01 0.344E+00 -.900E+02   0.348E-11 -.155E-11 -.739E-11   -.499E-01 -.962E-01 0.176E+03
 
 
 POSITION                                       TOTAL-FORCE (eV/Angst)
 -----------------------------------------------------------------------------------
     11.47450     11.77823     13.73072         0.073678     -0.023318     -0.624109
      9.66435     13.58839     13.73072        -0.132732      0.129469     -0.609276
      0.00000      0.00000      9.00000        -0.065326      0.018580      1.930591
      2.11389      2.11389      9.00000         0.060269     -0.004585      1.550885
      0.00000      2.11389     11.11389         0.006774      0.001344     -3.255192
      2.11389      0.00000     11.11389         0.084064      0.008270     -1.194997
      0.00000      4.22777      9.00000        -0.065320      0.041598      1.839175
      2.11389      6.34166      9.00000        -0.085960      0.002106      2.036908
      0.00000      6.34166     11.11389        -0.179864      0.050473     -1.342132
      2.11389      4.22777     11.11389        -0.001872     -0.005916     -3.170592
      0.00000      8.45554      9.00000        -0.225363      0.006187      1.606665
      2.11389     10.56943      9.00000        -0.106521     -0.032991      1.636801
      0.00000     10.56943     11.11389        -0.168714     -0.084356     -0.583361
      2.11389      8.45554     11.11389        -0.118679      0.018560     -3.091998
      0.00000     12.68331      9.00000        -0.101919     -0.090166      1.691689
      2.11389     14.79720      9.00000        -0.022636      0.008503      1.903393
      0.00000     14.79720     11.11389        -0.065539     -0.040429     -2.939638
      2.11389     12.68331     11.11389        -0.063222     -0.053803     -1.170903
      0.00000     16.91108      9.00000         0.019873      0.024222      1.644416
      2.11389     19.02497      9.00000         0.072795      0.018709      2.417031
      0.00000     19.02497     11.11389        -0.008862      0.035411     -1.756224
      2.11389     16.91108     11.11389         0.019668      0.070586     -1.315754
      4.22777      0.00000      9.00000         0.210947      0.011041      1.750814
      6.34166      2.11389      9.00000         0.202139     -0.115117      2.274095
      4.22777      2.11389     11.11389         0.193625     -0.047362     -3.663815
      6.34166      0.00000     11.11389         0.147459      0.116802     -3.158888
      4.22777      4.22777      9.00000         0.100199     -0.069092      1.129028
      6.34166      6.34166      9.00000         0.006100     -0.163509      1.817986
      4.22777      6.34166     11.11389         0.045886     -0.114337     -2.792791
      6.34166      4.22777     11.11389         0.126612     -0.190537     -2.522645
      4.22777      8.45554      9.00000        -0.048114     -0.022034      1.167667
      6.34166     10.56943      9.00000        -0.091594     -0.030179      1.428477
      4.22777     10.56943     11.11389        -0.055805      0.003067     -1.066747
      6.34166      8.45554     11.11389        -0.009518     -0.086362     -2.984707
      4.22777     12.68331      9.00000        -0.055083     -0.008936      1.905708
      6.34166     14.79720      9.00000        -0.058493      0.063298      1.640075
      4.22777     14.79720     11.11389        -0.041765      0.045203     -2.417402
      6.34166     12.68331     11.11389        -0.040398      0.001040     -1.492355
      4.22777     16.91108      9.00000        -0.000361      0.117635      1.638940
      6.34166     19.02497      9.00000         0.013963      0.248103      1.855810
      4.22777     19.02497     11.11389         0.101234      0.114509     -0.562751
      6.34166     16.91108     11.11389        -0.075596      0.146967     -1.578053
      8.45554      0.00000      9.00000        -0.069997      0.205685      1.727256
     10.56943      2.11389      9.00000        -0.242981     -0.096502      1.503648
      8.45554      2.11389     11.11389        -0.069747     -0.120079     -2.915058
     10.56943      0.00000     11.11389        -0.198872      0.124061     -1.929304
      8.45554      4.22777      9.00000        -0.054864     -0.284851      2.491610
     10.56943      6.34166      9.00000        -0.033991     -0.149375      2.048284
      8.45554      6.34166     11.11389        -0.063798     -0.206845     -0.478323
     10.56943      4.22777     11.11389        -0.132217     -0.161797     -1.226726
      8.45554      8.45554      9.00000        -0.057829     -0.148549      1.462492
     10.56943     10.56943      9.00000         0.074869     -0.081071      1.019479
      8.45554     10.56943     11.11389        -0.113019     -0.070015     -0.957685
     10.56943      8.45554     11.11389         0.020957     -0.133450     -1.303274
      8.45554     12.68331      9.00000        -0.098576      0.034745      0.714024
     10.56943     14.79720      9.00000        -0.026239      0.095757      1.328401
      8.45554     14.79720     11.11389        -0.150286      0.129880     -0.871453
     10.56943     12.68331     11.11389        -0.023171      0.012000     -0.693320
      8.45554     16.91108      9.00000        -0.076348      0.216010      2.265076
     10.56943     19.02497      9.00000        -0.106424      0.240554      1.708538
      8.45554     19.02497     11.11389        -0.061651      0.307757     -1.397670
     10.56943     16.91108     11.11389        -0.012477      0.191938     -0.490266
     12.68331      0.00000      9.00000        -0.183933      0.036794      2.178532
     14.79720      2.11389      9.00000        -0.034896     -0.004955      2.117750
     12.68331      2.11389     11.11389        -0.170100     -0.042064     -1.423926
     14.79720      0.00000     11.11389        -0.072256      0.003420     -2.840769
     12.68331      4.22777      9.00000        -0.071344     -0.065447      1.702244
     14.79720      6.34166      9.00000         0.217836      0.122279      1.418702
     12.68331      6.34166     11.11389         0.083726     -0.052229     -0.890479
     14.79720      4.22777     11.11389         0.029513      0.065372     -0.931323
     12.68331      8.45554      9.00000         0.213481     -0.033822      1.043626
     14.79720     10.56943      9.00000         0.329804     -0.072520      0.973084
     12.68331     10.56943     11.11389         0.347868     -0.166241     -0.923270
     14.79720      8.45554     11.11389         0.340505      0.070250     -1.138917
     12.68331     12.68331      9.00000         0.224359     -0.084150      1.214230
     14.79720     14.79720      9.00000         0.145463     -0.089172      1.821982
     12.68331     14.79720     11.11389         0.147602      0.073824     -0.386362
     14.79720     12.68331     11.11389         0.301517     -0.157588     -0.707976
     12.68331     16.91108      9.00000         0.022792      0.102166      2.476086
     14.79720     19.02497      9.00000         0.001457      0.047136      1.350630
     12.68331     19.02497     11.11389        -0.039808      0.080123     -0.914152
     14.79720     16.91108     11.11389         0.063794      0.025554     -1.555708
     16.91108      0.00000      9.00000         0.090139      0.020300      1.969864
     19.02497      2.11389      9.00000         0.002968     -0.004198      2.018056
     16.91108      2.11389     11.11389         0.062048      0.034189     -1.280463
     19.02497      0.00000     11.11389         0.021120      0.012479     -2.303929
     16.91108      4.22777      9.00000         0.093018      0.167041      1.300059
     19.02497      6.34166      9.00000        -0.109262      0.168937      1.481413
     16.91108      6.34166     11.11389         0.146317      0.247713     -1.129743
     19.02497      4.22777     11.11389        -0.021487      0.166860     -1.103710
     16.91108      8.45554      9.00000         0.132444      0.098427      1.516806
     19.02497     10.56943      9.00000        -0.185030     -0.163575      1.595276
     16.91108     10.56943     11.11389         0.079536     -0.167912     -0.971061
     19.02497      8.45554     11.11389        -0.217251      0.023479     -2.528876
     16.91108     12.68331      9.00000         0.042963     -0.282357      1.994937
     19.02497     14.79720      9.00000        -0.024991     -0.104643      1.763765
     16.91108     14.79720     11.11389         0.044249     -0.163020     -2.821332
     19.02497     12.68331     11.11389        -0.126023     -0.182358     -1.010189
     16.91108     16.91108      9.00000         0.030001     -0.026312      1.782549
     19.02497     19.02497      9.00000         0.038161      0.070236      1.938012
     16.91108     19.02497     11.11389         0.003057      0.047188     -1.850794
     19.02497     16.91108     11.11389         0.018061     -0.004866     -1.041231
      0.00000      0.00000     11.11389         0.054672      0.015813     -0.161139
      2.11389      2.11389     11.11389         0.155289     -0.042132     -0.272128
      0.00000      2.11389      9.00000        -0.002775      0.060560      0.305675
      2.11389      0.00000      9.00000         0.190084      0.020167      0.304558
      0.00000      4.22777     11.11389        -0.093184      0.096817     -0.219523
      2.11389      6.34166     11.11389        -0.043350     -0.022875     -0.190408
      0.00000      6.34166      9.00000        -0.244473      0.140141      0.073497
      2.11389      4.22777      9.00000         0.058555     -0.027996      0.329371
      0.00000      8.45554     11.11389        -0.336694      0.034808     -0.265423
      2.11389     10.56943     11.11389        -0.148318     -0.039126     -0.196573
      0.00000     10.56943      9.00000        -0.285674     -0.122973      0.025324
      2.11389      8.45554      9.00000        -0.139168      0.004187      0.198289
      0.00000     12.68331     11.11389        -0.162079     -0.142665     -0.206722
      2.11389     14.79720     11.11389        -0.003342      0.031243     -0.255159
      0.00000     14.79720      9.00000        -0.038138     -0.108665      0.157487
      2.11389     12.68331      9.00000        -0.104399     -0.050109     -0.015565
      0.00000     16.91108     11.11389         0.048325      0.005138     -0.280565
      2.11389     19.02497     11.11389         0.166252      0.072359     -0.190576
      0.00000     19.02497      9.00000         0.036842      0.057643      0.434313
      2.11389     16.91108      9.00000         0.119806      0.054481      0.426411
      4.22777      0.00000     11.11389         0.319965      0.042184     -0.318378
      6.34166      2.11389     11.11389         0.254134     -0.145725     -0.313081
      4.22777      2.11389      9.00000         0.304616     -0.096156      0.552383
      6.34166      0.00000      9.00000         0.256705      0.108312      0.444801
      4.22777      4.22777     11.11389         0.230648     -0.169651     -0.304988
      6.34166      6.34166     11.11389         0.086556     -0.269735     -0.200453
      4.22777      6.34166      9.00000         0.068034     -0.124373      0.280049
      6.34166      4.22777      9.00000         0.157655     -0.275915      0.651017
      4.22777      8.45554     11.11389        -0.014218     -0.047455     -0.229342
      6.34166     10.56943     11.11389         0.003936      0.061071     -0.212683
      4.22777     10.56943      9.00000        -0.053906     -0.029823      0.107139
      6.34166      8.45554      9.00000         0.015399     -0.072870      0.132176
      4.22777     12.68331     11.11389         0.000047      0.000622     -0.179747
      6.34166     14.79720     11.11389         0.065359      0.052211     -0.062509
      4.22777     14.79720      9.00000         0.032260      0.063598      0.297001
      6.34166     12.68331      9.00000         0.045589      0.008701      0.217094
      4.22777     16.91108     11.11389         0.102877      0.169625     -0.177896
      6.34166     19.02497     11.11389         0.108975      0.290323     -0.267069
      4.22777     19.02497      9.00000         0.248713      0.175342      0.363893
      6.34166     16.91108      9.00000         0.024264      0.227640      0.303693
      8.45554      0.00000     11.11389        -0.101144      0.182373     -0.361001
     10.56943      2.11389     11.11389        -0.326983     -0.108844     -0.352269
      8.45554      2.11389      9.00000        -0.047892     -0.202162      0.416524
     10.56943      0.00000      9.00000        -0.326270      0.173081      0.405015
      8.45554      4.22777     11.11389        -0.066020     -0.344231     -0.262881
     10.56943      6.34166     11.11389        -0.070642     -0.204783     -0.179457
      8.45554      6.34166      9.00000        -0.021407     -0.238198      0.256084
     10.56943      4.22777      9.00000        -0.215399     -0.274537      0.369378
      8.45554      8.45554     11.11389         0.002094     -0.103652     -0.219331
     10.56943     10.56943     11.11389         0.018568     -0.210702     -0.293173
      8.45554     10.56943      9.00000        -0.019949      0.027163      0.011632
     10.56943      8.45554      9.00000         0.021591     -0.043847      0.197288
      8.45554     12.68331     11.11389        -0.234585      0.070217     -0.227294
     10.56943     14.79720     11.11389        -0.048401      0.261641     -0.184817
      8.45554     14.79720      9.00000        -0.013251      0.016079      0.027461
     10.56943     12.68331      9.00000         0.008869      0.008552     -0.120012
      8.45554     16.91108     11.11389        -0.013467      0.171503     -0.098054
     10.56943     19.02497     11.11389        -0.205086      0.269721     -0.196758
      8.45554     19.02497      9.00000        -0.093187      0.369687      0.421305
     10.56943     16.91108      9.00000        -0.084705      0.131333      0.244532
     12.68331      0.00000     11.11389        -0.285419      0.070128     -0.207727
     14.79720      2.11389     11.11389        -0.085405      0.022447     -0.223213
     12.68331      2.11389      9.00000        -0.280314     -0.075402      0.257373
     14.79720      0.00000      9.00000        -0.113823      0.020327      0.245510
     12.68331      4.22777     11.11389        -0.154435     -0.081684     -0.191817
     14.79720      6.34166     11.11389         0.221603      0.219388     -0.285786
     12.68331      6.34166      9.00000         0.053025      0.017929      0.151535
     14.79720      4.22777      9.00000         0.064346      0.117804     -0.131649
     12.68331      8.45554     11.11389         0.235838      0.061598     -0.214937
     14.79720     10.56943     11.11389         0.334130     -0.097537     -0.325972
     12.68331     10.56943      9.00000         0.304056     -0.028864     -0.126464
     14.79720      8.45554      9.00000         0.397188      0.152055      0.076074
     12.68331     12.68331     11.11389         0.415018     -0.057709     -0.271859
     14.79720     14.79720     11.11389         0.054038     -0.209454     -0.114869
     12.68331     14.79720      9.00000         0.017909     -0.086388      0.093864
     14.79720     12.68331      9.00000         0.202164     -0.283113     -0.109883
     12.68331     16.91108     11.11389        -0.104006      0.031748     -0.208531
     14.79720     19.02497     11.11389        -0.099160      0.041386     -0.226881
     12.68331     19.02497      9.00000        -0.186486      0.154975      0.145934
     14.79720     16.91108      9.00000        -0.015511     -0.012756      0.221308
     16.91108      0.00000     11.11389         0.019320     -0.000861     -0.157713
     19.02497      2.11389     11.11389         0.006511      0.059548     -0.228626
     16.91108      2.11389      9.00000         0.055384      0.078383      0.060079
     19.02497      0.00000      9.00000         0.028885      0.045920      0.225614
     16.91108      4.22777     11.11389         0.062038      0.253844     -0.285718
     19.02497      6.34166     11.11389        -0.204011      0.296014     -0.376596
     16.91108      6.34166      9.00000         0.119953      0.360780      0.278776
     19.02497      4.22777      9.00000        -0.068808      0.227463      0.113871
     16.91108      8.45554     11.11389         0.074333      0.140020     -0.392501
     19.02497     10.56943     11.11389        -0.302676     -0.202925     -0.373145
     16.91108     10.56943      9.00000         0.025775     -0.191967     -0.066814
     19.02497      8.45554      9.00000        -0.302174      0.092653      0.303042
     16.91108     12.68331     11.11389        -0.024337     -0.356150     -0.244535
     19.02497     14.79720     11.11389        -0.063209     -0.188177     -0.161370
     16.91108     14.79720      9.00000        -0.007383     -0.260824      0.307127
     19.02497     12.68331      9.00000        -0.177044     -0.291817      0.069161
     16.91108     16.91108     11.11389        -0.007000     -0.053836     -0.175294
     19.02497     19.02497     11.11389         0.027293      0.048088     -0.195753
     16.91108     19.02497      9.00000         0.004735      0.029584      0.105630
     19.02497     16.91108      9.00000        -0.007704     -0.058590      0.223399
 -----------------------------------------------------------------------------------
    total drift:                               -0.064866      0.248036     85.882051


--------------------------------------------------------------------------------------------------------



  FREE ENERGIE OF THE ION-ELECTRON SYSTEM (eV)
  ---------------------------------------------------
  free  energy   TOTEN  =     -1737.08914980 eV

  energy  without entropy=    -1737.08317169  energy(sigma->0) =    -1737.08616074
 


--------------------------------------------------------------------------------------------------------


    POTLOK:  cpu time      6.5840: real time      6.5890


--------------------------------------------------------------------------------------------------------


     LOOP+:  cpu time  19016.6080: real time  19030.7699
    4ORBIT:  cpu time      0.0000: real time      0.0000

 total amount of memory used by VASP MPI-rank0   116895. kBytes
=======================================================================

   base      :      30000. kBytes
   nonlr-proj:      26285. kBytes
   fftplans  :      11482. kBytes
   grid      :      27155. kBytes
   one-center:        202. kBytes
   wavefun   :      21771. kBytes
 
  
  
 General timing and accounting informations for this job:
 ========================================================
  
                  Total CPU time used (sec):    19063.371
                            User time (sec):    19034.098
                          System time (sec):       29.273
                         Elapsed time (sec):    19078.140
  
                   Maximum memory used (kb):      884436.
                   Average memory used (kb):          N/A
  
                          Minor page faults:        97122
                          Major page faults:            0
                 Voluntary context switches:       342741
