 **********************************************************************
                          MRCC program system
 **********************************************************************
 
                              Written by
     Mihaly Kallay, Peter R. Nagy, David Mester, Laszlo Gyevi-Nagy,
        Jozsef Csoka, P. Bernat Szabo, Zoltan Rolik, Gyula Samu,
     Jozsef Csontos, Bence Hegely, Adam Ganyecz, Istvan Ladjanszki,
       Lorant Szegedy, Bence Ladoczki, Klara Petrov, Mate Farkas,
                    Pal D. Mezei, and Reka A. Horvath
 
        Department of Physical Chemistry and Materials Science
            Budapest University of Technology and Economics
                  Budapest P.O.Box 91, H-1521 Hungary
 
                              www.mrcc.hu
 
                      Release date: March 18, 2022

 ************************ 2022-11-12 10:18:22 *************************
 Executing minp...

 Reading input from MINP...
 
 Input file:
 
calc=FNO-CCSD(T)
scftyp=uhf
verbosity=3
mem=150GB
unit=angs
scfiguess=small
scfalg=locfit1
lcorthr=tight
ccmaxit=400
ccsdalg=dfdirect
ccsdthreads=4
ccsdmkl=thr
ptthreads=4
lnoepsv=1e-5
naf_cor=1e-2
ECP=MCDHF-ECP-10
basis=bse_ACVTZ
basis_sm=def2-SVP
dfbasis_scf=def2-QZVPP-RI-JK
dfbasis_cor=bse_ACVTZ_mp2fit
mult=2
core=0
unit=angs
geom=xyz
4
Cu4
Cu    -0.79550424     2.19091526    -0.08195085
Cu    -1.03012119    -2.19091526    -0.91001768
Cu    -0.43608716    -0.14643675    -0.22475424
Cu     1.03012119     1.32773866     0.91001768

ghost=serialno
1,3,4
 
 
 Checking keyword combinations...
 
 Keywords:
 
 active=none
 agrid=ld0006-ld0590
 agrid_pssp=ld0006-ld0194
 agrid_pssp_sm=ld0006-ld0074
 basis=bse_acvtz
 basis_sm=def2-svp
 basopt=off
 bfbasis=none
 bfgsmem=10
 bfgstol=1.0d-3
 bpcompo=0.985
 bpcompv=0.98
 bpdfo=0.985
 bpocc=0.985
 bppdo=0.985
 bppdv=0.98
 bpedo=0.985
 bpedv=0.98
 calc=ccsd(t)
 ccmaxit=400
 ccprog=ccsd
 ccsdalg=dfdirect
 ccsdmkl=thr
 ccsdrest=trf
 ccsdthreads=4
 cctol=6
 charge=0
 cialg=auto
 ciguess=off
 cmpgrp=auto
 comprest=off
 core=corr
 corembed=off
 csapprox=off
 cvs=off
 dboc=off
 delocsomofact=
 dendec=cholesky
 dens=0
 dfalg=lineq
 dfbasis_cab=none
 dfbasis_cor=bse_acvtz_mp2fit
 dfbasis_scf=def2-qzvpp-ri-jk
 dfbasis_scf_sm=def2-qzvpp-ri-jk
 dfintran=drpa
 dft=off
 dhexc=adc(2)
 diag=david
 docc=
 domrad=10.d0
 drpaalg=fit
 dual=off
 dual_df=off
 ecp=mcdhf-ecp-10
 edisp=off
 edisp_embed=off
 embed=off
 etemp=300
 epert=none
 eps=
 espcharge=off
 excrad=1.0
 excrad_fin=0.100000000D-02
 fitting=coulomb
 fmm=off
 fmmord=8
 freq=off
 gamma=1.d0
 gauss=spher
 geom=xyz
 gopt=off
 ghost=serialno
 gtol=7
 grdens=off
 gridbatch_cos=2000
 grtol=10
 guido_ct=off
 hamilton=dc
 iface=none
 intalg=auto
 itol=10
 laptol=1.d-3
 lccoporder=trffirst
 lcorthr=tight
 lccrest=off
 lmp2dens=on
 lnoepso=0.d0
 lnoepsv=1e-5
 boysalg=jacobi
 localcc=off
 localcorrsymm=off
 locintrf=disk
 mact=
 maxact=off
 maxdim=100
 maxex=0
 maxmicroit=100
 mcscfiguess=hf
 mem=150gb
 mmprog=
 molden=on
 mpitasks=1
 mulmet=0
 mult=2
 nacto=0
 nactv=0
 naf_amp=1.d-2
 naf_cor=1e-2
 naf_scf=off
 nafalg=albe
 naftyp=
 nchol=auto
 ndeps=1e-3
 nstate=1
 nsing=0
 nto=off
 ntrip=0
 occ=
 occri=off
 oniom=off
 oniom_eechg=off
 oniom_pcm=off
 oniom_qcorr=off
 optalg=
 optmaxit=50
 optetol=1e-6
 optex=0
 optgtol=1e-4
 optstol=1e-3
 orblocc=off
 orbloce=off
 orbloco=off
 orblocv=off
 orblocguess=cholesky
 osveps=1e-4
 ovirt=ppl
 ovltol=1e-7
 ovosnorb=80.0
 pcm=off
 popul=off
 pressure=100000
 pssp=off
 ptfreq=0.0
 ptthreads=4
 qro=off
 qscf=off
 qmmm=off
 redcost_exc=off
 redcost_tddft=off
 refdet=none
 rest=0
 rgrid=log3
 rism=off
 rohfcore=semicanonical
 rohftype=semicanonical
 scfalg=locfit1
 scf_conv=difficult
 scfdamp=0.0d0
 scfdamp_mode=off
 scfdamp_end=50
 scfdamp_dampstep=0.d0
 scfdamp_dtol=0.0d0
 scfdamp_maxfact=0.0d0
 scfdamp_minfact=0.0d0
 scfdiis=on
 scfdiis_dtol=0.0d0
 scfdiis_end=50
 scfdiis_start=2
 scfdiis_step=1
 scfdiis_watch=off
 scfdiis_wrange=10
 scfdiis_wlimit=5
 scfdiis_delmax=2
 scfdtol=7
 scfext=10
 scfguessdens=
 scfiguess=small
 scfloc=pm
 scflshift=0.20
 scflshift_end=8
 scflshift_dtol=0.0
 scflshift_gaptol=0.20
 scfmaxit=50
 scftype=uhf
 scftol=6
 scspe=1.d0
 scsph=1.d0
 scsps=1.2d0
 scsps_t=1.2d0
 scspt=0.33333333333333
 scspt_t=0.33333333333333
 scspv=1.d0
 spairtol=1e-5
 sqmprog=
 subminp=top
 symm=
 talg=occ
 temp=298.15
 test=off
 theodore=off
 tlmo=0.999
 tpao=0.94
 tprint=off
 uncontract=off
 unit=angs
 usedisk=2
 verbosity=3
 wpairtol=0.100000000E-06
 
 Calculating integrals for small-basis SCF...

 ************************ 2022-11-12 10:18:22 *************************
 Executing integ...

 Allocation of 150.0 Gbytes of memory...
 
 
 Number of atoms:                  4
 Charge:                           0
 Number of electrons:             19
 Number of core electrons:         8
 Spin multiplicity:                2
 
                 Cartesian coordinates [bohr]      Atomic mass [AMU]  Z
   1  Cu   -1.50328515    4.14022981   -0.15486466     0.000000       0
   2  Cu   -1.94664693   -4.14022981   -1.71968418    62.929599      29
   3  Cu   -0.82408530   -0.27672535   -0.42472396     0.000000       0
   4  Cu    1.94664693    2.50906243    1.71968418     0.000000       0
 
 This molecule is an asymmetric top.
 This molecule is planar.
 
 Point group: C1  
 Computational point group: C1  
 
 Cartesian coordinates in standard orientation [bohr]
   1  Cu   -6.58508181   -2.12580685    0.00004141
   2  Cu    1.58145466   -0.00003093    0.00000772
   3  Cu   -2.64509632    0.00025608   -0.00016004
   4  Cu   -6.58436844    2.12586002    0.00004143
 
 Nuclear repulsion energy [au]:          0.000000000000
 
 
 Basis set information:
 
 Maximum angular momentum: i
 Maximum number of contracted Gaussians:   16
 Maximum number of primitive Gaussians:    19
 Spherical harmonic GTOs are used.
 
 
 Conventional basis set:
 
   1  Cu def2-svp [ 14s 9p 5d 1f | 5s 3p 2d 1f ]
   2  Cu def2-svp [ 14s 9p 5d 1f | 5s 3p 2d 1f ]
   3  Cu def2-svp [ 14s 9p 5d 1f | 5s 3p 2d 1f ]
   4  Cu def2-svp [ 14s 9p 5d 1f | 5s 3p 2d 1f ]
 
 Basis functions:
            1             2             3             4             5             6             7             8             9            10
    0    1Cu1s         1Cu2s         1Cu3s         1Cu4s         1Cu5s         1Cu1pz        1Cu1py        1Cu1px        1Cu2pz        1Cu2py    
    1    1Cu2px        1Cu3pz        1Cu3py        1Cu3px        1Cu1d-2       1Cu1d-1       1Cu1d0        1Cu1d+1       1Cu1d+2       1Cu2d-2   
    2    1Cu2d-1       1Cu2d0        1Cu2d+1       1Cu2d+2       1Cu1f-3       1Cu1f-2       1Cu1f-1       1Cu1f0        1Cu1f+1       1Cu1f+2   
    3    1Cu1f+3       2Cu1s         2Cu2s         2Cu3s         2Cu4s         2Cu5s         2Cu1pz        2Cu1py        2Cu1px        2Cu2pz    
    4    2Cu2py        2Cu2px        2Cu3pz        2Cu3py        2Cu3px        2Cu1d-2       2Cu1d-1       2Cu1d0        2Cu1d+1       2Cu1d+2   
    5    2Cu2d-2       2Cu2d-1       2Cu2d0        2Cu2d+1       2Cu2d+2       2Cu1f-3       2Cu1f-2       2Cu1f-1       2Cu1f0        2Cu1f+1   
    6    2Cu1f+2       2Cu1f+3       3Cu1s         3Cu2s         3Cu3s         3Cu4s         3Cu5s         3Cu1pz        3Cu1py        3Cu1px    
    7    3Cu2pz        3Cu2py        3Cu2px        3Cu3pz        3Cu3py        3Cu3px        3Cu1d-2       3Cu1d-1       3Cu1d0        3Cu1d+1   
    8    3Cu1d+2       3Cu2d-2       3Cu2d-1       3Cu2d0        3Cu2d+1       3Cu2d+2       3Cu1f-3       3Cu1f-2       3Cu1f-1       3Cu1f0    
    9    3Cu1f+1       3Cu1f+2       3Cu1f+3       4Cu1s         4Cu2s         4Cu3s         4Cu4s         4Cu5s         4Cu1pz        4Cu1py    
   10    4Cu1px        4Cu2pz        4Cu2py        4Cu2px        4Cu3pz        4Cu3py        4Cu3px        4Cu1d-2       4Cu1d-1       4Cu1d0    
   11    4Cu1d+1       4Cu1d+2       4Cu2d-2       4Cu2d-1       4Cu2d0        4Cu2d+1       4Cu2d+2       4Cu1f-3       4Cu1f-2       4Cu1f-1   
   12    4Cu1f0        4Cu1f+1       4Cu1f+2       4Cu1f+3   
 
 Maximum number of basis functions per shell:   10
 Total number of basis functions:    124
 
 
 Fitting basis set for the SCF calculation:
 
   1  Cu def2-qzvpp-ri-jk [ 19s 14p 12d 10f 7g 3h 1i | 16s 13p 11d 9f 5g 3h 1i ]
   2  Cu def2-qzvpp-ri-jk [ 19s 14p 12d 10f 7g 3h 1i | 16s 13p 11d 9f 5g 3h 1i ]
   3  Cu def2-qzvpp-ri-jk [ 19s 14p 12d 10f 7g 3h 1i | 16s 13p 11d 9f 5g 3h 1i ]
   4  Cu def2-qzvpp-ri-jk [ 19s 14p 12d 10f 7g 3h 1i | 16s 13p 11d 9f 5g 3h 1i ]
 
 Basis functions:
            1             2             3             4             5             6             7             8             9            10
    0    1Cu1s         1Cu2s         1Cu3s         1Cu4s         1Cu5s         1Cu6s         1Cu7s         1Cu8s         1Cu9s         1Cu10s    
    1    1Cu11s        1Cu12s        1Cu13s        1Cu14s        1Cu15s        1Cu16s        1Cu1pz        1Cu1py        1Cu1px        1Cu2pz    
    2    1Cu2py        1Cu2px        1Cu3pz        1Cu3py        1Cu3px        1Cu4pz        1Cu4py        1Cu4px        1Cu5pz        1Cu5py    
    3    1Cu5px        1Cu6pz        1Cu6py        1Cu6px        1Cu7pz        1Cu7py        1Cu7px        1Cu8pz        1Cu8py        1Cu8px    
    4    1Cu9pz        1Cu9py        1Cu9px        1Cu10pz       1Cu10py       1Cu10px       1Cu11pz       1Cu11py       1Cu11px       1Cu12pz   
    5    1Cu12py       1Cu12px       1Cu13pz       1Cu13py       1Cu13px       1Cu1d-2       1Cu1d-1       1Cu1d0        1Cu1d+1       1Cu1d+2   
    6    1Cu2d-2       1Cu2d-1       1Cu2d0        1Cu2d+1       1Cu2d+2       1Cu3d-2       1Cu3d-1       1Cu3d0        1Cu3d+1       1Cu3d+2   
    7    1Cu4d-2       1Cu4d-1       1Cu4d0        1Cu4d+1       1Cu4d+2       1Cu5d-2       1Cu5d-1       1Cu5d0        1Cu5d+1       1Cu5d+2   
    8    1Cu6d-2       1Cu6d-1       1Cu6d0        1Cu6d+1       1Cu6d+2       1Cu7d-2       1Cu7d-1       1Cu7d0        1Cu7d+1       1Cu7d+2   
    9    1Cu8d-2       1Cu8d-1       1Cu8d0        1Cu8d+1       1Cu8d+2       1Cu9d-2       1Cu9d-1       1Cu9d0        1Cu9d+1       1Cu9d+2   
   10    1Cu10d-2      1Cu10d-1      1Cu10d0       1Cu10d+1      1Cu10d+2      1Cu11d-2      1Cu11d-1      1Cu11d0       1Cu11d+1      1Cu11d+2  
   11    1Cu1f-3       1Cu1f-2       1Cu1f-1       1Cu1f0        1Cu1f+1       1Cu1f+2       1Cu1f+3       1Cu2f-3       1Cu2f-2       1Cu2f-1   
   12    1Cu2f0        1Cu2f+1       1Cu2f+2       1Cu2f+3       1Cu3f-3       1Cu3f-2       1Cu3f-1       1Cu3f0        1Cu3f+1       1Cu3f+2   
   13    1Cu3f+3       1Cu4f-3       1Cu4f-2       1Cu4f-1       1Cu4f0        1Cu4f+1       1Cu4f+2       1Cu4f+3       1Cu5f-3       1Cu5f-2   
   14    1Cu5f-1       1Cu5f0        1Cu5f+1       1Cu5f+2       1Cu5f+3       1Cu6f-3       1Cu6f-2       1Cu6f-1       1Cu6f0        1Cu6f+1   
   15    1Cu6f+2       1Cu6f+3       1Cu7f-3       1Cu7f-2       1Cu7f-1       1Cu7f0        1Cu7f+1       1Cu7f+2       1Cu7f+3       1Cu8f-3   
   16    1Cu8f-2       1Cu8f-1       1Cu8f0        1Cu8f+1       1Cu8f+2       1Cu8f+3       1Cu9f-3       1Cu9f-2       1Cu9f-1       1Cu9f0    
   17    1Cu9f+1       1Cu9f+2       1Cu9f+3       1Cu1g-4       1Cu1g-3       1Cu1g-2       1Cu1g-1       1Cu1g0        1Cu1g+1       1Cu1g+2   
   18    1Cu1g+3       1Cu1g+4       1Cu2g-4       1Cu2g-3       1Cu2g-2       1Cu2g-1       1Cu2g0        1Cu2g+1       1Cu2g+2       1Cu2g+3   
   19    1Cu2g+4       1Cu3g-4       1Cu3g-3       1Cu3g-2       1Cu3g-1       1Cu3g0        1Cu3g+1       1Cu3g+2       1Cu3g+3       1Cu3g+4   
   20    1Cu4g-4       1Cu4g-3       1Cu4g-2       1Cu4g-1       1Cu4g0        1Cu4g+1       1Cu4g+2       1Cu4g+3       1Cu4g+4       1Cu5g-4   
   21    1Cu5g-3       1Cu5g-2       1Cu5g-1       1Cu5g0        1Cu5g+1       1Cu5g+2       1Cu5g+3       1Cu5g+4       1Cu1h-5       1Cu1h-4   
   22    1Cu1h-3       1Cu1h-2       1Cu1h-1       1Cu1h0        1Cu1h+1       1Cu1h+2       1Cu1h+3       1Cu1h+4       1Cu1h+5       1Cu2h-5   
   23    1Cu2h-4       1Cu2h-3       1Cu2h-2       1Cu2h-1       1Cu2h0        1Cu2h+1       1Cu2h+2       1Cu2h+3       1Cu2h+4       1Cu2h+5   
   24    1Cu3h-5       1Cu3h-4       1Cu3h-3       1Cu3h-2       1Cu3h-1       1Cu3h0        1Cu3h+1       1Cu3h+2       1Cu3h+3       1Cu3h+4   
   25    1Cu3h+5       1Cu1i-6       1Cu1i-5       1Cu1i-4       1Cu1i-3       1Cu1i-2       1Cu1i-1       1Cu1i0        1Cu1i+1       1Cu1i+2   
   26    1Cu1i+3       1Cu1i+4       1Cu1i+5       1Cu1i+6       2Cu1s         2Cu2s         2Cu3s         2Cu4s         2Cu5s         2Cu6s     
   27    2Cu7s         2Cu8s         2Cu9s         2Cu10s        2Cu11s        2Cu12s        2Cu13s        2Cu14s        2Cu15s        2Cu16s    
   28    2Cu1pz        2Cu1py        2Cu1px        2Cu2pz        2Cu2py        2Cu2px        2Cu3pz        2Cu3py        2Cu3px        2Cu4pz    
   29    2Cu4py        2Cu4px        2Cu5pz        2Cu5py        2Cu5px        2Cu6pz        2Cu6py        2Cu6px        2Cu7pz        2Cu7py    
   30    2Cu7px        2Cu8pz        2Cu8py        2Cu8px        2Cu9pz        2Cu9py        2Cu9px        2Cu10pz       2Cu10py       2Cu10px   
   31    2Cu11pz       2Cu11py       2Cu11px       2Cu12pz       2Cu12py       2Cu12px       2Cu13pz       2Cu13py       2Cu13px       2Cu1d-2   
   32    2Cu1d-1       2Cu1d0        2Cu1d+1       2Cu1d+2       2Cu2d-2       2Cu2d-1       2Cu2d0        2Cu2d+1       2Cu2d+2       2Cu3d-2   
   33    2Cu3d-1       2Cu3d0        2Cu3d+1       2Cu3d+2       2Cu4d-2       2Cu4d-1       2Cu4d0        2Cu4d+1       2Cu4d+2       2Cu5d-2   
   34    2Cu5d-1       2Cu5d0        2Cu5d+1       2Cu5d+2       2Cu6d-2       2Cu6d-1       2Cu6d0        2Cu6d+1       2Cu6d+2       2Cu7d-2   
   35    2Cu7d-1       2Cu7d0        2Cu7d+1       2Cu7d+2       2Cu8d-2       2Cu8d-1       2Cu8d0        2Cu8d+1       2Cu8d+2       2Cu9d-2   
   36    2Cu9d-1       2Cu9d0        2Cu9d+1       2Cu9d+2       2Cu10d-2      2Cu10d-1      2Cu10d0       2Cu10d+1      2Cu10d+2      2Cu11d-2  
   37    2Cu11d-1      2Cu11d0       2Cu11d+1      2Cu11d+2      2Cu1f-3       2Cu1f-2       2Cu1f-1       2Cu1f0        2Cu1f+1       2Cu1f+2   
   38    2Cu1f+3       2Cu2f-3       2Cu2f-2       2Cu2f-1       2Cu2f0        2Cu2f+1       2Cu2f+2       2Cu2f+3       2Cu3f-3       2Cu3f-2   
   39    2Cu3f-1       2Cu3f0        2Cu3f+1       2Cu3f+2       2Cu3f+3       2Cu4f-3       2Cu4f-2       2Cu4f-1       2Cu4f0        2Cu4f+1   
   40    2Cu4f+2       2Cu4f+3       2Cu5f-3       2Cu5f-2       2Cu5f-1       2Cu5f0        2Cu5f+1       2Cu5f+2       2Cu5f+3       2Cu6f-3   
   41    2Cu6f-2       2Cu6f-1       2Cu6f0        2Cu6f+1       2Cu6f+2       2Cu6f+3       2Cu7f-3       2Cu7f-2       2Cu7f-1       2Cu7f0    
   42    2Cu7f+1       2Cu7f+2       2Cu7f+3       2Cu8f-3       2Cu8f-2       2Cu8f-1       2Cu8f0        2Cu8f+1       2Cu8f+2       2Cu8f+3   
   43    2Cu9f-3       2Cu9f-2       2Cu9f-1       2Cu9f0        2Cu9f+1       2Cu9f+2       2Cu9f+3       2Cu1g-4       2Cu1g-3       2Cu1g-2   
   44    2Cu1g-1       2Cu1g0        2Cu1g+1       2Cu1g+2       2Cu1g+3       2Cu1g+4       2Cu2g-4       2Cu2g-3       2Cu2g-2       2Cu2g-1   
   45    2Cu2g0        2Cu2g+1       2Cu2g+2       2Cu2g+3       2Cu2g+4       2Cu3g-4       2Cu3g-3       2Cu3g-2       2Cu3g-1       2Cu3g0    
   46    2Cu3g+1       2Cu3g+2       2Cu3g+3       2Cu3g+4       2Cu4g-4       2Cu4g-3       2Cu4g-2       2Cu4g-1       2Cu4g0        2Cu4g+1   
   47    2Cu4g+2       2Cu4g+3       2Cu4g+4       2Cu5g-4       2Cu5g-3       2Cu5g-2       2Cu5g-1       2Cu5g0        2Cu5g+1       2Cu5g+2   
   48    2Cu5g+3       2Cu5g+4       2Cu1h-5       2Cu1h-4       2Cu1h-3       2Cu1h-2       2Cu1h-1       2Cu1h0        2Cu1h+1       2Cu1h+2   
   49    2Cu1h+3       2Cu1h+4       2Cu1h+5       2Cu2h-5       2Cu2h-4       2Cu2h-3       2Cu2h-2       2Cu2h-1       2Cu2h0        2Cu2h+1   
   50    2Cu2h+2       2Cu2h+3       2Cu2h+4       2Cu2h+5       2Cu3h-5       2Cu3h-4       2Cu3h-3       2Cu3h-2       2Cu3h-1       2Cu3h0    
   51    2Cu3h+1       2Cu3h+2       2Cu3h+3       2Cu3h+4       2Cu3h+5       2Cu1i-6       2Cu1i-5       2Cu1i-4       2Cu1i-3       2Cu1i-2   
   52    2Cu1i-1       2Cu1i0        2Cu1i+1       2Cu1i+2       2Cu1i+3       2Cu1i+4       2Cu1i+5       2Cu1i+6       3Cu1s         3Cu2s     
   53    3Cu3s         3Cu4s         3Cu5s         3Cu6s         3Cu7s         3Cu8s         3Cu9s         3Cu10s        3Cu11s        3Cu12s    
   54    3Cu13s        3Cu14s        3Cu15s        3Cu16s        3Cu1pz        3Cu1py        3Cu1px        3Cu2pz        3Cu2py        3Cu2px    
   55    3Cu3pz        3Cu3py        3Cu3px        3Cu4pz        3Cu4py        3Cu4px        3Cu5pz        3Cu5py        3Cu5px        3Cu6pz    
   56    3Cu6py        3Cu6px        3Cu7pz        3Cu7py        3Cu7px        3Cu8pz        3Cu8py        3Cu8px        3Cu9pz        3Cu9py    
   57    3Cu9px        3Cu10pz       3Cu10py       3Cu10px       3Cu11pz       3Cu11py       3Cu11px       3Cu12pz       3Cu12py       3Cu12px   
   58    3Cu13pz       3Cu13py       3Cu13px       3Cu1d-2       3Cu1d-1       3Cu1d0        3Cu1d+1       3Cu1d+2       3Cu2d-2       3Cu2d-1   
   59    3Cu2d0        3Cu2d+1       3Cu2d+2       3Cu3d-2       3Cu3d-1       3Cu3d0        3Cu3d+1       3Cu3d+2       3Cu4d-2       3Cu4d-1   
   60    3Cu4d0        3Cu4d+1       3Cu4d+2       3Cu5d-2       3Cu5d-1       3Cu5d0        3Cu5d+1       3Cu5d+2       3Cu6d-2       3Cu6d-1   
   61    3Cu6d0        3Cu6d+1       3Cu6d+2       3Cu7d-2       3Cu7d-1       3Cu7d0        3Cu7d+1       3Cu7d+2       3Cu8d-2       3Cu8d-1   
   62    3Cu8d0        3Cu8d+1       3Cu8d+2       3Cu9d-2       3Cu9d-1       3Cu9d0        3Cu9d+1       3Cu9d+2       3Cu10d-2      3Cu10d-1  
   63    3Cu10d0       3Cu10d+1      3Cu10d+2      3Cu11d-2      3Cu11d-1      3Cu11d0       3Cu11d+1      3Cu11d+2      3Cu1f-3       3Cu1f-2   
   64    3Cu1f-1       3Cu1f0        3Cu1f+1       3Cu1f+2       3Cu1f+3       3Cu2f-3       3Cu2f-2       3Cu2f-1       3Cu2f0        3Cu2f+1   
   65    3Cu2f+2       3Cu2f+3       3Cu3f-3       3Cu3f-2       3Cu3f-1       3Cu3f0        3Cu3f+1       3Cu3f+2       3Cu3f+3       3Cu4f-3   
   66    3Cu4f-2       3Cu4f-1       3Cu4f0        3Cu4f+1       3Cu4f+2       3Cu4f+3       3Cu5f-3       3Cu5f-2       3Cu5f-1       3Cu5f0    
   67    3Cu5f+1       3Cu5f+2       3Cu5f+3       3Cu6f-3       3Cu6f-2       3Cu6f-1       3Cu6f0        3Cu6f+1       3Cu6f+2       3Cu6f+3   
   68    3Cu7f-3       3Cu7f-2       3Cu7f-1       3Cu7f0        3Cu7f+1       3Cu7f+2       3Cu7f+3       3Cu8f-3       3Cu8f-2       3Cu8f-1   
   69    3Cu8f0        3Cu8f+1       3Cu8f+2       3Cu8f+3       3Cu9f-3       3Cu9f-2       3Cu9f-1       3Cu9f0        3Cu9f+1       3Cu9f+2   
   70    3Cu9f+3       3Cu1g-4       3Cu1g-3       3Cu1g-2       3Cu1g-1       3Cu1g0        3Cu1g+1       3Cu1g+2       3Cu1g+3       3Cu1g+4   
   71    3Cu2g-4       3Cu2g-3       3Cu2g-2       3Cu2g-1       3Cu2g0        3Cu2g+1       3Cu2g+2       3Cu2g+3       3Cu2g+4       3Cu3g-4   
   72    3Cu3g-3       3Cu3g-2       3Cu3g-1       3Cu3g0        3Cu3g+1       3Cu3g+2       3Cu3g+3       3Cu3g+4       3Cu4g-4       3Cu4g-3   
   73    3Cu4g-2       3Cu4g-1       3Cu4g0        3Cu4g+1       3Cu4g+2       3Cu4g+3       3Cu4g+4       3Cu5g-4       3Cu5g-3       3Cu5g-2   
   74    3Cu5g-1       3Cu5g0        3Cu5g+1       3Cu5g+2       3Cu5g+3       3Cu5g+4       3Cu1h-5       3Cu1h-4       3Cu1h-3       3Cu1h-2   
   75    3Cu1h-1       3Cu1h0        3Cu1h+1       3Cu1h+2       3Cu1h+3       3Cu1h+4       3Cu1h+5       3Cu2h-5       3Cu2h-4       3Cu2h-3   
   76    3Cu2h-2       3Cu2h-1       3Cu2h0        3Cu2h+1       3Cu2h+2       3Cu2h+3       3Cu2h+4       3Cu2h+5       3Cu3h-5       3Cu3h-4   
   77    3Cu3h-3       3Cu3h-2       3Cu3h-1       3Cu3h0        3Cu3h+1       3Cu3h+2       3Cu3h+3       3Cu3h+4       3Cu3h+5       3Cu1i-6   
   78    3Cu1i-5       3Cu1i-4       3Cu1i-3       3Cu1i-2       3Cu1i-1       3Cu1i0        3Cu1i+1       3Cu1i+2       3Cu1i+3       3Cu1i+4   
   79    3Cu1i+5       3Cu1i+6       4Cu1s         4Cu2s         4Cu3s         4Cu4s         4Cu5s         4Cu6s         4Cu7s         4Cu8s     
   80    4Cu9s         4Cu10s        4Cu11s        4Cu12s        4Cu13s        4Cu14s        4Cu15s        4Cu16s        4Cu1pz        4Cu1py    
   81    4Cu1px        4Cu2pz        4Cu2py        4Cu2px        4Cu3pz        4Cu3py        4Cu3px        4Cu4pz        4Cu4py        4Cu4px    
   82    4Cu5pz        4Cu5py        4Cu5px        4Cu6pz        4Cu6py        4Cu6px        4Cu7pz        4Cu7py        4Cu7px        4Cu8pz    
   83    4Cu8py        4Cu8px        4Cu9pz        4Cu9py        4Cu9px        4Cu10pz       4Cu10py       4Cu10px       4Cu11pz       4Cu11py   
   84    4Cu11px       4Cu12pz       4Cu12py       4Cu12px       4Cu13pz       4Cu13py       4Cu13px       4Cu1d-2       4Cu1d-1       4Cu1d0    
   85    4Cu1d+1       4Cu1d+2       4Cu2d-2       4Cu2d-1       4Cu2d0        4Cu2d+1       4Cu2d+2       4Cu3d-2       4Cu3d-1       4Cu3d0    
   86    4Cu3d+1       4Cu3d+2       4Cu4d-2       4Cu4d-1       4Cu4d0        4Cu4d+1       4Cu4d+2       4Cu5d-2       4Cu5d-1       4Cu5d0    
   87    4Cu5d+1       4Cu5d+2       4Cu6d-2       4Cu6d-1       4Cu6d0        4Cu6d+1       4Cu6d+2       4Cu7d-2       4Cu7d-1       4Cu7d0    
   88    4Cu7d+1       4Cu7d+2       4Cu8d-2       4Cu8d-1       4Cu8d0        4Cu8d+1       4Cu8d+2       4Cu9d-2       4Cu9d-1       4Cu9d0    
   89    4Cu9d+1       4Cu9d+2       4Cu10d-2      4Cu10d-1      4Cu10d0       4Cu10d+1      4Cu10d+2      4Cu11d-2      4Cu11d-1      4Cu11d0   
   90    4Cu11d+1      4Cu11d+2      4Cu1f-3       4Cu1f-2       4Cu1f-1       4Cu1f0        4Cu1f+1       4Cu1f+2       4Cu1f+3       4Cu2f-3   
   91    4Cu2f-2       4Cu2f-1       4Cu2f0        4Cu2f+1       4Cu2f+2       4Cu2f+3       4Cu3f-3       4Cu3f-2       4Cu3f-1       4Cu3f0    
   92    4Cu3f+1       4Cu3f+2       4Cu3f+3       4Cu4f-3       4Cu4f-2       4Cu4f-1       4Cu4f0        4Cu4f+1       4Cu4f+2       4Cu4f+3   
   93    4Cu5f-3       4Cu5f-2       4Cu5f-1       4Cu5f0        4Cu5f+1       4Cu5f+2       4Cu5f+3       4Cu6f-3       4Cu6f-2       4Cu6f-1   
   94    4Cu6f0        4Cu6f+1       4Cu6f+2       4Cu6f+3       4Cu7f-3       4Cu7f-2       4Cu7f-1       4Cu7f0        4Cu7f+1       4Cu7f+2   
   95    4Cu7f+3       4Cu8f-3       4Cu8f-2       4Cu8f-1       4Cu8f0        4Cu8f+1       4Cu8f+2       4Cu8f+3       4Cu9f-3       4Cu9f-2   
   96    4Cu9f-1       4Cu9f0        4Cu9f+1       4Cu9f+2       4Cu9f+3       4Cu1g-4       4Cu1g-3       4Cu1g-2       4Cu1g-1       4Cu1g0    
   97    4Cu1g+1       4Cu1g+2       4Cu1g+3       4Cu1g+4       4Cu2g-4       4Cu2g-3       4Cu2g-2       4Cu2g-1       4Cu2g0        4Cu2g+1   
   98    4Cu2g+2       4Cu2g+3       4Cu2g+4       4Cu3g-4       4Cu3g-3       4Cu3g-2       4Cu3g-1       4Cu3g0        4Cu3g+1       4Cu3g+2   
   99    4Cu3g+3       4Cu3g+4       4Cu4g-4       4Cu4g-3       4Cu4g-2       4Cu4g-1       4Cu4g0        4Cu4g+1       4Cu4g+2       4Cu4g+3   
  100    4Cu4g+4       4Cu5g-4       4Cu5g-3       4Cu5g-2       4Cu5g-1       4Cu5g0        4Cu5g+1       4Cu5g+2       4Cu5g+3       4Cu5g+4   
  101    4Cu1h-5       4Cu1h-4       4Cu1h-3       4Cu1h-2       4Cu1h-1       4Cu1h0        4Cu1h+1       4Cu1h+2       4Cu1h+3       4Cu1h+4   
  102    4Cu1h+5       4Cu2h-5       4Cu2h-4       4Cu2h-3       4Cu2h-2       4Cu2h-1       4Cu2h0        4Cu2h+1       4Cu2h+2       4Cu2h+3   
  103    4Cu2h+4       4Cu2h+5       4Cu3h-5       4Cu3h-4       4Cu3h-3       4Cu3h-2       4Cu3h-1       4Cu3h0        4Cu3h+1       4Cu3h+2   
  104    4Cu3h+3       4Cu3h+4       4Cu3h+5       4Cu1i-6       4Cu1i-5       4Cu1i-4       4Cu1i-3       4Cu1i-2       4Cu1i-1       4Cu1i0    
  105    4Cu1i+1       4Cu1i+2       4Cu1i+3       4Cu1i+4       4Cu1i+5       4Cu1i+6   
 
 Maximum number of basis functions per shell:   63
 Total number of basis functions:   1056
 
 
 Effective core potentials:
 
   2  Cu mcdhf-ecp-10        
 
 Initializing the SAD routines for the initial guess...
 Checking the files required for the initial guess...
 Atomic density files have been found for the atoms with the following serial numbers:
  
 Atomic density files have not been found for the atoms with the following serial numbers:
  2
 Generating SCFDENSITIES.Cu.def2-svp.0
 CPU time [min]:     0.078                   Wall time [min]:     0.171
 
 Character table for point group C1:
 
          E  
    A     1
 
 Number of basis functions per irrep:
    A     124
 
 
 Calculation of overlap integrals...
 CPU time [min]:     0.079                   Wall time [min]:     0.172
 
 Calculation of the square root of the overlap matrix...
 Minimum eigenvalue of the overlap matrix: 0.258902E-01
 CPU time [min]:     0.089                   Wall time [min]:     0.172
 
 Calculation of kinetic energy integrals...
 CPU time [min]:     0.090                   Wall time [min]:     0.172
 Calculation of dipole moment integrals...
 CPU time [min]:     0.091                   Wall time [min]:     0.172
 Calculation of nuclear attraction integrals...
 CPU time [min]:     0.093                   Wall time [min]:     0.173
 Calculation of core potential integrals...
 CPU time [min]:     0.165                   Wall time [min]:     0.188
 
 Calculation of prescreening integrals...
 CPU time [min]:     0.367                   Wall time [min]:     0.197
 
 Calculation of two-center Coulomb integrals...
   1% done.
  13% done.
  24% done.
  37% done.
  50% done.
  64% done.
  84% done.
  98% done.
 100% done.
 CPU time [min]:     0.379                   Wall time [min]:     0.198
 
 Cholesky decomposition of the two-center matrix...
 Reciprocal of the condition number:  0.751106E-05
 CPU time [min]:     0.419                   Wall time [min]:     0.200
 
 
 Running small-basis SCF...

 ************************ 2022-11-12 10:18:35 *************************
 Executing scf...

 @scfsetup: integrals calculated directly
            mrcc/integ direct run
 @scfsetup: calculating on full matrices
            not using symmetry adapted basis
 @scfsetup: diis switched on
 @scfsetup: number of steps to extrapolate from  10
 @scfsetup: tolerance in energy deviation    0.100000E-05
            tolerance in density deviation    0.100000E-06
 @scfsetup: maximum number of iterations:  50
 @scfsetup: unrestricted hf calc
 @scfsetup: starting scf from superposition of atomic densities
 @scfsetup: occupation set:
            from initial orbitals
 @scfsetup: Parameter-set for SCF acceleration: difficult
 @scfsetup: diis runs from iteration:   2
 @scfsetup: diis runs to iteration:  50
 @scfsetup: diis runs in every iteration
 @scfsetup: diiswatch is disabled                   
 @scfsetup: diis dtol criteria to switch on:      0.0000E+00
           (or the iteration number below is reached)
 @scfsetup: damping is turned off.
 @scfsetup: dynamic level shifting
            tolarance in HOMO-LUMO gap:  0.200
            tolarance in density deviation:     0.0000E+00
            iteration step criteria to turn level shifting off: 8
 Allocation of 150.0 Gbytes of memory...
 ======================================================================
 ITERATION STEP   1
 CPU time [min]:     0.017                   Wall time [min]:     0.006
 

 SCF control                  : initial
 Damping factor/level shift   : 0.000/0.200
 DIIS [start/end/frequency]   :   2 / 50 /  1

 Constructing alpha Fock-matrix...
 
 Pipek-Mezey localization...
 Step  Convergence
   1   0.034114709758
   2   0.019933140254
   3   0.000000001035
 CPU time [min]:     0.034                   Wall time [min]:     0.007
 
 Constructing local fitting domains...
 Maximum number of atoms in fitting domains:    4
 Average number of atoms in fitting domains:    4.0
 
 First step of Coulomb + first step of exchange...
 Exchange contribution is evaluated for MOs 1 to 10.
   1% done.
  13% done.
  25% done.
  38% done.
  56% done.
  75% done.
  89% done.
 100% done.
 CPU time [min]:     0.111                   Wall time [min]:     0.010
 
 Fitting and assembly step of exchange...
 CPU time [min]:     0.114                   Wall time [min]:     0.010
 
 Constructing beta Fock-matrix...
 
 Pipek-Mezey localization...
 Step  Convergence
   1   0.000000000000
 CPU time [min]:     0.126                   Wall time [min]:     0.011
 
 Constructing local fitting domains...
 Maximum number of atoms in fitting domains:    4
 Average number of atoms in fitting domains:    4.0
 
 Second step of Coulomb + first step of exchange...
 Exchange contribution is evaluated for MOs 1 to 9.
   1% done.
  13% done.
  25% done.
  38% done.
  56% done.
  75% done.
  89% done.
 100% done.
 CPU time [min]:     0.190                   Wall time [min]:     0.014
 
 Fitting and assembly step of exchange...
 CPU time [min]:     0.191                   Wall time [min]:     0.014
 
 Gradient norm:      2.4629E+00
 RMS of alpha [F,P] :                                  0.01682984738045
 RMS of beta  [F,P] :                                  0.01679102912900
 RMS of alpha difference density:                      0.18866929638317
 RMS of beta  difference density:                      0.17628426123240
 Gap [au]:  0.04876867
 ALPHA OCC:  10
 BETA  OCC:   9
 
 ***HARTREE-FOCK ENERGY IN STEP   1 IS       -192.2291502376932613 [AU]
 ======================================================================
 ITERATION STEP   2
 CPU time [min]:     0.202                   Wall time [min]:     0.014
 

 SCF control                  : diis
 Damping factor/level shift   : 0.000/0.200
 DIIS [start/end/frequency]   :   2 / 50 /  1

 Constructing alpha Fock-matrix...
 Inverse square root: The matrix is not positive definite!
 
 Pipek-Mezey localization...
 Step  Convergence
   1   2.125035238000
   2   1.488926088290
   3   0.381506278498
   4   0.016082401578
   5   0.000064377632
   6   0.000000806325
 CPU time [min]:     0.218                   Wall time [min]:     0.015
 
 Constructing local fitting domains...
 Maximum number of atoms in fitting domains:    4
 Average number of atoms in fitting domains:    4.0
 
 First step of Coulomb + first step of exchange...
 Exchange contribution is evaluated for MOs 1 to 10.
   1% done.
  13% done.
  25% done.
  38% done.
  56% done.
  75% done.
  89% done.
 100% done.
 CPU time [min]:     0.290                   Wall time [min]:     0.018
 
 Fitting and assembly step of exchange...
 CPU time [min]:     0.292                   Wall time [min]:     0.018
 
 Constructing beta Fock-matrix...
 Inverse square root: The matrix is not positive definite!
 
 Pipek-Mezey localization...
 Step  Convergence
   1   1.189017506622
   2   0.044334991267
   3   0.000012724488
   4   0.000000001861
 CPU time [min]:     0.304                   Wall time [min]:     0.019
 
 Constructing local fitting domains...
 Maximum number of atoms in fitting domains:    4
 Average number of atoms in fitting domains:    4.0
 
 Second step of Coulomb + first step of exchange...
 Exchange contribution is evaluated for MOs 1 to 9.
   1% done.
  13% done.
  25% done.
  38% done.
  56% done.
  75% done.
  89% done.
 100% done.
 CPU time [min]:     0.376                   Wall time [min]:     0.022
 
 Fitting and assembly step of exchange...
 CPU time [min]:     0.378                   Wall time [min]:     0.022
 
 Gradient norm:      4.6934E+00
 DIIS is running in this iteration step.
 RMS of alpha [F,P] :                                  0.04514728478337
 RMS of beta  [F,P] :                                  0.04382158746922
 RMS of alpha difference density:                      0.18942615117927
 RMS of beta  difference density:                      0.17652344931980
 Gap [au]:  0.41741477
 ALPHA OCC:  10
 BETA  OCC:   9
 
 ***HARTREE-FOCK ENERGY IN STEP   2 IS       -154.8535156897498268 [AU]
 
 Step comparison  Energy Drift [au]  DIIS error drift  Gradient drift
        1           -3.7376E+01        -3.9144E-02      -2.2306E+00
        2            1.5485E+02         1.0000E-07      -2.2306E+00
 Warning! The energy goes uphill (with respect to previous step).
 Warning! The gradient goes uphill (with respect to previous step).
 Warning! The gradient goes uphill (with respect to step   1 ).
 ======================================================================
 ITERATION STEP   3
 CPU time [min]:     0.389                   Wall time [min]:     0.022
 

 SCF control                  : diis
 Damping factor/level shift   : 0.000/0.000
 DIIS [start/end/frequency]   :   2 / 50 /  1

 Constructing alpha Fock-matrix...
 Inverse square root: The matrix is not positive definite!
 
 Pipek-Mezey localization...
 Step  Convergence
   1   0.081576506840
   2   0.049600308405
   3   0.000000000304
 CPU time [min]:     0.407                   Wall time [min]:     0.023
 
 Constructing local fitting domains...
 Local fitting domains are unchanged.
 
 First step of Coulomb + first step of exchange...
 Exchange contribution is evaluated for MOs 1 to 10.
   1% done.
  13% done.
  25% done.
  38% done.
  56% done.
  75% done.
  89% done.
 100% done.
 CPU time [min]:     0.478                   Wall time [min]:     0.026
 
 Fitting and assembly step of exchange...
 CPU time [min]:     0.480                   Wall time [min]:     0.026
 
 Constructing beta Fock-matrix...
 Inverse square root: The matrix is not positive definite!
 
 Pipek-Mezey localization...
 Step  Convergence
   1   0.000000000000
 CPU time [min]:     0.494                   Wall time [min]:     0.027
 
 Constructing local fitting domains...
 Local fitting domains are unchanged.
 
 Second step of Coulomb + first step of exchange...
 Exchange contribution is evaluated for MOs 1 to 9.
   1% done.
  13% done.
  25% done.
  38% done.
  56% done.
  75% done.
  89% done.
 100% done.
 CPU time [min]:     0.564                   Wall time [min]:     0.030
 
 Fitting and assembly step of exchange...
 CPU time [min]:     0.565                   Wall time [min]:     0.030
 
 Gradient norm:      4.2010E+00
 DIIS is running in this iteration step.
 RMS of alpha [F,P] :                                  0.03158643515730
 RMS of beta  [F,P] :                                  0.03103627756571
 RMS of alpha difference density:                      0.01103054166348
 RMS of beta  difference density:                      0.00651503691089
 Gap [au]:  0.46896699
 ALPHA OCC:  10
 BETA  OCC:   9
 
 ***HARTREE-FOCK ENERGY IN STEP   3 IS       -189.6862504912437828 [AU]
 
 Step comparison  Energy Drift [au]  DIIS error drift  Gradient drift
        2            3.4833E+01         1.8635E-02       4.9244E-01
 Warning! The gradient goes uphill (with respect to step   1 ).
 ======================================================================
 ITERATION STEP   4
 CPU time [min]:     0.578                   Wall time [min]:     0.030
 

 SCF control                  : diis
 Damping factor/level shift   : 0.000/0.000
 DIIS [start/end/frequency]   :   2 / 50 /  1

 Constructing alpha Fock-matrix...
 
 Pipek-Mezey localization...
 Step  Convergence
   1   0.031037696280
   2   0.029898162689
   3   0.000000000439
 CPU time [min]:     0.596                   Wall time [min]:     0.031
 
 Constructing local fitting domains...
 Local fitting domains are unchanged.
 
 First step of Coulomb + first step of exchange...
 Exchange contribution is evaluated for MOs 1 to 10.
   1% done.
  13% done.
  25% done.
  38% done.
  56% done.
  75% done.
  89% done.
 100% done.
 CPU time [min]:     0.666                   Wall time [min]:     0.034
 
 Fitting and assembly step of exchange...
 CPU time [min]:     0.667                   Wall time [min]:     0.034
 
 Constructing beta Fock-matrix...
 
 Pipek-Mezey localization...
 Step  Convergence
   1   0.000000000000
 CPU time [min]:     0.680                   Wall time [min]:     0.035
 
 Constructing local fitting domains...
 Local fitting domains are unchanged.
 
 Second step of Coulomb + first step of exchange...
 Exchange contribution is evaluated for MOs 1 to 9.
   1% done.
  13% done.
  25% done.
  38% done.
  56% done.
  75% done.
  89% done.
 100% done.
 CPU time [min]:     0.749                   Wall time [min]:     0.038
 
 Fitting and assembly step of exchange...
 CPU time [min]:     0.751                   Wall time [min]:     0.038
 
 Gradient norm:      2.4086E+00
 DIIS is running in this iteration step.
 RMS of alpha [F,P] :                                  0.01798865023155
 RMS of beta  [F,P] :                                  0.01783305190202
 RMS of alpha difference density:                      0.01002718068945
 RMS of beta  difference density:                      0.00484880283756
 Gap [au]:  0.43735987
 ALPHA OCC:  10
 BETA  OCC:   9
 
 ***HARTREE-FOCK ENERGY IN STEP   4 IS       -192.4236416477879743 [AU]
 
 Step comparison  Energy Drift [au]  DIIS error drift  Gradient drift
        3            2.7374E+00         1.8953E-02       1.7923E+00
 ======================================================================
 ITERATION STEP   5
 CPU time [min]:     0.764                   Wall time [min]:     0.039
 

 SCF control                  : diis
 Damping factor/level shift   : 0.000/0.000
 DIIS [start/end/frequency]   :   2 / 50 /  1

 Constructing alpha Fock-matrix...
 
 Pipek-Mezey localization...
 Step  Convergence
   1   0.032822048369
   2   0.029895179010
   3   0.000000004585
 CPU time [min]:     0.784                   Wall time [min]:     0.040
 
 Constructing local fitting domains...
 Local fitting domains are unchanged.
 
 First step of Coulomb + first step of exchange...
 Exchange contribution is evaluated for MOs 1 to 10.
   1% done.
  13% done.
  25% done.
  38% done.
  56% done.
  75% done.
  89% done.
 100% done.
 CPU time [min]:     0.855                   Wall time [min]:     0.043
 
 Fitting and assembly step of exchange...
 CPU time [min]:     0.857                   Wall time [min]:     0.043
 
 Constructing beta Fock-matrix...
 
 Pipek-Mezey localization...
 Step  Convergence
   1   0.000000000000
 CPU time [min]:     0.869                   Wall time [min]:     0.043
 
 Constructing local fitting domains...
 Local fitting domains are unchanged.
 
 Second step of Coulomb + first step of exchange...
 Exchange contribution is evaluated for MOs 1 to 9.
   1% done.
  13% done.
  25% done.
  38% done.
  56% done.
  75% done.
  89% done.
 100% done.
 CPU time [min]:     0.940                   Wall time [min]:     0.046
 
 Fitting and assembly step of exchange...
 CPU time [min]:     0.941                   Wall time [min]:     0.046
 
 Gradient norm:      1.0384E+00
 DIIS is running in this iteration step.
 RMS of alpha [F,P] :                                  0.00717206394247
 RMS of beta  [F,P] :                                  0.00694869341523
 RMS of alpha difference density:                      0.01107346102795
 RMS of beta  difference density:                      0.00233323477707
 Gap [au]:  0.27093641
 ALPHA OCC:  10
 BETA  OCC:   9
 
 ***HARTREE-FOCK ENERGY IN STEP   5 IS       -194.0004470086863080 [AU]
 
 Step comparison  Energy Drift [au]  DIIS error drift  Gradient drift
        4            1.5768E+00         1.5344E-02       1.3703E+00
 ======================================================================
 ITERATION STEP   6
 CPU time [min]:     0.953                   Wall time [min]:     0.047
 

 SCF control                  : diis
 Damping factor/level shift   : 0.000/0.000
 DIIS [start/end/frequency]   :   2 / 50 /  1

 Constructing alpha Fock-matrix...
 
 Pipek-Mezey localization...
 Step  Convergence
   1   0.052687444868
   2   0.049713773499
   3   0.000000036259
 CPU time [min]:     0.970                   Wall time [min]:     0.048
 
 Constructing local fitting domains...
 Local fitting domains are unchanged.
 
 First step of Coulomb + first step of exchange...
 Exchange contribution is evaluated for MOs 1 to 10.
   1% done.
  13% done.
  25% done.
  38% done.
  56% done.
  75% done.
  89% done.
 100% done.
 CPU time [min]:     1.043                   Wall time [min]:     0.051
 
 Fitting and assembly step of exchange...
 CPU time [min]:     1.044                   Wall time [min]:     0.051
 
 Constructing beta Fock-matrix...
 
 Pipek-Mezey localization...
 Step  Convergence
   1   0.000000000000
 CPU time [min]:     1.057                   Wall time [min]:     0.051
 
 Constructing local fitting domains...
 Local fitting domains are unchanged.
 
 Second step of Coulomb + first step of exchange...
 Exchange contribution is evaluated for MOs 1 to 9.
   1% done.
  13% done.
  25% done.
  38% done.
  56% done.
  75% done.
  89% done.
 100% done.
 CPU time [min]:     1.126                   Wall time [min]:     0.054
 
 Fitting and assembly step of exchange...
 CPU time [min]:     1.128                   Wall time [min]:     0.054
 
 Gradient norm:      1.1118E-01
 DIIS is running in this iteration step.
 RMS of alpha [F,P] :                                  0.00077775421567
 RMS of beta  [F,P] :                                  0.00065207156974
 RMS of alpha difference density:                      0.00297688938930
 RMS of beta  difference density:                      0.00030201643122
 Gap [au]:  0.27654436
 ALPHA OCC:  10
 BETA  OCC:   9
 
 ***HARTREE-FOCK ENERGY IN STEP   6 IS       -194.2474170791669792 [AU]
 
 Step comparison  Energy Drift [au]  DIIS error drift  Gradient drift
        5            2.4697E-01         8.9712E-03       9.2719E-01
 ======================================================================
 ITERATION STEP   7
 CPU time [min]:     1.141                   Wall time [min]:     0.055
 

 SCF control                  : diis
 Damping factor/level shift   : 0.000/0.000
 DIIS [start/end/frequency]   :   2 / 50 /  1

 Constructing alpha Fock-matrix...
 
 Pipek-Mezey localization...
 Step  Convergence
   1   0.030076079703
   2   0.029931945795
   3   0.000000000255
 CPU time [min]:     1.157                   Wall time [min]:     0.056
 
 Constructing local fitting domains...
 Local fitting domains are unchanged.
 
 First step of Coulomb + first step of exchange...
 Exchange contribution is evaluated for MOs 1 to 10.
   1% done.
  13% done.
  25% done.
  38% done.
  56% done.
  75% done.
  89% done.
 100% done.
 CPU time [min]:     1.228                   Wall time [min]:     0.059
 
 Fitting and assembly step of exchange...
 CPU time [min]:     1.230                   Wall time [min]:     0.059
 
 Constructing beta Fock-matrix...
 
 Pipek-Mezey localization...
 Step  Convergence
   1   0.000000000000
 CPU time [min]:     1.242                   Wall time [min]:     0.059
 
 Constructing local fitting domains...
 Local fitting domains are unchanged.
 
 Second step of Coulomb + first step of exchange...
 Exchange contribution is evaluated for MOs 1 to 9.
   1% done.
  13% done.
  25% done.
  38% done.
  56% done.
  75% done.
  89% done.
 100% done.
 CPU time [min]:     1.314                   Wall time [min]:     0.062
 
 Fitting and assembly step of exchange...
 CPU time [min]:     1.315                   Wall time [min]:     0.063
 
 Gradient norm:      3.9122E-02
 DIIS is running in this iteration step.
 RMS of alpha [F,P] :                                  0.00017727019003
 RMS of beta  [F,P] :                                  0.00013349295992
 RMS of alpha difference density:                      0.00102499901109
 RMS of beta  difference density:                      0.00004066886975
 Gap [au]:  0.27281035
 ALPHA OCC:  10
 BETA  OCC:   9
 
 ***HARTREE-FOCK ENERGY IN STEP   7 IS       -194.2526760911504766 [AU]
 
 Step comparison  Energy Drift [au]  DIIS error drift  Gradient drift
        6            5.2590E-03         7.9303E-04       7.2060E-02
 ======================================================================
 ITERATION STEP   8
 CPU time [min]:     1.330                   Wall time [min]:     0.063
 

 SCF control                  : diis
 Damping factor/level shift   : 0.000/0.000
 DIIS [start/end/frequency]   :   2 / 50 /  1

 Constructing alpha Fock-matrix...
 
 Pipek-Mezey localization...
 Step  Convergence
   1   0.039926605811
   2   0.039901517287
   3   0.000000000749
 CPU time [min]:     1.346                   Wall time [min]:     0.064
 
 Constructing local fitting domains...
 Local fitting domains are unchanged.
 
 First step of Coulomb + first step of exchange...
 Exchange contribution is evaluated for MOs 1 to 10.
   1% done.
  13% done.
  25% done.
  38% done.
  56% done.
  75% done.
  89% done.
 100% done.
 CPU time [min]:     1.414                   Wall time [min]:     0.067
 
 Fitting and assembly step of exchange...
 CPU time [min]:     1.416                   Wall time [min]:     0.067
 
 Constructing beta Fock-matrix...
 
 Pipek-Mezey localization...
 Step  Convergence
   1   0.000000000000
 CPU time [min]:     1.429                   Wall time [min]:     0.068
 
 Constructing local fitting domains...
 Local fitting domains are unchanged.
 
 Second step of Coulomb + first step of exchange...
 Exchange contribution is evaluated for MOs 1 to 9.
   1% done.
  13% done.
  25% done.
  38% done.
  56% done.
  75% done.
  89% done.
 100% done.
 CPU time [min]:     1.500                   Wall time [min]:     0.071
 
 Fitting and assembly step of exchange...
 CPU time [min]:     1.502                   Wall time [min]:     0.071
 
 Gradient norm:      1.1105E-02
 DIIS is running in this iteration step.
 RMS of alpha [F,P] :                                  0.00004342172792
 RMS of beta  [F,P] :                                  0.00003501751525
 RMS of alpha difference density:                      0.00035971498439
 RMS of beta  difference density:                      0.00002695307510
 Gap [au]:  0.27099163
 ALPHA OCC:  10
 BETA  OCC:   9
 
 ***HARTREE-FOCK ENERGY IN STEP   8 IS       -194.2532867470810061 [AU]
 
 Step comparison  Energy Drift [au]  DIIS error drift  Gradient drift
        7            6.1066E-04         1.6613E-04       2.8017E-02
 ======================================================================
 ITERATION STEP   9
 CPU time [min]:     1.514                   Wall time [min]:     0.071
 

 SCF control                  : diis
 Damping factor/level shift   : 0.000/0.000
 DIIS [start/end/frequency]   :   2 / 50 /  1

 Constructing alpha Fock-matrix...
 
 Pipek-Mezey localization...
 Step  Convergence
   1   0.734050008785
   2   2.160031096833
   3   0.074804772432
   4   0.000910297375
   5   0.000000342510
   6   0.000000000001
 CPU time [min]:     1.532                   Wall time [min]:     0.072
 
 Constructing local fitting domains...
 Local fitting domains are unchanged.
 
 First step of Coulomb + first step of exchange...
 Exchange contribution is evaluated for MOs 1 to 10.
   1% done.
  13% done.
  25% done.
  38% done.
  56% done.
  75% done.
  89% done.
 100% done.
 CPU time [min]:     1.604                   Wall time [min]:     0.075
 
 Fitting and assembly step of exchange...
 CPU time [min]:     1.606                   Wall time [min]:     0.075
 
 Constructing beta Fock-matrix...
 
 Pipek-Mezey localization...
 Step  Convergence
   1   0.814275857336
   2   0.130472318072
   3   0.016574859576
   4   0.000014442251
   5   0.000000053042
   6   0.000000000075
   7   0.000000000000
 CPU time [min]:     1.619                   Wall time [min]:     0.076
 
 Constructing local fitting domains...
 Local fitting domains are unchanged.
 
 Second step of Coulomb + first step of exchange...
 Exchange contribution is evaluated for MOs 1 to 9.
   1% done.
  13% done.
  25% done.
  38% done.
  56% done.
  75% done.
  89% done.
 100% done.
 CPU time [min]:     1.691                   Wall time [min]:     0.079
 
 Fitting and assembly step of exchange...
 CPU time [min]:     1.692                   Wall time [min]:     0.079
 
 Gradient norm:      1.5962E-03
 DIIS is running in this iteration step.
 RMS of alpha [F,P] :                                  0.00001075961649
 RMS of beta  [F,P] :                                  0.00000934263468
 RMS of alpha difference density:                      0.00006129737253
 RMS of beta  difference density:                      0.00001616765955
 Gap [au]:  0.27087947
 ALPHA OCC:  10
 BETA  OCC:   9
 
 ***HARTREE-FOCK ENERGY IN STEP   9 IS       -194.2533528337589814 [AU]
 
 Step comparison  Energy Drift [au]  DIIS error drift  Gradient drift
        8            6.6087E-05         4.1533E-05       9.5086E-03
 ======================================================================
 ITERATION STEP  10
 CPU time [min]:     1.704                   Wall time [min]:     0.080
 

 SCF control                  : diis
 Damping factor/level shift   : 0.000/0.000
 DIIS [start/end/frequency]   :   2 / 50 /  1

 Constructing alpha Fock-matrix...
 
 Pipek-Mezey localization...
 Step  Convergence
   1   0.136797657674
   2   1.220399964710
   3   0.074920368276
   4   0.001381698929
   5   0.000000035955
   6   0.000000000000
 CPU time [min]:     1.722                   Wall time [min]:     0.081
 
 Constructing local fitting domains...
 Local fitting domains are unchanged.
 
 First step of Coulomb + first step of exchange...
 Exchange contribution is evaluated for MOs 1 to 10.
   1% done.
  13% done.
  25% done.
  38% done.
  56% done.
  75% done.
  89% done.
 100% done.
 CPU time [min]:     1.794                   Wall time [min]:     0.084
 
 Fitting and assembly step of exchange...
 CPU time [min]:     1.796                   Wall time [min]:     0.084
 
 Constructing beta Fock-matrix...
 
 Pipek-Mezey localization...
 Step  Convergence
   1   0.091656565066
   2   0.092518599838
   3   0.002547691197
   4   0.000003182515
   5   0.000000000285
   6   0.000000000006
   7   0.000000000000
 CPU time [min]:     1.809                   Wall time [min]:     0.084
 
 Constructing local fitting domains...
 Local fitting domains are unchanged.
 
 Second step of Coulomb + first step of exchange...
 Exchange contribution is evaluated for MOs 1 to 9.
   1% done.
  13% done.
  25% done.
  38% done.
  56% done.
  75% done.
  89% done.
 100% done.
 CPU time [min]:     1.879                   Wall time [min]:     0.087
 
 Fitting and assembly step of exchange...
 CPU time [min]:     1.881                   Wall time [min]:     0.087
 
 Gradient norm:      6.8809E-04
 DIIS is running in this iteration step.
 RMS of alpha [F,P] :                                  0.00000403917517
 RMS of beta  [F,P] :                                  0.00000441139112
 RMS of alpha difference density:                      0.00003329123081
 RMS of beta  difference density:                      0.00001141926635
 Gap [au]:  0.27103952
 ALPHA OCC:  10
 BETA  OCC:   9
 
 ***HARTREE-FOCK ENERGY IN STEP  10 IS       -194.2533577814604087 [AU]
 
 Step comparison  Energy Drift [au]  DIIS error drift  Gradient drift
        9            4.9477E-06         8.2685E-06       9.0810E-04
 ======================================================================
 ITERATION STEP  11
 CPU time [min]:     1.894                   Wall time [min]:     0.088
 

 SCF control                  : diis
 Damping factor/level shift   : 0.000/0.000
 DIIS [start/end/frequency]   :   2 / 50 /  1

 Constructing alpha Fock-matrix...
 
 Pipek-Mezey localization...
 Step  Convergence
   1   0.132555651776
   2   1.189940293183
   3   0.054155193308
   4   0.003466340833
   5   0.000000042076
   6   0.000000000003
   7   0.000000000000
 CPU time [min]:     1.912                   Wall time [min]:     0.089
 
 Constructing local fitting domains...
 Local fitting domains are unchanged.
 
 First step of Coulomb + first step of exchange...
 Exchange contribution is evaluated for MOs 1 to 10.
   1% done.
  13% done.
  25% done.
  38% done.
  56% done.
  75% done.
  89% done.
 100% done.
 CPU time [min]:     1.983                   Wall time [min]:     0.092
 
 Fitting and assembly step of exchange...
 CPU time [min]:     1.984                   Wall time [min]:     0.092
 
 Constructing beta Fock-matrix...
 
 Pipek-Mezey localization...
 Step  Convergence
   1   0.080397262746
   2   0.081217944818
   3   0.003638238134
   4   0.000006503125
   5   0.000000011715
   6   0.000000000035
   7   0.000000000000
 CPU time [min]:     1.997                   Wall time [min]:     0.092
 
 Constructing local fitting domains...
 Local fitting domains are unchanged.
 
 Second step of Coulomb + first step of exchange...
 Exchange contribution is evaluated for MOs 1 to 9.
   1% done.
  13% done.
  25% done.
  38% done.
  56% done.
  75% done.
  89% done.
 100% done.
 CPU time [min]:     2.069                   Wall time [min]:     0.095
 
 Fitting and assembly step of exchange...
 CPU time [min]:     2.071                   Wall time [min]:     0.095
 
 Gradient norm:      2.2996E-04
 DIIS is running in this iteration step.
 RMS of alpha [F,P] :                                  0.00000143296579
 RMS of beta  [F,P] :                                  0.00000140665793
 RMS of alpha difference density:                      0.00001016296301
 RMS of beta  difference density:                      0.00000466030560
 Gap [au]:  0.27100729
 ALPHA OCC:  10
 BETA  OCC:   9
 
 ***HARTREE-FOCK ENERGY IN STEP  11 IS       -194.2533588057814313 [AU]
 
 Step comparison  Energy Drift [au]  DIIS error drift  Gradient drift
       10            1.0243E-06         3.9732E-06       4.5813E-04
 ======================================================================
 ITERATION STEP  12
 CPU time [min]:     2.082                   Wall time [min]:     0.096
 

 SCF control                  : diis
 Damping factor/level shift   : 0.000/0.000
 DIIS [start/end/frequency]   :   2 / 50 /  1

 Constructing alpha Fock-matrix...
 
 Pipek-Mezey localization...
 Step  Convergence
   1   0.163737603004
   2   2.062547319698
   3   0.055483827940
   4   0.004544701079
   5   0.000000051469
   6   0.000000000010
   7   0.000000000000
 CPU time [min]:     2.101                   Wall time [min]:     0.097
 
 Constructing local fitting domains...
 Local fitting domains are unchanged.
 
 First step of Coulomb + first step of exchange...
 Exchange contribution is evaluated for MOs 1 to 10.
   1% done.
  13% done.
  25% done.
  38% done.
  56% done.
  75% done.
  89% done.
 100% done.
 CPU time [min]:     2.171                   Wall time [min]:     0.100
 
 Fitting and assembly step of exchange...
 CPU time [min]:     2.173                   Wall time [min]:     0.100
 
 Constructing beta Fock-matrix...
 
 Pipek-Mezey localization...
 Step  Convergence
   1   0.110084094081
   2   0.114774010646
   3   0.002999892527
   4   0.000002208727
   5   0.000000208318
   6   0.000000204361
   7   0.000000000000
 CPU time [min]:     2.186                   Wall time [min]:     0.101
 
 Constructing local fitting domains...
 Local fitting domains are unchanged.
 
 Second step of Coulomb + first step of exchange...
 Exchange contribution is evaluated for MOs 1 to 9.
   1% done.
  13% done.
  25% done.
  38% done.
  56% done.
  75% done.
  89% done.
 100% done.
 CPU time [min]:     2.257                   Wall time [min]:     0.104
 
 Fitting and assembly step of exchange...
 CPU time [min]:     2.259                   Wall time [min]:     0.104
 
 Gradient norm:      8.0679E-05
 DIIS is running in this iteration step.
 RMS of alpha [F,P] :                                  0.00000052792703
 RMS of beta  [F,P] :                                  0.00000053519657
 RMS of alpha difference density:                      0.00000369772294
 RMS of beta  difference density:                      0.00000226044413
 Gap [au]:  0.27104548
 ALPHA OCC:  10
 BETA  OCC:   9
 
 ***HARTREE-FOCK ENERGY IN STEP  12 IS       -194.2533589304143220 [AU]
 
 Step comparison  Energy Drift [au]  DIIS error drift  Gradient drift
       11            1.2463E-07         1.2562E-06       1.4928E-04
 ======================================================================
 ITERATION STEP  13
 CPU time [min]:     2.270                   Wall time [min]:     0.104
 

 SCF control                  : diis
 Damping factor/level shift   : 0.000/0.000
 DIIS [start/end/frequency]   :   2 / 50 /  1

 Constructing alpha Fock-matrix...
 
 Pipek-Mezey localization...
 Step  Convergence
   1   0.140242830974
   2   2.692568817473
   3   0.275154263256
   4   0.185048673935
   5   0.011263693906
   6   0.000000015184
   7   0.000000000002
   8   0.000000000000
 CPU time [min]:     2.288                   Wall time [min]:     0.105
 
 Constructing local fitting domains...
 Local fitting domains are unchanged.
 
 First step of Coulomb + first step of exchange...
 Exchange contribution is evaluated for MOs 1 to 10.
   1% done.
  13% done.
  25% done.
  38% done.
  56% done.
  75% done.
  89% done.
 100% done.
 CPU time [min]:     2.359                   Wall time [min]:     0.108
 
 Fitting and assembly step of exchange...
 CPU time [min]:     2.361                   Wall time [min]:     0.108
 
 Constructing beta Fock-matrix...
 
 Pipek-Mezey localization...
 Step  Convergence
   1   0.089918913724
   2   0.093970970621
   3   0.002997938127
   4   0.000004764582
   5   0.000000010582
   6   0.000000000290
   7   0.000000000000
 CPU time [min]:     2.372                   Wall time [min]:     0.109
 
 Constructing local fitting domains...
 Local fitting domains are unchanged.
 
 Second step of Coulomb + first step of exchange...
 Exchange contribution is evaluated for MOs 1 to 9.
   1% done.
  13% done.
  25% done.
  38% done.
  56% done.
  75% done.
  89% done.
 100% done.
 CPU time [min]:     2.443                   Wall time [min]:     0.112
 
 Fitting and assembly step of exchange...
 CPU time [min]:     2.445                   Wall time [min]:     0.112
 
 Gradient norm:      3.3986E-05
 DIIS is running in this iteration step.
 RMS of alpha [F,P] :                                  0.00000007399180
 RMS of beta  [F,P] :                                  0.00000019365198
 RMS of alpha difference density:                      0.00000036146593
 RMS of beta  difference density:                      0.00000061589014
 Gap [au]:  0.27103494
 ALPHA OCC:  10
 BETA  OCC:   9
 
 ***HARTREE-FOCK ENERGY IN STEP  13 IS       -194.2533589468313266 [AU]
 
 Step comparison  Energy Drift [au]  DIIS error drift  Gradient drift
       12            1.6417E-08         5.4445E-07       4.6694E-05
 ======================================================================
 ITERATION STEP  14
 CPU time [min]:     2.457                   Wall time [min]:     0.112
 

 SCF control                  : diis
 Damping factor/level shift   : 0.000/0.000
 DIIS [start/end/frequency]   :   2 / 50 /  1

 Constructing alpha Fock-matrix...
 
 Pipek-Mezey localization...
 Step  Convergence
   1   0.105227936046
   2   4.100033951587
   3   1.118768457688
   4   0.145655151494
   5   0.016861772590
   6   0.000002220026
   7   0.000000001803
   8   0.000000000005
   9   0.000000000000
 CPU time [min]:     2.474                   Wall time [min]:     0.113
 
 Constructing local fitting domains...
 Local fitting domains are unchanged.
 
 First step of Coulomb + first step of exchange...
 Exchange contribution is evaluated for MOs 1 to 10.
   1% done.
  13% done.
  25% done.
  38% done.
  56% done.
  75% done.
  89% done.
 100% done.
 CPU time [min]:     2.545                   Wall time [min]:     0.116
 
 Fitting and assembly step of exchange...
 CPU time [min]:     2.547                   Wall time [min]:     0.116
 
 Constructing beta Fock-matrix...
 
 Pipek-Mezey localization...
 Step  Convergence
   1   0.099876379300
   2   0.099691502348
   3   0.000848948711
   4   0.000000344615
   5   0.000000000067
   6   0.000000000002
   7   0.000000000000
 CPU time [min]:     2.558                   Wall time [min]:     0.117
 
 Constructing local fitting domains...
 Local fitting domains are unchanged.
 
 Second step of Coulomb + first step of exchange...
 Exchange contribution is evaluated for MOs 1 to 9.
   1% done.
  13% done.
  25% done.
  38% done.
  56% done.
  75% done.
  89% done.
 100% done.
 CPU time [min]:     2.631                   Wall time [min]:     0.120
 
 Fitting and assembly step of exchange...
 CPU time [min]:     2.633                   Wall time [min]:     0.120
 
 Gradient norm:      1.7459E-05
 DIIS is running in this iteration step.
 RMS of alpha [F,P] :                                  0.00000003644452
 RMS of beta  [F,P] :                                  0.00000008450866
 RMS of alpha difference density:                      0.00000021753236
 RMS of beta  difference density:                      0.00000042065028
 Gap [au]:  0.27103860
 ALPHA OCC:  10
 BETA  OCC:   9
 
 ***HARTREE-FOCK ENERGY IN STEP  14 IS       -194.2533589478289571 [AU]
 
 Step comparison  Energy Drift [au]  DIIS error drift  Gradient drift
       13            9.9763E-10         1.1527E-07       1.6527E-05
 ======================================================================
 ITERATION STEP  15
 CPU time [min]:     2.654                   Wall time [min]:     0.121
 

 SCF control                  : diis
 Damping factor/level shift   : 0.000/0.000
 DIIS [start/end/frequency]   :   2 / 50 /  1

 Constructing alpha Fock-matrix...
 
 Pipek-Mezey localization...
 Step  Convergence
   1   0.207799557959
   2   1.780812139356
   3   0.089389089404
   4   0.010097272575
   5   0.000009846060
   6   0.000000000962
   7   0.000000000004
   8   0.000000000000
 CPU time [min]:     2.673                   Wall time [min]:     0.122
 
 Constructing local fitting domains...
 Local fitting domains are unchanged.
 
 First step of Coulomb + first step of exchange...
 Exchange contribution is evaluated for MOs 1 to 10.
   1% done.
  13% done.
  25% done.
  38% done.
  56% done.
  75% done.
  89% done.
 100% done.
 CPU time [min]:     2.744                   Wall time [min]:     0.125
 
 Fitting and assembly step of exchange...
 CPU time [min]:     2.746                   Wall time [min]:     0.125
 
 Constructing beta Fock-matrix...
 
 Pipek-Mezey localization...
 Step  Convergence
   1   0.090341834739
   2   0.086468440056
   3   0.000979311017
   4   0.000001702504
   5   0.000000003380
   6   0.000000000009
   7   0.000000000000
 CPU time [min]:     2.759                   Wall time [min]:     0.126
 
 Constructing local fitting domains...
 Local fitting domains are unchanged.
 
 Second step of Coulomb + first step of exchange...
 Exchange contribution is evaluated for MOs 1 to 9.
   1% done.
  13% done.
  25% done.
  38% done.
  56% done.
  75% done.
  89% done.
 100% done.
 CPU time [min]:     2.830                   Wall time [min]:     0.129
 
 Fitting and assembly step of exchange...
 CPU time [min]:     2.832                   Wall time [min]:     0.129
 
 Gradient norm:      7.3620E-06
 DIIS is running in this iteration step.
 RMS of alpha [F,P] :                                  0.00000001755689
 RMS of beta  [F,P] :                                  0.00000003822962
 RMS of alpha difference density:                      0.00000015723758
 RMS of beta  difference density:                      0.00000027520540
 Gap [au]:  0.27103663
 ALPHA OCC:  10
 BETA  OCC:   9
 
 ***HARTREE-FOCK ENERGY IN STEP  15 IS       -194.2533589481485023 [AU]
 
 Step comparison  Energy Drift [au]  DIIS error drift  Gradient drift
       14            3.1955E-10         4.9964E-08       1.0097E-05
 ======================================================================
 ITERATION STEP  16
 CPU time [min]:     2.845                   Wall time [min]:     0.129
 

 SCF control                  : diis
 Damping factor/level shift   : 0.000/0.000
 DIIS [start/end/frequency]   :   2 / 50 /  1

 Constructing alpha Fock-matrix...
 
 Pipek-Mezey localization...
 Step  Convergence
   1   0.163487611139
   2   2.380651162280
   3   0.429249619315
   4   0.083409751914
   5   0.005771412969
   6   0.000000067094
   7   0.000000000276
   8   0.000000000001
   9   0.000000000000
 CPU time [min]:     2.862                   Wall time [min]:     0.130
 
 Constructing local fitting domains...
 Local fitting domains are unchanged.
 
 First step of Coulomb + first step of exchange...
 Exchange contribution is evaluated for MOs 1 to 10.
   1% done.
  13% done.
  25% done.
  38% done.
  56% done.
  75% done.
  89% done.
 100% done.
 CPU time [min]:     2.936                   Wall time [min]:     0.133
 
 Fitting and assembly step of exchange...
 CPU time [min]:     2.937                   Wall time [min]:     0.133
 
 Constructing beta Fock-matrix...
 
 Pipek-Mezey localization...
 Step  Convergence
   1   0.090278027556
   2   0.091960704105
   3   0.000952018188
   4   0.000002036406
   5   0.000000003810
   6   0.000000000011
   7   0.000000000000
 CPU time [min]:     2.950                   Wall time [min]:     0.134
 
 Constructing local fitting domains...
 Local fitting domains are unchanged.
 
 Second step of Coulomb + first step of exchange...
 Exchange contribution is evaluated for MOs 1 to 9.
   1% done.
  13% done.
  25% done.
  38% done.
  56% done.
  75% done.
  89% done.
 100% done.
 CPU time [min]:     3.021                   Wall time [min]:     0.137
 
 Fitting and assembly step of exchange...
 CPU time [min]:     3.023                   Wall time [min]:     0.137
 
 Gradient norm:      1.3979E-06
 DIIS is running in this iteration step.
 RMS of alpha [F,P] :                                  0.00000000655529
 RMS of beta  [F,P] :                                  0.00000000809125
 RMS of alpha difference density:                      0.00000003395167
 RMS of beta  difference density:                      0.00000005645617
 Gap [au]:  0.27103659
 ALPHA OCC:  10
 BETA  OCC:   9
 
 ***HARTREE-FOCK ENERGY IN STEP  16 IS       -194.2533589482278842 [AU]
 
 Step comparison  Energy Drift [au]  DIIS error drift  Gradient drift
       15            7.9382E-11         3.1655E-08       5.9642E-06
 ======================================================================
 
 SUCCESS...
 THE SCF ITERATION HAS CONVERGED!
 
                   A   
 FINAL ALPHA OCC:  10
 FINAL BETA  OCC:   9
 
 ***FINAL HARTREE-FOCK ENERGY:       -194.2533589482278842 [AU]
 
 Expectation value of S^2:  0.7508
 Average multiplicity:      2.0008
 
 Orbital energies [au]:
      Irrep         Alpha          Beta
    1   A         -4.974063      -4.970070
    2   A         -3.189130      -3.191848
    3   A         -3.189121      -3.191615
    4   A         -3.188784      -3.191615
    5   A         -0.460912      -0.461124
    6   A         -0.460911      -0.461124
    7   A         -0.460175      -0.460834
    8   A         -0.460037      -0.460741
    9   A         -0.458177      -0.459765
 
   10   A         -0.234273       0.013711
 
   11   A          0.036763       0.046895
   12   A          0.065188       0.068013
   13   A          0.066893       0.088439
   14   A          0.140998       0.179837
   15   A          0.192746       0.199322
   16   A          0.211699       0.266617
   17   A          0.218890       0.269995
   18   A          0.247705       0.276514
   19   A          0.268565       0.281354
   20   A          0.322351       0.329405
   21   A          0.348844       0.368917
   22   A          0.406141       0.413781
   23   A          0.416651       0.418146
   24   A          0.456647       0.456801
   25   A          0.467880       0.477811
   26   A          0.554873       0.567195
   27   A          0.575823       0.581352
   28   A          0.698608       0.700765
   29   A          0.779710       0.788459
   30   A          1.148245       1.155782
   31   A          1.190909       1.194851
   32   A          1.243856       1.246257
   33   A          1.244742       1.252184
   34   A          1.259168       1.263837
   35   A          1.284404       1.290337
   36   A          1.319721       1.323040
   37   A          1.350572       1.366503
   38   A          1.355324       1.369152
   39   A          1.408266       1.416406
   40   A          1.465191       1.472824
   41   A          1.470093       1.475224
   42   A          1.497206       1.499179
   43   A          1.566662       1.569417
   44   A          1.627671       1.627984
   45   A          1.687030       1.693265
   46   A          1.754228       1.757717
   47   A          1.903301       1.904743
   48   A          2.012156       2.018803
   49   A          2.018500       2.019963
   50   A          2.741153       2.741972
   51   A          2.952979       2.953102
   52   A          2.987062       2.988991
   53   A          5.876252       5.876717
   54   A          5.941880       5.942758
   55   A          5.944581       5.944594
   56   A          5.949378       5.950406
   57   A          5.962401       5.962433
   58   A          6.028134       6.028698
   59   A          6.066842       6.066977
   60   A          6.133912       6.134028
   61   A          6.294616       6.295004
   62   A          6.321355       6.320196
   63   A          6.321361       6.320202
   64   A          6.321646       6.320617
   65   A          6.321647       6.320617
   66   A          6.323440       6.322019
   67   A          6.323561       6.322129
   68   A          6.356078       6.355681
   69   A         10.038124      10.038972
   70   A         10.038273      10.039020
   71   A         10.039008      10.039748
   72   A         10.039977      10.040591
   73   A         10.039989      10.040604
   74   A         10.043168      10.043883
   75   A         10.047620      10.048236
   76   A         10.048873      10.048879
   77   A         10.048880      10.048885
   78   A         10.048927      10.048933
   79   A         10.048961      10.048987
   80   A         10.049027      10.049033
   81   A         10.049564      10.049569
   82   A         10.050011      10.050019
   83   A         10.050068      10.050085
   84   A         10.050207      10.050268
   85   A         10.050586      10.050593
   86   A         10.050735      10.050750
   87   A         10.052311      10.052416
   88   A         10.059520      10.059731
   89   A         10.062568      10.062587
   90   A         13.537697      13.537899
   91   A         13.552701      13.552906
   92   A         13.594026      13.594172
   93   A         13.594869      13.595283
   94   A         13.646721      13.647046
   95   A         13.662037      13.662300
   96   A         13.668484      13.668677
   97   A         13.782252      13.782513
   98   A         13.834267      13.834385
   99   A         13.863058      13.863410
  100   A         13.894383      13.894935
  101   A         13.904745      13.904795
  102   A         14.254446      14.254771
  103   A         14.298843      14.299419
  104   A         14.331370      14.331512
  105   A         25.677626      25.677758
  106   A         25.845930      25.845939
  107   A         25.871160      25.871463
  108   A         85.424988      85.425040
  109   A         85.517896      85.517999
  110   A         85.521775      85.521777
  111   A         85.531311      85.531436
  112   A         85.543748      85.543751
  113   A         85.645909      85.645976
  114   A         85.686575      85.686590
  115   A         85.789962      85.789975
  116   A         86.054303      86.054489
  117   A        100.181610     100.182905
  118   A        108.826697     108.825826
  119   A        108.830197     108.829323
  120   A        109.041046     109.040056
  121   A        315.899384     315.899640
  122   A        473.248075     473.248087
  123   A        473.474138     473.474138
  124   A        473.505807     473.505836
 
 RETURNING FROM SCF ALGORITHM
 ======================================================================

 ************************ 2022-11-12 10:18:43 *************************
 Executing integ...

 Allocation of 150.0 Gbytes of memory...
 
 
 Number of atoms:                  4
 Charge:                           0
 Number of electrons:             19
 Number of core electrons:         8
 Spin multiplicity:                2
 
                 Cartesian coordinates [bohr]      Atomic mass [AMU]  Z
   1  Cu   -1.50328515    4.14022981   -0.15486466     0.000000       0
   2  Cu   -1.94664693   -4.14022981   -1.71968418    62.929599      29
   3  Cu   -0.82408530   -0.27672535   -0.42472396     0.000000       0
   4  Cu    1.94664693    2.50906243    1.71968418     0.000000       0
 
 This molecule is an asymmetric top.
 This molecule is planar.
 
 Point group: C1  
 Computational point group: C1  
 
 Cartesian coordinates in standard orientation [bohr]
   1  Cu   -6.58508181   -2.12580685    0.00004141
   2  Cu    1.58145466   -0.00003093    0.00000772
   3  Cu   -2.64509632    0.00025608   -0.00016004
   4  Cu   -6.58436844    2.12586002    0.00004143
 
 Nuclear repulsion energy [au]:          0.000000000000
 
 
 Basis set information:
 
 Maximum angular momentum: i
 Maximum number of contracted Gaussians:   16
 Maximum number of primitive Gaussians:    19
 Spherical harmonic GTOs are used.
 
 
 Conventional basis set:
 
   1  Cu bse_acvtz [ 13s 12p 11d 4f 3g | 8s 8p 7d 4f 3g ]
   2  Cu bse_acvtz [ 13s 12p 11d 4f 3g | 8s 8p 7d 4f 3g ]
   3  Cu bse_acvtz [ 13s 12p 11d 4f 3g | 8s 8p 7d 4f 3g ]
   4  Cu bse_acvtz [ 13s 12p 11d 4f 3g | 8s 8p 7d 4f 3g ]
 
 Basis functions:
            1             2             3             4             5             6             7             8             9            10
    0    1Cu1s         1Cu2s         1Cu3s         1Cu4s         1Cu5s         1Cu6s         1Cu7s         1Cu8s         1Cu1pz        1Cu1py    
    1    1Cu1px        1Cu2pz        1Cu2py        1Cu2px        1Cu3pz        1Cu3py        1Cu3px        1Cu4pz        1Cu4py        1Cu4px    
    2    1Cu5pz        1Cu5py        1Cu5px        1Cu6pz        1Cu6py        1Cu6px        1Cu7pz        1Cu7py        1Cu7px        1Cu8pz    
    3    1Cu8py        1Cu8px        1Cu1d-2       1Cu1d-1       1Cu1d0        1Cu1d+1       1Cu1d+2       1Cu2d-2       1Cu2d-1       1Cu2d0    
    4    1Cu2d+1       1Cu2d+2       1Cu3d-2       1Cu3d-1       1Cu3d0        1Cu3d+1       1Cu3d+2       1Cu4d-2       1Cu4d-1       1Cu4d0    
    5    1Cu4d+1       1Cu4d+2       1Cu5d-2       1Cu5d-1       1Cu5d0        1Cu5d+1       1Cu5d+2       1Cu6d-2       1Cu6d-1       1Cu6d0    
    6    1Cu6d+1       1Cu6d+2       1Cu7d-2       1Cu7d-1       1Cu7d0        1Cu7d+1       1Cu7d+2       1Cu1f-3       1Cu1f-2       1Cu1f-1   
    7    1Cu1f0        1Cu1f+1       1Cu1f+2       1Cu1f+3       1Cu2f-3       1Cu2f-2       1Cu2f-1       1Cu2f0        1Cu2f+1       1Cu2f+2   
    8    1Cu2f+3       1Cu3f-3       1Cu3f-2       1Cu3f-1       1Cu3f0        1Cu3f+1       1Cu3f+2       1Cu3f+3       1Cu4f-3       1Cu4f-2   
    9    1Cu4f-1       1Cu4f0        1Cu4f+1       1Cu4f+2       1Cu4f+3       1Cu1g-4       1Cu1g-3       1Cu1g-2       1Cu1g-1       1Cu1g0    
   10    1Cu1g+1       1Cu1g+2       1Cu1g+3       1Cu1g+4       1Cu2g-4       1Cu2g-3       1Cu2g-2       1Cu2g-1       1Cu2g0        1Cu2g+1   
   11    1Cu2g+2       1Cu2g+3       1Cu2g+4       1Cu3g-4       1Cu3g-3       1Cu3g-2       1Cu3g-1       1Cu3g0        1Cu3g+1       1Cu3g+2   
   12    1Cu3g+3       1Cu3g+4       2Cu1s         2Cu2s         2Cu3s         2Cu4s         2Cu5s         2Cu6s         2Cu7s         2Cu8s     
   13    2Cu1pz        2Cu1py        2Cu1px        2Cu2pz        2Cu2py        2Cu2px        2Cu3pz        2Cu3py        2Cu3px        2Cu4pz    
   14    2Cu4py        2Cu4px        2Cu5pz        2Cu5py        2Cu5px        2Cu6pz        2Cu6py        2Cu6px        2Cu7pz        2Cu7py    
   15    2Cu7px        2Cu8pz        2Cu8py        2Cu8px        2Cu1d-2       2Cu1d-1       2Cu1d0        2Cu1d+1       2Cu1d+2       2Cu2d-2   
   16    2Cu2d-1       2Cu2d0        2Cu2d+1       2Cu2d+2       2Cu3d-2       2Cu3d-1       2Cu3d0        2Cu3d+1       2Cu3d+2       2Cu4d-2   
   17    2Cu4d-1       2Cu4d0        2Cu4d+1       2Cu4d+2       2Cu5d-2       2Cu5d-1       2Cu5d0        2Cu5d+1       2Cu5d+2       2Cu6d-2   
   18    2Cu6d-1       2Cu6d0        2Cu6d+1       2Cu6d+2       2Cu7d-2       2Cu7d-1       2Cu7d0        2Cu7d+1       2Cu7d+2       2Cu1f-3   
   19    2Cu1f-2       2Cu1f-1       2Cu1f0        2Cu1f+1       2Cu1f+2       2Cu1f+3       2Cu2f-3       2Cu2f-2       2Cu2f-1       2Cu2f0    
   20    2Cu2f+1       2Cu2f+2       2Cu2f+3       2Cu3f-3       2Cu3f-2       2Cu3f-1       2Cu3f0        2Cu3f+1       2Cu3f+2       2Cu3f+3   
   21    2Cu4f-3       2Cu4f-2       2Cu4f-1       2Cu4f0        2Cu4f+1       2Cu4f+2       2Cu4f+3       2Cu1g-4       2Cu1g-3       2Cu1g-2   
   22    2Cu1g-1       2Cu1g0        2Cu1g+1       2Cu1g+2       2Cu1g+3       2Cu1g+4       2Cu2g-4       2Cu2g-3       2Cu2g-2       2Cu2g-1   
   23    2Cu2g0        2Cu2g+1       2Cu2g+2       2Cu2g+3       2Cu2g+4       2Cu3g-4       2Cu3g-3       2Cu3g-2       2Cu3g-1       2Cu3g0    
   24    2Cu3g+1       2Cu3g+2       2Cu3g+3       2Cu3g+4       3Cu1s         3Cu2s         3Cu3s         3Cu4s         3Cu5s         3Cu6s     
   25    3Cu7s         3Cu8s         3Cu1pz        3Cu1py        3Cu1px        3Cu2pz        3Cu2py        3Cu2px        3Cu3pz        3Cu3py    
   26    3Cu3px        3Cu4pz        3Cu4py        3Cu4px        3Cu5pz        3Cu5py        3Cu5px        3Cu6pz        3Cu6py        3Cu6px    
   27    3Cu7pz        3Cu7py        3Cu7px        3Cu8pz        3Cu8py        3Cu8px        3Cu1d-2       3Cu1d-1       3Cu1d0        3Cu1d+1   
   28    3Cu1d+2       3Cu2d-2       3Cu2d-1       3Cu2d0        3Cu2d+1       3Cu2d+2       3Cu3d-2       3Cu3d-1       3Cu3d0        3Cu3d+1   
   29    3Cu3d+2       3Cu4d-2       3Cu4d-1       3Cu4d0        3Cu4d+1       3Cu4d+2       3Cu5d-2       3Cu5d-1       3Cu5d0        3Cu5d+1   
   30    3Cu5d+2       3Cu6d-2       3Cu6d-1       3Cu6d0        3Cu6d+1       3Cu6d+2       3Cu7d-2       3Cu7d-1       3Cu7d0        3Cu7d+1   
   31    3Cu7d+2       3Cu1f-3       3Cu1f-2       3Cu1f-1       3Cu1f0        3Cu1f+1       3Cu1f+2       3Cu1f+3       3Cu2f-3       3Cu2f-2   
   32    3Cu2f-1       3Cu2f0        3Cu2f+1       3Cu2f+2       3Cu2f+3       3Cu3f-3       3Cu3f-2       3Cu3f-1       3Cu3f0        3Cu3f+1   
   33    3Cu3f+2       3Cu3f+3       3Cu4f-3       3Cu4f-2       3Cu4f-1       3Cu4f0        3Cu4f+1       3Cu4f+2       3Cu4f+3       3Cu1g-4   
   34    3Cu1g-3       3Cu1g-2       3Cu1g-1       3Cu1g0        3Cu1g+1       3Cu1g+2       3Cu1g+3       3Cu1g+4       3Cu2g-4       3Cu2g-3   
   35    3Cu2g-2       3Cu2g-1       3Cu2g0        3Cu2g+1       3Cu2g+2       3Cu2g+3       3Cu2g+4       3Cu3g-4       3Cu3g-3       3Cu3g-2   
   36    3Cu3g-1       3Cu3g0        3Cu3g+1       3Cu3g+2       3Cu3g+3       3Cu3g+4       4Cu1s         4Cu2s         4Cu3s         4Cu4s     
   37    4Cu5s         4Cu6s         4Cu7s         4Cu8s         4Cu1pz        4Cu1py        4Cu1px        4Cu2pz        4Cu2py        4Cu2px    
   38    4Cu3pz        4Cu3py        4Cu3px        4Cu4pz        4Cu4py        4Cu4px        4Cu5pz        4Cu5py        4Cu5px        4Cu6pz    
   39    4Cu6py        4Cu6px        4Cu7pz        4Cu7py        4Cu7px        4Cu8pz        4Cu8py        4Cu8px        4Cu1d-2       4Cu1d-1   
   40    4Cu1d0        4Cu1d+1       4Cu1d+2       4Cu2d-2       4Cu2d-1       4Cu2d0        4Cu2d+1       4Cu2d+2       4Cu3d-2       4Cu3d-1   
[...]
   99    3Cu2h-2       3Cu2h-1       3Cu2h0        3Cu2h+1       3Cu2h+2       3Cu2h+3       3Cu2h+4       3Cu2h+5       3Cu3h-5       3Cu3h-4   
  100    3Cu3h-3       3Cu3h-2       3Cu3h-1       3Cu3h0        3Cu3h+1       3Cu3h+2       3Cu3h+3       3Cu3h+4       3Cu3h+5       3Cu4h-5   
  101    3Cu4h-4       3Cu4h-3       3Cu4h-2       3Cu4h-1       3Cu4h0        3Cu4h+1       3Cu4h+2       3Cu4h+3       3Cu4h+4       3Cu4h+5   
  102    3Cu5h-5       3Cu5h-4       3Cu5h-3       3Cu5h-2       3Cu5h-1       3Cu5h0        3Cu5h+1       3Cu5h+2       3Cu5h+3       3Cu5h+4   
  103    3Cu5h+5       3Cu1i-6       3Cu1i-5       3Cu1i-4       3Cu1i-3       3Cu1i-2       3Cu1i-1       3Cu1i0        3Cu1i+1       3Cu1i+2   
  104    3Cu1i+3       3Cu1i+4       3Cu1i+5       3Cu1i+6       3Cu2i-6       3Cu2i-5       3Cu2i-4       3Cu2i-3       3Cu2i-2       3Cu2i-1   
  105    3Cu2i0        3Cu2i+1       3Cu2i+2       3Cu2i+3       3Cu2i+4       3Cu2i+5       3Cu2i+6       3Cu3i-6       3Cu3i-5       3Cu3i-4   
  106    3Cu3i-3       3Cu3i-2       3Cu3i-1       3Cu3i0        3Cu3i+1       3Cu3i+2       3Cu3i+3       3Cu3i+4       3Cu3i+5       3Cu3i+6   
  107    3Cu4i-6       3Cu4i-5       3Cu4i-4       3Cu4i-3       3Cu4i-2       3Cu4i-1       3Cu4i0        3Cu4i+1       3Cu4i+2       3Cu4i+3   
  108    3Cu4i+4       3Cu4i+5       3Cu4i+6       4Cu1s         4Cu2s         4Cu3s         4Cu4s         4Cu5s         4Cu6s         4Cu7s     
  109    4Cu8s         4Cu9s         4Cu10s        4Cu11s        4Cu12s        4Cu13s        4Cu1pz        4Cu1py        4Cu1px        4Cu2pz    
  110    4Cu2py        4Cu2px        4Cu3pz        4Cu3py        4Cu3px        4Cu4pz        4Cu4py        4Cu4px        4Cu5pz        4Cu5py    
  111    4Cu5px        4Cu6pz        4Cu6py        4Cu6px        4Cu7pz        4Cu7py        4Cu7px        4Cu8pz        4Cu8py        4Cu8px    
  112    4Cu9pz        4Cu9py        4Cu9px        4Cu10pz       4Cu10py       4Cu10px       4Cu11pz       4Cu11py       4Cu11px       4Cu12pz   
  113    4Cu12py       4Cu12px       4Cu13pz       4Cu13py       4Cu13px       4Cu1d-2       4Cu1d-1       4Cu1d0        4Cu1d+1       4Cu1d+2   
  114    4Cu2d-2       4Cu2d-1       4Cu2d0        4Cu2d+1       4Cu2d+2       4Cu3d-2       4Cu3d-1       4Cu3d0        4Cu3d+1       4Cu3d+2   
  115    4Cu4d-2       4Cu4d-1       4Cu4d0        4Cu4d+1       4Cu4d+2       4Cu5d-2       4Cu5d-1       4Cu5d0        4Cu5d+1       4Cu5d+2   
  116    4Cu6d-2       4Cu6d-1       4Cu6d0        4Cu6d+1       4Cu6d+2       4Cu7d-2       4Cu7d-1       4Cu7d0        4Cu7d+1       4Cu7d+2   
  117    4Cu8d-2       4Cu8d-1       4Cu8d0        4Cu8d+1       4Cu8d+2       4Cu9d-2       4Cu9d-1       4Cu9d0        4Cu9d+1       4Cu9d+2   
  118    4Cu10d-2      4Cu10d-1      4Cu10d0       4Cu10d+1      4Cu10d+2      4Cu11d-2      4Cu11d-1      4Cu11d0       4Cu11d+1      4Cu11d+2  
  119    4Cu12d-2      4Cu12d-1      4Cu12d0       4Cu12d+1      4Cu12d+2      4Cu1f-3       4Cu1f-2       4Cu1f-1       4Cu1f0        4Cu1f+1   
  120    4Cu1f+2       4Cu1f+3       4Cu2f-3       4Cu2f-2       4Cu2f-1       4Cu2f0        4Cu2f+1       4Cu2f+2       4Cu2f+3       4Cu3f-3   
  121    4Cu3f-2       4Cu3f-1       4Cu3f0        4Cu3f+1       4Cu3f+2       4Cu3f+3       4Cu4f-3       4Cu4f-2       4Cu4f-1       4Cu4f0    
  122    4Cu4f+1       4Cu4f+2       4Cu4f+3       4Cu5f-3       4Cu5f-2       4Cu5f-1       4Cu5f0        4Cu5f+1       4Cu5f+2       4Cu5f+3   
  123    4Cu6f-3       4Cu6f-2       4Cu6f-1       4Cu6f0        4Cu6f+1       4Cu6f+2       4Cu6f+3       4Cu7f-3       4Cu7f-2       4Cu7f-1   
  124    4Cu7f0        4Cu7f+1       4Cu7f+2       4Cu7f+3       4Cu8f-3       4Cu8f-2       4Cu8f-1       4Cu8f0        4Cu8f+1       4Cu8f+2   
  125    4Cu8f+3       4Cu9f-3       4Cu9f-2       4Cu9f-1       4Cu9f0        4Cu9f+1       4Cu9f+2       4Cu9f+3       4Cu10f-3      4Cu10f-2  
  126    4Cu10f-1      4Cu10f0       4Cu10f+1      4Cu10f+2      4Cu10f+3      4Cu1g-4       4Cu1g-3       4Cu1g-2       4Cu1g-1       4Cu1g0    
  127    4Cu1g+1       4Cu1g+2       4Cu1g+3       4Cu1g+4       4Cu2g-4       4Cu2g-3       4Cu2g-2       4Cu2g-1       4Cu2g0        4Cu2g+1   
  128    4Cu2g+2       4Cu2g+3       4Cu2g+4       4Cu3g-4       4Cu3g-3       4Cu3g-2       4Cu3g-1       4Cu3g0        4Cu3g+1       4Cu3g+2   
  129    4Cu3g+3       4Cu3g+4       4Cu4g-4       4Cu4g-3       4Cu4g-2       4Cu4g-1       4Cu4g0        4Cu4g+1       4Cu4g+2       4Cu4g+3   
  130    4Cu4g+4       4Cu5g-4       4Cu5g-3       4Cu5g-2       4Cu5g-1       4Cu5g0        4Cu5g+1       4Cu5g+2       4Cu5g+3       4Cu5g+4   
  131    4Cu6g-4       4Cu6g-3       4Cu6g-2       4Cu6g-1       4Cu6g0        4Cu6g+1       4Cu6g+2       4Cu6g+3       4Cu6g+4       4Cu7g-4   
  132    4Cu7g-3       4Cu7g-2       4Cu7g-1       4Cu7g0        4Cu7g+1       4Cu7g+2       4Cu7g+3       4Cu7g+4       4Cu8g-4       4Cu8g-3   
  133    4Cu8g-2       4Cu8g-1       4Cu8g0        4Cu8g+1       4Cu8g+2       4Cu8g+3       4Cu8g+4       4Cu1h-5       4Cu1h-4       4Cu1h-3   
  134    4Cu1h-2       4Cu1h-1       4Cu1h0        4Cu1h+1       4Cu1h+2       4Cu1h+3       4Cu1h+4       4Cu1h+5       4Cu2h-5       4Cu2h-4   
  135    4Cu2h-3       4Cu2h-2       4Cu2h-1       4Cu2h0        4Cu2h+1       4Cu2h+2       4Cu2h+3       4Cu2h+4       4Cu2h+5       4Cu3h-5   
  136    4Cu3h-4       4Cu3h-3       4Cu3h-2       4Cu3h-1       4Cu3h0        4Cu3h+1       4Cu3h+2       4Cu3h+3       4Cu3h+4       4Cu3h+5   
  137    4Cu4h-5       4Cu4h-4       4Cu4h-3       4Cu4h-2       4Cu4h-1       4Cu4h0        4Cu4h+1       4Cu4h+2       4Cu4h+3       4Cu4h+4   
  138    4Cu4h+5       4Cu5h-5       4Cu5h-4       4Cu5h-3       4Cu5h-2       4Cu5h-1       4Cu5h0        4Cu5h+1       4Cu5h+2       4Cu5h+3   
  139    4Cu5h+4       4Cu5h+5       4Cu1i-6       4Cu1i-5       4Cu1i-4       4Cu1i-3       4Cu1i-2       4Cu1i-1       4Cu1i0        4Cu1i+1   
  140    4Cu1i+2       4Cu1i+3       4Cu1i+4       4Cu1i+5       4Cu1i+6       4Cu2i-6       4Cu2i-5       4Cu2i-4       4Cu2i-3       4Cu2i-2   
  141    4Cu2i-1       4Cu2i0        4Cu2i+1       4Cu2i+2       4Cu2i+3       4Cu2i+4       4Cu2i+5       4Cu2i+6       4Cu3i-6       4Cu3i-5   
  142    4Cu3i-4       4Cu3i-3       4Cu3i-2       4Cu3i-1       4Cu3i0        4Cu3i+1       4Cu3i+2       4Cu3i+3       4Cu3i+4       4Cu3i+5   
  143    4Cu3i+6       4Cu4i-6       4Cu4i-5       4Cu4i-4       4Cu4i-3       4Cu4i-2       4Cu4i-1       4Cu4i0        4Cu4i+1       4Cu4i+2   
  144    4Cu4i+3       4Cu4i+4       4Cu4i+5       4Cu4i+6   
 
 Maximum number of basis functions per shell:   72
 Total number of basis functions:   1444
 
 
 Old basis set for SCF restart
 
   1  Cu def2-svp [ 14s 9p 5d 1f | 5s 3p 2d 1f ]
   2  Cu def2-svp [ 14s 9p 5d 1f | 5s 3p 2d 1f ]
   3  Cu def2-svp [ 14s 9p 5d 1f | 5s 3p 2d 1f ]
   4  Cu def2-svp [ 14s 9p 5d 1f | 5s 3p 2d 1f ]
 
 Basis functions:
            1             2             3             4             5             6             7             8             9            10
    0    1Cu1s         1Cu2s         1Cu3s         1Cu4s         1Cu5s         1Cu1pz        1Cu1py        1Cu1px        1Cu2pz        1Cu2py    
    1    1Cu2px        1Cu3pz        1Cu3py        1Cu3px        1Cu1d-2       1Cu1d-1       1Cu1d0        1Cu1d+1       1Cu1d+2       1Cu2d-2   
    2    1Cu2d-1       1Cu2d0        1Cu2d+1       1Cu2d+2       1Cu1f-3       1Cu1f-2       1Cu1f-1       1Cu1f0        1Cu1f+1       1Cu1f+2   
    3    1Cu1f+3       2Cu1s         2Cu2s         2Cu3s         2Cu4s         2Cu5s         2Cu1pz        2Cu1py        2Cu1px        2Cu2pz    
    4    2Cu2py        2Cu2px        2Cu3pz        2Cu3py        2Cu3px        2Cu1d-2       2Cu1d-1       2Cu1d0        2Cu1d+1       2Cu1d+2   
    5    2Cu2d-2       2Cu2d-1       2Cu2d0        2Cu2d+1       2Cu2d+2       2Cu1f-3       2Cu1f-2       2Cu1f-1       2Cu1f0        2Cu1f+1   
    6    2Cu1f+2       2Cu1f+3       3Cu1s         3Cu2s         3Cu3s         3Cu4s         3Cu5s         3Cu1pz        3Cu1py        3Cu1px    
    7    3Cu2pz        3Cu2py        3Cu2px        3Cu3pz        3Cu3py        3Cu3px        3Cu1d-2       3Cu1d-1       3Cu1d0        3Cu1d+1   
    8    3Cu1d+2       3Cu2d-2       3Cu2d-1       3Cu2d0        3Cu2d+1       3Cu2d+2       3Cu1f-3       3Cu1f-2       3Cu1f-1       3Cu1f0    
    9    3Cu1f+1       3Cu1f+2       3Cu1f+3       4Cu1s         4Cu2s         4Cu3s         4Cu4s         4Cu5s         4Cu1pz        4Cu1py    
   10    4Cu1px        4Cu2pz        4Cu2py        4Cu2px        4Cu3pz        4Cu3py        4Cu3px        4Cu1d-2       4Cu1d-1       4Cu1d0    
   11    4Cu1d+1       4Cu1d+2       4Cu2d-2       4Cu2d-1       4Cu2d0        4Cu2d+1       4Cu2d+2       4Cu1f-3       4Cu1f-2       4Cu1f-1   
   12    4Cu1f0        4Cu1f+1       4Cu1f+2       4Cu1f+3   
 
 Maximum number of basis functions per shell:   72
 Total number of basis functions:    124
 
 
 Effective core potentials:
 
   2  Cu mcdhf-ecp-10        
 
 Calculation of prescreening integrals...
 CPU time [min]:     5.244                   Wall time [min]:     0.233
 
 Calculation of two-center Coulomb integrals...
   1% done.
  14% done.
  25% done.
  39% done.
  51% done.
  62% done.
  77% done.
  93% done.
 100% done.
 CPU time [min]:     5.262                   Wall time [min]:     0.234
 
 Cholesky decomposition of the inverse of the two-center matrix...
 CPU time [min]:     5.297                   Wall time [min]:     0.235
 
 Calculation of three-center Coulomb integrals...
   2% done.
  15% done.
  27% done.
  41% done.
  56% done.
  67% done.
  79% done.
 100% done.
 CPU time [min]:     6.723                   Wall time [min]:     0.338

 ************************ 2022-11-12 10:19:49 *************************
 Executing drpa...

 Three-index integral transformation
 
 Allocation of 150.0 Gbytes of memory...

 Alpha-alpha contribution
 Minimal memory requirement for (ai|P) and (ij|P) integrals:       61.4 MB

 Calculating (ai|P) and (ij|P) integrals...
 Number of integral batches:    1
 Occupied indices per batch:   10
 
 Transforming integrals of batch 1...
 CPU time [min]:     1.777                   Wall time [min]:     0.113


 Beta-beta and alpha-beta contribution
 Minimal memory requirement for (ai|P) and (ij|P) integrals:      146.6 MB

 Calculating (ai|P) and (ij|P) integrals...
 Number of integral batches:    1
 Occupied indices per batch:    9
 
 Transforming integrals of batch 1...
 CPU time [min]:     6.612                   Wall time [min]:     0.541



 Alpha-alpha contribution

 Constructing MP2 natural orbitals...

 Threshold for individual occupations:     5.0000E-06
 Corresponding cummulative occupation threshold:  0.99966356  0.99962621
 Total number of virtual orbitals:     478
 Number of virtual natural orbitals:    99  (20.71%)
 
 Transforming (ai|P) integrals to the NO basis...
 Number of integral batches:    1
 Occupied indices per batch:   10
 
 Transforming integrals of batch 1 to the NO basis...
 CPU time [min]:     6.718                   Wall time [min]:     0.546

 Calculating (ab|P) integrals...
 Minimal memory requirement for (ab|P) integrals:       35.9 MB
 Number of integral batches:    1
 Virtual indices per batch:    99

 Transforming integrals of batch 1...
 CPU time [min]:     7.214                   Wall time [min]:     0.896


 Beta-beta and alpha-beta contribution

 Constructing MP2 natural orbitals...

 Threshold for individual occupations:     5.0000E-06
 Corresponding cummulative occupation threshold:  0.99969070  0.99964633
 Total number of virtual orbitals:     479
 Number of virtual natural orbitals:    99  (20.67%)
 
 Transforming (ai|P) integrals to the NO basis...
 Number of integral batches:    1
 Occupied indices per batch:    9
 
 Transforming integrals of batch 1 to the NO basis...
 CPU time [min]:     7.387                   Wall time [min]:     0.904

 Calculating (ab|P) integrals...
 Minimal memory requirement for (ab|P) integrals:       35.9 MB
 Number of integral batches:    1
 Virtual indices per batch:    99

 Transforming integrals of batch 1...
 CPU time [min]:     7.883                   Wall time [min]:     1.254



 Alpha-alpha contribution

 Constructing natural auxiliary functions...

 Threshold for eigenvalues:     2.0000E-02
 Total number of auxiliary functions:    1444
 Number of natural auxiliary functions:   317  (21.95%)

 Transforming (ai|P) and (ij|P) integrals to the NAF basis...
 Number of integral batches:    1
 Occupied indices per batch:   10
 
 Transforming integrals of batch 1 to the NAF basis...
 CPU time [min]:     8.053                   Wall time [min]:     1.262

 Transforming (ab|P) integrals to the NAF basis...
 Number of integral batches:    1
 Virtual indices per batch:    99

 Transforming integrals of batch 1 to the NAF basis...
 CPU time [min]:     8.092                   Wall time [min]:     1.263


 Beta-beta and alpha-beta contribution

 Transforming (ai|P) and (ij|P) integrals to the NAF basis...
 Number of integral batches:    1
 Occupied indices per batch:    9
 
 Transforming integrals of batch 1 to the NAF basis...
 CPU time [min]:     8.224                   Wall time [min]:     1.269

 Transforming (ab|P) integrals to the NAF basis...
 Number of integral batches:    1
 Virtual indices per batch:    99

 Transforming integrals of batch 1 to the NAF basis...
 CPU time [min]:     8.262                   Wall time [min]:     1.271
 

 Results in full basis:
 
 
 Reference energy [au]:                      -196.175973532804
 DF-MP2 singlet pair energy [au]:              -0.703486251841
 DF-MP2 triplet pair energy [au]:              -0.329153748245
 DF-SCS-MP2 correlation energy [au]:           -0.953901418291
 DF-SCS-MP2 energy [au]:                     -197.129874951095
 DF-SOS-MP2 correlation energy [au]:           -0.914532127393
 DF-SOS-MP2 energy [au]:                     -197.090505660198
 DF-MP2 correlation energy [au]:               -1.032640000086
 DF-MP2 energy [au]:                         -197.208613532891

 Results in FNO basis:
 
 
 Reference energy [au]:                      -196.175973532804
 DF-MP2 singlet pair energy [au]:              -0.701937216977
 DF-MP2 triplet pair energy [au]:              -0.328846214667
 DF-SCS-MP2 correlation energy [au]:           -0.951940065262
 DF-SCS-MP2 energy [au]:                     -197.127913598066
 DF-SOS-MP2 correlation energy [au]:           -0.912518382070
 DF-SOS-MP2 energy [au]:                     -197.088491914875
 DF-MP2 correlation energy [au]:               -1.030783431644
 DF-MP2 energy [au]:                         -197.206756964449

 Results in NAF basis:
 
 
 Reference energy [au]:                      -196.175973532804
 DF-MP2 singlet pair energy [au]:              -0.701863118961
 DF-MP2 triplet pair energy [au]:              -0.328825009964
 DF-SCS-MP2 correlation energy [au]:           -0.951844079408
 DF-SCS-MP2 energy [au]:                     -197.127817612213
 DF-SOS-MP2 correlation energy [au]:           -0.912422054650
 DF-SOS-MP2 energy [au]:                     -197.088395587454
 DF-MP2 correlation energy [au]:               -1.030688128925
 DF-MP2 energy [au]:                         -197.206661661730

 ************************ 2022-11-12 10:21:06 *************************
 Executing uccsd...

 Allocation of 150.0 Gbytes of memory...
 
 UHF reference wavefunction.
 Canonical DF-CCSD(T) calculation.
 Number of correlated alpha electrons:       10
 Number of correlated beta electrons:         9
 Number of virtual alpha orbitals:           99
 Number of virtual beta orbitals:            99
 Number of auxiliary basis functions:       317
 Minimal memory requirement for CCSD:  59.21 MB
 Disk space requirement for CCSD:     277.72 MB
 Minimal memory requirement for (T):   78.01 MB
 Disk space requirement for (T):      362.53 MB
 
 Assembling four center integrals... Done!
 CPU time [min]:     0.390                   Wall time [min]:     0.021
 
 Reference energy [au]:                     -196.175973532804
 T1 contributions [au]:                       -0.000000000000
 Same spin MP2 energy [au]:                   -0.328835591499
 Opposite spin MP2 energy [au]:               -0.701900142069
 MP2 correlation energy [au]:                 -1.030735733567
 Total MP2 energy [au]:                     -197.206709266372
 MP2 correction [au]:                         -0.001904266519
 
 Projected  S^2 /   T1,    T2, total/   -0.000000   0.000000   0.752154
 
 Starting CCSD iterations...
 
                     Residual norm     Correlation energy [au]
 -------------------------------------------------------------
 Iteration  1       0.194804006405        -0.854277030652
 Iteration  2       0.140166714996        -0.908761872720
 Iteration  3       0.024957009761        -0.919516343089
 Iteration  4       0.009662589683        -0.917262702214
 Iteration  5       0.001578728646        -0.917205938503
 Iteration  6       0.000347640722        -0.917233051816
 Iteration  7       0.000153581848        -0.917213355039
 Iteration  8       0.000058189113        -0.917205013587
 Iteration  9       0.000031537297        -0.917208149641
 Iteration 10       0.000011627399        -0.917211095698
 Iteration 11       0.000008226147        -0.917210545983
 
 CCSD iteration has converged in 11 steps.
 
 T1 contribution [au]:                                  0.000000000000
 PPL energy contribution [au]:                          0.118792321103
 Scaled PPL energy contribution [au]:                   0.119009864071
 
 OS-PPL energy contribution [au]:                       0.089402517705
 Scaled OS-PPL energy contribution [au]:                0.089602314209
 SS-PPL energy contribution [au]:                       0.029389803397
 Scaled SS-PPL energy contribution [au]:                0.029418154037
 
 Opposite spin CCSD energy [au]:                       -0.653061122144
 Same spin CCSD energy [au]:                           -0.264200331468
 CCSD correlation energy [au]:                         -0.917261453613
 CCSD correlation energy + MP2 correction [au]:        -0.919165720132
 CCSD correlation energy + MP2 + PPL corr. [au]:       -0.918948177164
 Total CCSD energy [au]:                             -197.093234986417
 Total CCSD energy + MP2 correction [au]:            -197.095139252936
 Total CCSD energy + MP2 + PPL corr. [au]:           -197.094921709968
 
 Projected  S^2 /   T1,    T2, total/   -0.000009   0.000000   0.752145
 
 Alpha T1 diagnostic:      3.032E-02      D1 diagnostic:      7.148E-02
 Beta  T1 diagnostic:      2.539E-02      D1 diagnostic:      3.424E-02
 CPU time [min]:    11.625                   Wall time [min]:     0.609
 
 Calculation of (T) correction...
   1% done.
  12% done.
  24% done.
  35% done.
  47% done.
  58% done.
  72% done.
  86% done.
 100% done.
 
 (T) correction [au]:                                 -0.032845433994
 (T*) correction [au]:                                -0.032906115367
 (T+) correction [au]:                                -0.032903003237
 CCSD(T) correlation energy [au]:                     -0.950106887606
 CCSD(T) correlation energy + MP2 correction [au]:    -0.952011154125
 CCSD(T+) correlation en. + MP2 + PPL corr. [au]:     -0.951851180401
 Total CCSD(T) energy [au]:                         -197.126080420411
 Total CCSD(T) energy + MP2 correction [au]:        -197.127984686930
 Total CCSD(T+) energy + MP2 + PPL corr. [au]:      -197.127824713205
 
 CPU time [min]:    13.498                   Wall time [min]:     0.759
 
 ************************ 2022-11-12 10:21:52 *************************
                      Normal termination of mrcc.
 **********************************************************************
