 vasp.6.3.0 20Jan22 (build Apr  1 2022 16:44:48) complex                         
 executed on        HPECrayEX_GCC date 2022.11.18  21:44:11
 running 2048 mpi-ranks, with    1 threads/rank
 distrk:  each k-point on 1024 cores,    2 groups
 distr:  one band on NCORE=   4 cores,  256 groups


--------------------------------------------------------------------------------------------------------


 INCAR:
   SYSTEM = MgO-rocksalt
   ISMEAR = 0
   SIGMA = 0.05
   EDIFF = 1E-6
   ALGO = ALL
   ISTART = 0
   IBRION = -1
   NSW = 0
   ISYM = 2
   DIPOL = 0.5 0.5 0.5
   IDIPOL = 3
   LDIPOL = .TRUE.
   LHFCALC = .TRUE.
   HFSCREEN = 0.2
   GGA = PE
   IVDW = 13
   VDW_S8 = 1.19528249
   VDW_A1 = 0.38663183
   VDW_A2 = 5.19133469
   ENCUT = 520
   PREC = Accurate
   LASPH = .TRUE.
   LREAL = Auto
   ISPIN = 1
   NELM = 200
   NELMIN = 8
   NCORE = 4
   KPAR = 2
   LWAVE = .FALSE.
   LCHARG = .FALSE.

 POTCAR:    PAW_PBE Cu 22Jun2005                  
 -----------------------------------------------------------------------------
|                                                                             |
|           W    W    AA    RRRRR   N    N  II  N    N   GGGG   !!!           |
|           W    W   A  A   R    R  NN   N  II  NN   N  G    G  !!!           |
|           W    W  A    A  R    R  N N  N  II  N N  N  G       !!!           |
|           W WW W  AAAAAA  RRRRR   N  N N  II  N  N N  G  GGG   !            |
|           WW  WW  A    A  R   R   N   NN  II  N   NN  G    G                |
|           W    W  A    A  R    R  N    N  II  N    N   GGGG   !!!           |
|                                                                             |
|     You have selected ISYM=2 for a HF type calculation. This will           |
|     symmetrize the charge density but not the exchange potential. I         |
|     suggest to use ISYM=3 instead. This uses symmetry to obtain the         |
|     orbitals at all k-points in the Brillouin zone, but does not apply      |
|     symmetry to the Hartree potential directly. The resultant charge        |
|     might have lower symmetry than the crystal but, at least, Hartree       |
|     and exchange are fully compatible.                                      |
|                                                                             |
 -----------------------------------------------------------------------------

 POTCAR:    PAW_PBE Cu 22Jun2005                  
   SHA256 =  0e71e558f37a4e8407882b4609ceaae59938afaad9ced71dfe8490308a0ab630 Cu/POTCAR             
   COPYR  = (c) Copyright 22Jun2005 Georg Kresse                                                    
   COPYR  = This file is part of the software VASP. Any use, copying, and all other rights are regul
   COPYR  = If you do not have a valid VASP license, you may not use, copy or distribute this file. 
   VRHFIN =Cu: d10 p1                                                                               
   LEXCH  = PE                                                                                      
   EATOM  =  1390.9808 eV,  102.2342 Ry                                                             
                                                                                                    
   TITEL  = PAW_PBE Cu 22Jun2005                                                                    
   LULTRA =        F    use ultrasoft PP ?                                                          
   IUNSCR =        1    unscreen: 0-lin 1-nonlin 2-no                                               
   RPACOR =    2.000    partial core radius                                                         
   POMASS =   63.546; ZVAL   =   11.000    mass and valenz                                          
   RCORE  =    2.300    outmost cutoff radius                                                       
   RWIGS  =    2.200; RWIGS  =    1.164    wigner-seitz radius (au A)                               
   ENMAX  =  295.446; ENMIN  =  221.585 eV                                                          
   ICORE  =        3    local potential                                                             
   LCOR   =        T    correct aug charges                                                         
   LPAW   =        T    paw PP                                                                      
   EAUG   =  586.980                                                                                
   DEXC   =    0.000                                                                                
   RMAX   =    2.344    core radius for proj-oper                                                   
   RAUG   =    1.300    factor for augmentation sphere                                              
   RDEP   =    2.302    radius for radial grids                                                     
   RDEPT  =    1.771    core radius for aug-charge                                                  
                                                                                                    
   Atomic configuration                                                                             
    9 entries                                                                                       
     n  l   j            E        occ.                                                              
     1  0  0.50     -8850.2468   2.0000                                                             
     2  0  0.50     -1062.3498   2.0000                                                             
     2  1  1.50      -916.8226   6.0000                                                             
     3  0  0.50      -114.6929   2.0000                                                             
     3  1  1.50       -72.1325   6.0000                                                             
     3  2  2.50        -5.0394  10.0000                                                             
     4  0  0.50        -4.6097   1.0000                                                             
     4  1  0.50        -4.0817   0.0000                                                             
     4  3  2.50        -1.3606   0.0000                                                             
   Description                                                                                      
     l       E           TYP  RCUT    TYP  RCUT                                                     
     2     -5.0393973     23  2.200                                                                 
     2     10.8846608     23  2.200                                                                 
     0     -4.6097109     23  2.200                                                                 
     0      8.2520465     23  2.200                                                                 
     1     -2.7211652     23  2.200                                                                 
     1     21.7055443     23  2.200                                                                 
     3      2.7211652     23  2.300                                                                 
  local pseudopotential read in
  partial core-charges read in
  partial kinetic energy density read in
  atomic valenz-charges read in
  non local Contribution for L=           2  read in
    real space projection operators read in
  non local Contribution for L=           2  read in
    real space projection operators read in
  non local Contribution for L=           0  read in
    real space projection operators read in
  non local Contribution for L=           0  read in
    real space projection operators read in
  non local Contribution for L=           1  read in
    real space projection operators read in
  non local Contribution for L=           1  read in
    real space projection operators read in
    PAW grid and wavefunctions read in

   number of l-projection  operators is LMAX  =           6
   number of lm-projection operators is LMMAX =          18

 -----------------------------------------------------------------------------
|                                                                             |
|               ----> ADVICE to this user running VASP <----                  |
|                                                                             |
|     You have a (more or less) 'small supercell' and for smaller cells       |
|     it is recommended to use the reciprocal-space projection scheme!        |
|     The real-space optimization is not efficient for small cells and it     |
|     is also less accurate ...                                               |
|     Therefore, set LREAL=.FALSE. in the INCAR file.                         |
|                                                                             |
 -----------------------------------------------------------------------------

 Optimization of the real space projectors (new method)

 maximal supplied QI-value         = 16.25
 optimisation between [QCUT,QGAM] = [ 11.54, 23.24] = [ 37.28,151.24] Ry 
 Optimized for a Real-space Cutoff    1.53 Angstroem

   l    n(q)    QCUT    max X(q) W(low)/X(q) W(high)/X(q)  e(spline) 
   2     10    11.539     4.610    0.96E-04    0.13E-03    0.19E-06
   2     10    11.539     8.522    0.16E-03    0.21E-03    0.28E-06
   0     11    11.539    51.609    0.45E-04    0.31E-04    0.11E-06
   0     11    11.539    27.747    0.39E-04    0.29E-04    0.10E-06
   1     10    11.539    20.408    0.70E-05    0.38E-04    0.18E-06
   1     10    11.539    13.425    0.66E-05    0.34E-04    0.17E-06
  PAW_PBE Cu 22Jun2005                  :
 energy of atom  1       EATOM=-1390.9808
 kinetic energy error for atom=    0.0037 (will be added to EATOM!!)


 POSCAR: Cu
  positions in direct lattice
  No initial velocities read in
 -----------------------------------------------------------------------------
|                                                                             |
|           W    W    AA    RRRRR   N    N  II  N    N   GGGG   !!!           |
|           W    W   A  A   R    R  NN   N  II  NN   N  G    G  !!!           |
|           W    W  A    A  R    R  N N  N  II  N N  N  G       !!!           |
|           W WW W  AAAAAA  RRRRR   N  N N  II  N  N N  G  GGG   !            |
|           WW  WW  A    A  R   R   N   NN  II  N   NN  G    G                |
|           W    W  A    A  R    R  N    N  II  N    N   GGGG   !!!           |
|                                                                             |
|     Specifying the vdW parameters                                           |
|     VDW_S8 = 1.195                                                          |
|     VDW_A1 = 0.387                                                          |
|     VDW_A2 = 5.191                                                          |
|     in the INCAR file will overwrite the defaults for hse06. Please         |
|     make sure that is what you intended.                                    |
|                                                                             |
 -----------------------------------------------------------------------------

 exchange correlation table for  LEXCH =        8
   RHO(1)=    0.500       N(1)  =     2000
   RHO(2)=  100.500       N(2)  =     4000



--------------------------------------------------------------------------------------------------------


 ion  position               nearest neighbor table
   1  0.500  0.600  0.727-   2 2.22
   2  0.500  0.600  0.627-   1 2.22

  LATTYP: Found a simple tetragonal cell.
 ALAT       =    21.1388521970
 C/A-ratio  =     1.0461251639
  
  Lattice vectors:
  
 A1 = (  21.1388521970,   0.0000000000,   0.0000000000)
 A2 = (   0.0000000000,  21.1388521970,   0.0000000000)
 A3 = (   0.0000000000,   0.0000000000,  22.1138852197)


Analysis of symmetry for initial positions (statically):
=====================================================================
 Subroutine PRICEL returns:
 Original cell was already a primitive cell.
 

 Routine SETGRP: Setting up the symmetry group for a 
 simple tetragonal supercell.


 Subroutine GETGRP returns: Found 16 space group operations
 (whereof  2 operations were pure point group operations)
 out of a pool of 16 trial point group operations.


The static configuration has the point symmetry C_1h.
 The point group associated with its full space group is D_4h.


Analysis of symmetry for dynamics (positions and initial velocities):
=====================================================================
 Subroutine PRICEL returns:
 Original cell was already a primitive cell.
 

 Routine SETGRP: Setting up the symmetry group for a 
 simple tetragonal supercell.


 Subroutine GETGRP returns: Found 16 space group operations
 (whereof  2 operations were pure point group operations)
 out of a pool of 16 trial point group operations.


The dynamic configuration has the point symmetry C_1h.
 The point group associated with its full space group is D_4h.


 Subroutine INISYM returns: Found 16 space group operations
 (whereof  2 operations are pure point group operations),
 and found     1 'primitive' translations


----------------------------------------------------------------------------------------

                                     Primitive cell                                     

  volume of cell :    9881.6133

  direct lattice vectors                    reciprocal lattice vectors
    21.138852197  0.000000000  0.000000000     0.047306258  0.000000000  0.000000000
     0.000000000 21.138852197  0.000000000     0.000000000  0.047306258  0.000000000
     0.000000000  0.000000000 22.113885220     0.000000000  0.000000000  0.045220457

  length of vectors
    21.138852197 21.138852197 22.113885220     0.047306258  0.047306258  0.045220457

  position of ions in fractional coordinates (direct lattice)
     0.499999974  0.599999938  0.727338351
     0.499999974  0.599999938  0.626793897

  ion indices of the primitive-cell ions
   primitive index   ion index
                 1           1
                 2           2

----------------------------------------------------------------------------------------



 KPOINTS: KPOINTS created by Atomic Simulation Env

Automatic generation of k-mesh.
 Grid dimensions read from file:
 generate k-points for:    1    1    1

 Generating k-lattice:

  Cartesian coordinates                     Fractional coordinates (reciprocal lattice)
     0.047306258  0.000000000  0.000000000     1.000000000  0.000000000  0.000000000
     0.000000000  0.047306258  0.000000000     0.000000000  1.000000000  0.000000000
     0.000000000  0.000000000  0.045220457     0.000000000  0.000000000  1.000000000

  Length of vectors
     0.047306258  0.047306258  0.045220457

  Shift w.r.t. Gamma in fractional coordinates (k-lattice)
     0.000000000  0.000000000  0.000000000

 
 Subroutine IBZKPT returns following result:
 ===========================================
 
 Found      1 irreducible k-points:
 
 Following reciprocal coordinates:
            Coordinates               Weight
  0.000000  0.000000  0.000000      1.000000
 
 Following cartesian coordinates:
            Coordinates               Weight
  0.000000  0.000000  0.000000      1.000000
 
 
 Subroutine IBZKPT_HF returns following result:
 ==============================================
 
 Found      1 k-points in 1st BZ
 the following      1 k-points will be used (e.g. in the exchange kernel)
 Following reciprocal coordinates:   # in IRBZ
  0.000000  0.000000  0.000000    1.00000000   1 t-inv F


--------------------------------------------------------------------------------------------------------




 Dimension of arrays:
   k-points           NKPTS =      1   k-points in BZ     NKDIM =      1   number of bands    NBANDS=    256
   number of dos      NEDOS =    301   number of ions     NIONS =      2
   non local maximal  LDIM  =      6   non local SUM 2l+1 LMDIM =     18
   total plane-waves  NPLWV = ******
   max r-space proj   IRMAX =   6628   max aug-charges    IRDMAX=  12805
   dimension x,y,z NGX =   160 NGY =  160 NGZ =  168
   dimension x,y,z NGXF=   320 NGYF=  320 NGZF=  336
   support grid    NGXF=   320 NGYF=  320 NGZF=  336
   ions per type =               2
   NGX,Y,Z   is equivalent  to a cutoff of  12.58, 12.58, 12.63 a.u.
   NGXF,Y,Z  is equivalent  to a cutoff of  25.17, 25.17, 25.26 a.u.

 SYSTEM =  MgO-rocksalt                            
 POSCAR =  Cu                                      

 Startparameter for this run:
   NWRITE =      2    write-flag & timer
   PREC   = accura    normal or accurate (medium, high low for compatibility)
   ISTART =      0    job   : 0-new  1-cont  2-samecut
   ICHARG =      2    charge: 1-file 2-atom 10-const
   ISPIN  =      1    spin polarized calculation?
   LNONCOLLINEAR =      F non collinear calculations
   LSORBIT =      F    spin-orbit coupling
   INIWAV =      1    electr: 0-lowe 1-rand  2-diag
   LASPH  =      T    aspherical Exc in radial PAW
 Electronic Relaxation 1
   ENCUT  =  520.0 eV  38.22 Ry    6.18 a.u.  39.30 39.30 41.12*2*pi/ulx,y,z
   ENINI  =  520.0     initial cutoff
   ENAUG  =  587.0 eV  augmentation charge cutoff
   NELM   =    200;   NELMIN=  8; NELMDL= -5     # of ELM steps 
   EDIFF  = 0.1E-05   stopping-criterion for ELM
   LREAL  =      T    real-space projection
   NLSPLINE    = F    spline interpolate recip. space projectors
   LCOMPAT=      F    compatible to vasp.4.4
   GGA_COMPAT  = T    GGA compatible to vasp.4.4-vasp.4.6
   LMAXPAW     = -100 max onsite density
   LMAXMIX     =    2 max onsite mixed and CHGCAR
   VOSKOWN=      0    Vosko Wilk Nusair interpolation
   ROPT   =   -0.00025
 Ionic relaxation
   EDIFFG = 0.1E-04   stopping-criterion for IOM
   NSW    =      0    number of steps for IOM
   NBLOCK =      1;   KBLOCK =      1    inner block; outer block 
   IBRION =     -1    ionic relax: 0-MD 1-quasi-New 2-CG
   NFREE  =      0    steps in history (QN), initial steepest desc. (CG)
   ISIF   =      0    stress and relaxation
   IWAVPR =     10    prediction:  0-non 1-charg 2-wave 3-comb
   ISYM   =      2    0-nonsym 1-usesym 2-fastsym
   LCORR  =      T    Harris-Foulkes like correction to forces

   POTIM  = 0.5000    time-step for ionic-motion
   TEIN   =    0.0    initial temperature
   TEBEG  =    0.0;   TEEND  =   0.0 temperature during run
   SMASS  =  -3.00    Nose mass-parameter (am)
   estimated Nose-frequenzy (Omega)   =  0.10E-29 period in steps = 0.13E+47 mass=  -0.102E-25a.u.
   SCALEE = 1.0000    scale energy and forces
   NPACO  =    256;   APACO  = 10.0  distance and # of slots for P.C.
   PSTRESS=    0.0 pullay stress

  Mass of Ions in am
   POMASS =  63.55
  Ionic Valenz
   ZVAL   =  11.00
  Atomic Wigner-Seitz radii
   RWIGS  =  -1.00
  virtual crystal weights 
   VCA    =   1.00
   NELECT =      22.0000    total number of electrons
   NUPDOWN=      -1.0000    fix difference up-down

 DOS related values:
   EMIN   =  10.00;   EMAX   =-10.00  energy-range for DOS
   EFERMI =   0.00
   ISMEAR =     0;   SIGMA  =   0.05  broadening in eV -4-tet -1-fermi 0-gaus

 Electronic relaxation 2 (details)
   IALGO  =     58    algorithm
   LDIAG  =      T    sub-space diagonalisation (order eigenvalues)
   LSUBROT=      F    optimize rotation matrix (better conditioning)
   TURBO    =      0    0=normal 1=particle mesh
   IRESTART =      0    0=no restart 2=restart with 2 vectors
   NREBOOT  =      0    no. of reboots
   NMIN     =      0    reboot dimension
   EREF     =   0.00    reference energy to select bands
   IMIX   =      4    mixing-type and parameters
     AMIX     =   0.40;   BMIX     =  1.00
     AMIX_MAG =   1.60;   BMIX_MAG =  1.00
     AMIN     =   0.10
     WC   =   100.;   INIMIX=   1;  MIXPRE=   1;  MAXMIX= -45

 Intra band minimization:
   WEIMIN = 0.0000     energy-eigenvalue tresh-hold
   EBREAK =  0.98E-09  absolut break condition
   DEPER  =   0.30     relativ break condition  

   TIME   =   0.40     timestep for ELM

  volume/ion in A,a.u.               =    4940.81     33342.21
  Fermi-wavevector in a.u.,A,eV,Ry     =   0.213767  0.403960  0.621734  0.045696
  Thomas-Fermi vector in A             =   0.985879

 Write flags
   LWAVE        =      F    write WAVECAR
   LDOWNSAMPLE  =      F    k-point downsampling of WAVECAR
   LCHARG       =      F    write CHGCAR
   LVTOT        =      F    write LOCPOT, total local potential
   LVHAR        =      F    write LOCPOT, Hartree potential only
   LELF         =      F    write electronic localiz. function (ELF)
   LORBIT       =      0    0 simple, 1 ext, 2 COOP (PROOUT), +10 PAW based schemes


 Dipole corrections
   LMONO  =      F    monopole corrections only (constant potential shift)
   LDIPOL =      T    correct potential (dipole corrections)
   IDIPOL =      3    1-x, 2-y, 3-z, 4-all directions 
   EPSILON=  1.0000000 bulk dielectric constant

 Exchange correlation treatment:
   GGA     =    PE    GGA type
   LEXCH   =     8    internal setting for exchange type
   LIBXC   =     F    Libxc                    
   VOSKOWN =     0    Vosko Wilk Nusair interpolation
   EXXOEP  =     0    0=HF, 1=EXX-LHF (local Hartree Fock) 2=EXX OEP
   LHFCALC =     T    Hartree Fock is set to
   LSYMGRAD=     F    symmetrize gradient (conserves proper symmetry)
   PRECFOCK=normal    Normal, Fast or Accurate (Low or Medium for compatibility)
   LRHFCALC=     F    long range Hartree Fock
   LRSCOR  =     F    long range correlation only (use DFT for short range part)
   LTHOMAS =     F    Thomas Fermi screening in HF
   LMODELHF=     F    short range full HF, long range fraction AEXX
   LFOCKACE=     T    use Adeptively-Compressed-Exchange operator
   ENCUT4O =  -1.0   cutoff for four orbital integrals eV
   LMAXFOCK=     4    L truncation for augmentation on plane wave grid
   LMAXFOCKAE=  -1    L truncation for all-electron charge restoration on plane wave grid
   NMAXFOCKAE=   1    number of basis functions for all-electron charge restoration
   LFOCKAEDFT=     F  apply the AE augmentation even for DFT
   NKREDX  =     1    reduce k-point grid by
   NKREDY  =     1    reduce k-point grid by
   NKREDZ  =     1    reduce k-point grid by
   SHIFTRED=     F    shift reduced grid of Gamma
   HFKIDENT=     F    idential grid for each k-point
   ODDONLY =     F    use only odd q-grid points
   EVENONLY=     F    use only even q-grid points
   HFALPHA =   -1.0000 decay constant for conv. correction
   MCALPHA =    0.0000 extent of test-charge in conv. correction in multipole expansion
   AEXX    =    0.2500 exact exchange contribution
   HFSCREEN=    0.2000 screening length (either q_TF or 0.3 A-1)
   HFSCREENC=   0.2000 screening length for correlation (either q_TF or 0.3 A-1)
   HFRCUT  =    0.0000 spherical cutoff for potential kernel
   ALDAX   =    0.7500 LDA exchange part
   AGGAX   =    0.7500 GGA exchange part
   ALDAC   =    1.0000 LDA correlation
   AGGAC   =    1.0000 GGA correlation
   ENCUTFOCK=  -1.0 apply spherical cutoff to Coloumb kernel
   NBANDSGWLOW=     1    first orbital included in HF term
   NBLOCK_FOCK=    64    blocking factor in FOCK_ACC

 Linear response parameters
   LEPSILON=     F    determine dielectric tensor
   LRPA    =     F    only Hartree local field effects (RPA)
   LNABLA  =     F    use nabla operator in PAW spheres
   LVEL    =     F    velocity operator in full k-point grid
   CSHIFT  =0.1000    complex shift for real part using Kramers Kronig
   OMEGAMAX=  -1.0    maximum frequency
   DEG_THRESHOLD= 0.2000000E-02 threshold for treating states as degnerate
   RTIME   =   -0.100 relaxation time in fs
  (WPLASMAI=    0.000 imaginary part of plasma frequency in eV, 0.658/RTIME)
   DFIELD  = 0.0000000 0.0000000 0.0000000 field for delta impulse in time

  Optional k-point grid parameters
   LKPOINTS_OPT  =     F    use optional k-point grid
   KPOINTS_OPT_MODE=     1    mode for optional k-point grid

 Orbital magnetization related:
   ORBITALMAG=     F  switch on orbital magnetization
   LCHIMAG   =     F  perturbation theory with respect to B field
   DQ        =  0.001000  dq finite difference perturbation B field
   LLRAUG    =     F  two centre corrections for induced B field



--------------------------------------------------------------------------------------------------------


 Static calculation
 charge density and potential will be updated during run
 non-spin polarized calculation
 Conjugate gradient for all bands (Freysoldt, et al. PRB 79, 241103 (2009))
 preconditioned conjugated gradient                                        
 perform sub-space diagonalisation
    before iterative eigenvector-optimisation
 modified Broyden-mixing scheme, WC =      100.0
 initial mixing is a Kerker type mixing with AMIX =  0.4000 and BMIX =      1.0000
 Hartree-type preconditioning will be used
 using additional bands          245
 real space projection scheme for non local part
 use partial core corrections
 no Harris-corrections to forces 
 use gradient corrections 
 use of overlap-Matrix (Vanderbilt PP)
 Gauss-broadening in eV      SIGMA  =   0.05


--------------------------------------------------------------------------------------------------------


  energy-cutoff  :      520.00
  volume of cell :     9881.61
      direct lattice vectors                 reciprocal lattice vectors
    21.138852197  0.000000000  0.000000000     0.047306258  0.000000000  0.000000000
     0.000000000 21.138852197  0.000000000     0.000000000  0.047306258  0.000000000
     0.000000000  0.000000000 22.113885220     0.000000000  0.000000000  0.045220457

  length of vectors
    21.138852197 21.138852197 22.113885220     0.047306258  0.047306258  0.045220457



 k-points in units of 2pi/SCALE and weight: KPOINTS created by Atomic Simulation Env
   0.00000000  0.00000000  0.00000000       1.000

 k-points in reciprocal lattice and weights: KPOINTS created by Atomic Simulation Env
   0.00000000  0.00000000  0.00000000       1.000

 position of ions in fractional coordinates (direct lattice) 
   0.49999997  0.59999994  0.72733835
   0.49999997  0.59999994  0.62679390

 position of ions in cartesian coordinates  (Angst):
  10.56942555 12.68331001 16.08427681
  10.56942555 12.68331001 13.86084829



--------------------------------------------------------------------------------------------------------


 k-point   1 :   0.0000 0.0000 0.0000  plane waves:  265979

 maximum and minimum number of plane-waves per node :     66495    66494

 maximum number of plane-waves:    265979
 maximum index in each direction: 
   IXMAX=   39   IYMAX=   39   IZMAX=   41
   IXMIN=  -39   IYMIN=  -39   IZMIN=  -41


 real space projection operators:
  total allocation   :       1799.16 KBytes
  max/ min on nodes  :        454.50        444.09


 parallel 3D FFT for wavefunctions:
    minimum data exchange during FFTs selected (reduces bandwidth)
 parallel 3D FFT for charge:
    minimum data exchange during FFTs selected (reduces bandwidth)


 FFT grid for exact exchange (Hartree Fock) 
  NGX =120; NGY =120; NGZ =126


 Radii for the augmentation spheres in the non-local exchange
 for species   1 augmentation radius   1.179 (default was   0.943)
       energy cutoff for augmentation   2080.0

 real space projection operators:
  total allocation   :        488.87 KBytes
  max/ min on nodes  :        125.98        120.31

 Maximum index for augmentation-charges in exchange          324
  SETUP_FOCK is finished

 total amount of memory used by VASP MPI-rank0   144336. kBytes
=======================================================================

   base      :      30000. kBytes
   nonlr-proj:        968. kBytes
   fftplans  :      61791. kBytes
   grid      :      48291. kBytes
   one-center:         15. kBytes
   HF        :         64. kBytes
   wavefun   :       3207. kBytes

     INWAV:  cpu time      0.0001: real time      0.0003
 Broyden mixing: mesh for mixing (old mesh)
   NGX = 79   NGY = 79   NGZ = 83
  (NGX  =320   NGY  =320   NGZ  =336)
  gives a total of 518003 points

 initial charge density was supplied:
 charge density of overlapping atoms calculated
 number of electron      22.0000000 magnetization 
 keeping initial charge density in first step


--------------------------------------------------------------------------------------------------------


 Maximum index for non-local projection operator         1585
 Maximum index for augmentation-charges            0 (set IRDMAX)


--------------------------------------------------------------------------------------------------------


 First call to EWALD:  gamma=   0.083
 Maximum number of real-space cells 3x 3x 3
 Maximum number of reciprocal cells 3x 3x 3

    FEWALD:  cpu time      0.0011: real time      0.0011


--------------------------------------- Iteration      1(   1)  ---------------------------------------


    POTLOK:  cpu time      0.1846: real time      0.1853
    SETDIJ:  cpu time      0.1153: real time      0.1153
    TRIAL :  cpu time      2.7886: real time      2.7890
    CORREC:  cpu time      0.0007: real time      0.0007
    --------------------------------------------
      LOOP:  cpu time      3.0912: real time      3.0926

 eigenvalue-minimisations  :   512
 total energy-change (2. order) :-0.6990562E+03  (-0.5746668E+03)
 number of electron      22.0000000 magnetization 
 augmentation part       22.0000000 magnetization 

 DIPCOR: dipole corrections for dipol
 direction  3 min pos     1,
 dipolmoment           0.000000      0.000000     -0.000097 electrons x Angstroem
 Tr[quadrupol]     -4029.994352

 energy correction for charged system         0.000000 eV
 dipol+quadrupol energy correction           -0.000000 eV
 added-field ion interaction          0.000165 eV  (added to PSCEN)


 Free energy of the ion-electron system (eV)
  ---------------------------------------------------
  alpha Z        PSCENC =         0.29620095
  Ewald energy   TEWEN  =       324.81674927
  -Hartree energ DENC   =     -2866.90729927
  -exchange      EXHF   =         0.00000000
  -V(xc)+E(xc)   XCENC  =        88.16052049
  PAW double counting   =      2456.41331976    -3396.89626064
  entropy T*S    EENTRO =        -0.00000000
  eigenvalues    EBANDS =       -81.97948962
  atomic energy  EATOM  =      2777.04005442
  ---------------------------------------------------
  free energy    TOTEN  =      -699.05620463 eV

  energy without entropy =     -699.05620463  energy(sigma->0) =     -699.05620463
  exchange ACFDT corr.  =         0.00000000  see jH, gK, PRB 81, 115126


--------------------------------------------------------------------------------------------------------




--------------------------------------- Iteration      1(   2)  ---------------------------------------


    TRIAL :  cpu time      3.0036: real time      3.0041
    CORREC:  cpu time      0.0003: real time      0.0003
    --------------------------------------------
      LOOP:  cpu time      3.0148: real time      3.0252

 eigenvalue-minimisations  :   512
 total energy-change (2. order) :-0.1137592E+03  (-0.1137592E+03)
 number of electron      22.0000000 magnetization 
 augmentation part       22.0000000 magnetization 

 DIPCOR: dipole corrections for dipol
 direction  3 min pos     1,
 dipolmoment           0.000000      0.000000     -0.000097 electrons x Angstroem
 Tr[quadrupol]     -4029.994352

 energy correction for charged system         0.000000 eV
 dipol+quadrupol energy correction           -0.000000 eV
 added-field ion interaction          0.000165 eV  (added to PSCEN)


 Free energy of the ion-electron system (eV)
  ---------------------------------------------------
  alpha Z        PSCENC =         0.29620095
  Ewald energy   TEWEN  =       324.81674927
  -Hartree energ DENC   =     -2866.90729927
  -exchange      EXHF   =         0.00000000
  -V(xc)+E(xc)   XCENC  =        88.16052049
  PAW double counting   =      2456.41331976    -3396.89626064
  entropy T*S    EENTRO =        -0.00000000
  eigenvalues    EBANDS =      -195.73873184
  atomic energy  EATOM  =      2777.04005442
  ---------------------------------------------------
  free energy    TOTEN  =      -812.81544684 eV

  energy without entropy =     -812.81544684  energy(sigma->0) =     -812.81544684
  exchange ACFDT corr.  =         0.00000000  see jH, gK, PRB 81, 115126


--------------------------------------------------------------------------------------------------------




--------------------------------------- Iteration      1(   3)  ---------------------------------------


    TRIAL :  cpu time      2.9417: real time      2.9420
    CORREC:  cpu time      0.0004: real time      0.0004
    --------------------------------------------
      LOOP:  cpu time      2.9483: real time      2.9636

 eigenvalue-minimisations  :   512
 total energy-change (2. order) :-0.2021900E+01  (-0.2021900E+01)
 number of electron      22.0000000 magnetization 
 augmentation part       22.0000000 magnetization 

 DIPCOR: dipole corrections for dipol
 direction  3 min pos     1,
 dipolmoment           0.000000      0.000000     -0.000097 electrons x Angstroem
 Tr[quadrupol]     -4029.994352

 energy correction for charged system         0.000000 eV
 dipol+quadrupol energy correction           -0.000000 eV
 added-field ion interaction          0.000165 eV  (added to PSCEN)


 Free energy of the ion-electron system (eV)
  ---------------------------------------------------
  alpha Z        PSCENC =         0.29620095
  Ewald energy   TEWEN  =       324.81674927
  -Hartree energ DENC   =     -2866.90729927
  -exchange      EXHF   =         0.00000000
  -V(xc)+E(xc)   XCENC  =        88.16052049
  PAW double counting   =      2456.41331976    -3396.89626064
  entropy T*S    EENTRO =        -0.00000000
  eigenvalues    EBANDS =      -197.76063157
  atomic energy  EATOM  =      2777.04005442
  ---------------------------------------------------
  free energy    TOTEN  =      -814.83734658 eV

  energy without entropy =     -814.83734658  energy(sigma->0) =     -814.83734658
  exchange ACFDT corr.  =         0.00000000  see jH, gK, PRB 81, 115126


--------------------------------------------------------------------------------------------------------




--------------------------------------- Iteration      1(   4)  ---------------------------------------


    TRIAL :  cpu time      2.9142: real time      2.9144
    CORREC:  cpu time      0.0004: real time      0.0004
    --------------------------------------------
      LOOP:  cpu time      2.9337: real time      2.9346

 eigenvalue-minimisations  :   512
 total energy-change (2. order) :-0.6083339E-02  (-0.6083356E-02)
 number of electron      22.0000000 magnetization 
 augmentation part       22.0000000 magnetization 

 DIPCOR: dipole corrections for dipol
 direction  3 min pos     1,
 dipolmoment           0.000000      0.000000     -0.000097 electrons x Angstroem
 Tr[quadrupol]     -4029.994352

 energy correction for charged system         0.000000 eV
 dipol+quadrupol energy correction           -0.000000 eV
 added-field ion interaction          0.000165 eV  (added to PSCEN)


 Free energy of the ion-electron system (eV)
  ---------------------------------------------------
  alpha Z        PSCENC =         0.29620095
  Ewald energy   TEWEN  =       324.81674927
  -Hartree energ DENC   =     -2866.90729927
  -exchange      EXHF   =         0.00000000
  -V(xc)+E(xc)   XCENC  =        88.16052049
  PAW double counting   =      2456.41331976    -3396.89626064
  entropy T*S    EENTRO =        -0.00000000
  eigenvalues    EBANDS =      -197.76671491
  atomic energy  EATOM  =      2777.04005442
  ---------------------------------------------------
  free energy    TOTEN  =      -814.84342992 eV

  energy without entropy =     -814.84342992  energy(sigma->0) =     -814.84342992
  exchange ACFDT corr.  =         0.00000000  see jH, gK, PRB 81, 115126


--------------------------------------------------------------------------------------------------------




--------------------------------------- Iteration      1(   5)  ---------------------------------------


    POTLOK:  cpu time      0.2101: real time      0.2101
    SETDIJ:  cpu time      0.3118: real time      0.3118
    TRIAL :  cpu time     33.7512: real time     33.7652
    CORREC:  cpu time      0.0003: real time      0.0003
    CHARGE:  cpu time      0.5889: real time      0.5899
    --------------------------------------------
      LOOP:  cpu time     34.8699: real time     34.8979

 eigenvalue-minimisations  :   512
 total energy-change (2. order) : 0.8113506E+03  (-0.1339485E+01)
 number of electron      22.0000026 magnetization 
 augmentation part       14.6962016 magnetization 

 DIPCOR: dipole corrections for dipol
 direction  3 min pos     1,
 dipolmoment           0.000000      0.000000     -0.000097 electrons x Angstroem
 Tr[quadrupol]     -4029.994352

 energy correction for charged system         0.000000 eV
 dipol+quadrupol energy correction           -0.000000 eV
 added-field ion interaction          0.000165 eV  (added to PSCEN)


 Free energy of the ion-electron system (eV)
  ---------------------------------------------------
  alpha Z        PSCENC =         0.29620095
  Ewald energy   TEWEN  =       324.81674927
  -Hartree energ DENC   =     -2866.90729927
  -exchange      EXHF   =        62.46792001
  -V(xc)+E(xc)   XCENC  =        66.47635140
  PAW double counting   =      2477.95002991    -2671.39240103
  entropy T*S    EENTRO =        -0.00000000
  eigenvalues    EBANDS =      -174.24040328
  atomic energy  EATOM  =      2777.04005442
  ---------------------------------------------------
  free energy    TOTEN  =        -3.49279760 eV

  energy without entropy =       -3.49279760  energy(sigma->0) =       -3.49279760
  exchange ACFDT corr.  =        -0.00000000  see jH, gK, PRB 81, 115126


--------------------------------------------------------------------------------------------------------




--------------------------------------- Iteration      1(   6)  ---------------------------------------


    POTLOK:  cpu time      0.1858: real time      0.1859
    SETDIJ:  cpu time      0.3227: real time      0.3227
    TRIAL :  cpu time     57.7269: real time     57.8494
    CORREC:  cpu time     31.5370: real time     31.5535
    CHARGE:  cpu time      0.5852: real time      0.5854
    --------------------------------------------
      LOOP:  cpu time     90.3981: real time     90.5378

 eigenvalue-minimisations  :     0
 total energy-change (2. order) : 0.1665452E+01  (-0.7624751E+00)
 number of electron      22.0000026 magnetization 
 augmentation part       14.3782774 magnetization 

 DIPCOR: dipole corrections for dipol
 direction  3 min pos     1,
 dipolmoment           0.000000      0.000000     -0.010072 electrons x Angstroem
 Tr[quadrupol]     -4032.001754

 energy correction for charged system         0.000000 eV
 dipol+quadrupol energy correction           -0.000001 eV
 added-field ion interaction          0.017170 eV  (added to PSCEN)


 Free energy of the ion-electron system (eV)
  ---------------------------------------------------
  alpha Z        PSCENC =         0.29603955
  Ewald energy   TEWEN  =       324.81674927
  -Hartree energ DENC   =     -2958.65803390
  -exchange      EXHF   =        60.00136786
  -V(xc)+E(xc)   XCENC  =        68.51329753
  PAW double counting   =      2690.48969312    -2899.08820211
  entropy T*S    EENTRO =        -0.00000000
  eigenvalues    EBANDS =       -65.23831180
  atomic energy  EATOM  =      2777.04005442
  ---------------------------------------------------
  free energy    TOTEN  =        -1.82734606 eV

  energy without entropy =       -1.82734606  energy(sigma->0) =       -1.82734606
  exchange ACFDT corr.  =        -0.00000000  see jH, gK, PRB 81, 115126


--------------------------------------------------------------------------------------------------------




--------------------------------------- Iteration      1(   7)  ---------------------------------------


    POTLOK:  cpu time      0.2477: real time      0.2477
    SETDIJ:  cpu time      0.2983: real time      0.2983
    TRIAL :  cpu time     30.9222: real time     30.9375
    CORREC:  cpu time     31.6039: real time     31.6195
    CHARGE:  cpu time      0.5812: real time      0.5814
    --------------------------------------------
      LOOP:  cpu time     63.6834: real time     63.7256

 eigenvalue-minimisations  :     0
 total energy-change (2. order) :-0.7924981E+00  (-0.3071850E+00)
 number of electron      22.0000026 magnetization 
 augmentation part       14.3759043 magnetization 

 DIPCOR: dipole corrections for dipol
 direction  3 min pos     1,
 dipolmoment           0.000000      0.000000     -0.003502 electrons x Angstroem
 Tr[quadrupol]     -4032.232209

 energy correction for charged system         0.000000 eV
 dipol+quadrupol energy correction           -0.000000 eV
 added-field ion interaction          0.005970 eV  (added to PSCEN)


 Free energy of the ion-electron system (eV)
  ---------------------------------------------------
  alpha Z        PSCENC =         0.29781579
  Ewald energy   TEWEN  =       324.81674927
  -Hartree energ DENC   =     -2912.27983505
  -exchange      EXHF   =        58.91882333
  -V(xc)+E(xc)   XCENC  =        67.12230844
  PAW double counting   =      2660.51448032    -2856.47022987
  entropy T*S    EENTRO =        -0.00000000
  eigenvalues    EBANDS =      -122.58001078
  atomic energy  EATOM  =      2777.04005442
  ---------------------------------------------------
  free energy    TOTEN  =        -2.61984412 eV

  energy without entropy =       -2.61984412  energy(sigma->0) =       -2.61984412
  exchange ACFDT corr.  =        -0.00000000  see jH, gK, PRB 81, 115126


--------------------------------------------------------------------------------------------------------




--------------------------------------- Iteration      1(   8)  ---------------------------------------


    POTLOK:  cpu time      0.2479: real time      0.2479
    SETDIJ:  cpu time      0.3071: real time      0.3071
    TRIAL :  cpu time     30.6731: real time     30.6874
    CORREC:  cpu time     31.6662: real time     31.6814
    CHARGE:  cpu time      0.5818: real time      0.5821
    --------------------------------------------
      LOOP:  cpu time     63.5167: real time     63.5470

 eigenvalue-minimisations  :     0
 total energy-change (2. order) :-0.3077569E+00  (-0.5394936E-01)
 number of electron      22.0000026 magnetization 
 augmentation part       14.4499322 magnetization 

 DIPCOR: dipole corrections for dipol
 direction  3 min pos     1,
 dipolmoment           0.000000      0.000000     -0.002667 electrons x Angstroem
 Tr[quadrupol]     -4031.921220

 energy correction for charged system         0.000000 eV
 dipol+quadrupol energy correction           -0.000000 eV
 added-field ion interaction          0.004547 eV  (added to PSCEN)


 Free energy of the ion-electron system (eV)
  ---------------------------------------------------
  alpha Z        PSCENC =         0.30399714
  Ewald energy   TEWEN  =       324.81674927
  -Hartree energ DENC   =     -2893.42620788
  -exchange      EXHF   =        58.59835171
  -V(xc)+E(xc)   XCENC  =        66.81380008
  PAW double counting   =      2632.46709935    -2828.15255184
  entropy T*S    EENTRO =        -0.00000000
  eigenvalues    EBANDS =      -141.38889331
  atomic energy  EATOM  =      2777.04005442
  ---------------------------------------------------
  free energy    TOTEN  =        -2.92760106 eV

  energy without entropy =       -2.92760106  energy(sigma->0) =       -2.92760106
  exchange ACFDT corr.  =        -0.00000000  see jH, gK, PRB 81, 115126


--------------------------------------------------------------------------------------------------------




--------------------------------------- Iteration      1(   9)  ---------------------------------------


    POTLOK:  cpu time      0.2457: real time      0.2457
    SETDIJ:  cpu time      0.3077: real time      0.3077
    TRIAL :  cpu time     30.8852: real time     30.8998
    CORREC:  cpu time     31.7868: real time     31.8029
    CHARGE:  cpu time      0.5804: real time      0.5807
    --------------------------------------------
      LOOP:  cpu time     63.8364: real time     63.8773

 eigenvalue-minimisations  :     0
 total energy-change (2. order) :-0.5348540E-01  (-0.5102747E-01)
 number of electron      22.0000026 magnetization 
 augmentation part       14.4072888 magnetization 

 DIPCOR: dipole corrections for dipol
 direction  3 min pos     1,
 dipolmoment           0.000000      0.000000     -0.000951 electrons x Angstroem
 Tr[quadrupol]     -4031.807763

 energy correction for charged system         0.000000 eV
 dipol+quadrupol energy correction           -0.000000 eV
 added-field ion interaction          0.001622 eV  (added to PSCEN)


 Free energy of the ion-electron system (eV)
  ---------------------------------------------------
  alpha Z        PSCENC =         0.30169270
  Ewald energy   TEWEN  =       324.81674927
  -Hartree energ DENC   =     -2900.50868787
  -exchange      EXHF   =        58.78664831
  -V(xc)+E(xc)   XCENC  =        67.07660586
  PAW double counting   =      2634.72807273    -2833.34559641
  entropy T*S    EENTRO =        -0.00000000
  eigenvalues    EBANDS =      -131.87662548
  atomic energy  EATOM  =      2777.04005442
  ---------------------------------------------------
  free energy    TOTEN  =        -2.98108646 eV

  energy without entropy =       -2.98108646  energy(sigma->0) =       -2.98108646
  exchange ACFDT corr.  =        -0.00000000  see jH, gK, PRB 81, 115126


--------------------------------------------------------------------------------------------------------




--------------------------------------- Iteration      1(  10)  ---------------------------------------


    POTLOK:  cpu time      0.2430: real time      0.2430
    SETDIJ:  cpu time      0.3080: real time      0.3080
    TRIAL :  cpu time     31.1432: real time     31.1569
    CORREC:  cpu time     31.8729: real time     31.8869
    CHARGE:  cpu time      0.5817: real time      0.5820
    --------------------------------------------
      LOOP:  cpu time     64.1910: real time     64.2195

 eigenvalue-minimisations  :     0
 total energy-change (2. order) :-0.5097166E-01  (-0.3263393E-01)
 number of electron      22.0000026 magnetization 
 augmentation part       14.3937297 magnetization 

 DIPCOR: dipole corrections for dipol
 direction  3 min pos     1,
 dipolmoment           0.000000      0.000000     -0.000207 electrons x Angstroem
 Tr[quadrupol]     -4031.755258

 energy correction for charged system         0.000000 eV
 dipol+quadrupol energy correction           -0.000000 eV
 added-field ion interaction          0.000353 eV  (added to PSCEN)


 Free energy of the ion-electron system (eV)
  ---------------------------------------------------
  alpha Z        PSCENC =         0.29792526
  Ewald energy   TEWEN  =       324.81674927
  -Hartree energ DENC   =     -2893.67968211
  -exchange      EXHF   =        58.62726645
  -V(xc)+E(xc)   XCENC  =        66.88314732
  PAW double counting   =      2631.19552292    -2828.33321776
  entropy T*S    EENTRO =        -0.00000000
  eigenvalues    EBANDS =      -139.87982390
  atomic energy  EATOM  =      2777.04005442
  ---------------------------------------------------
  free energy    TOTEN  =        -3.03205812 eV

  energy without entropy =       -3.03205812  energy(sigma->0) =       -3.03205812
  exchange ACFDT corr.  =        -0.00000000  see jH, gK, PRB 81, 115126


--------------------------------------------------------------------------------------------------------




--------------------------------------- Iteration      1(  11)  ---------------------------------------


    POTLOK:  cpu time      0.2225: real time      0.2225
    SETDIJ:  cpu time      0.3029: real time      0.3029
    TRIAL :  cpu time     30.7854: real time     30.7995
    CORREC:  cpu time     31.5918: real time     31.6077
    CHARGE:  cpu time      0.5836: real time      0.5838
    --------------------------------------------
      LOOP:  cpu time     63.5218: real time     63.5583

 eigenvalue-minimisations  :     0
 total energy-change (2. order) :-0.3247913E-01  (-0.4125965E-02)
 number of electron      22.0000026 magnetization 
 augmentation part       14.4157631 magnetization 

 DIPCOR: dipole corrections for dipol
 direction  3 min pos     1,
 dipolmoment           0.000000      0.000000     -0.000061 electrons x Angstroem
 Tr[quadrupol]     -4031.673316

 energy correction for charged system         0.000000 eV
 dipol+quadrupol energy correction           -0.000000 eV
 added-field ion interaction          0.000104 eV  (added to PSCEN)


 Free energy of the ion-electron system (eV)
  ---------------------------------------------------
  alpha Z        PSCENC =         0.29609615
  Ewald energy   TEWEN  =       324.81674927
  -Hartree energ DENC   =     -2890.66715617
  -exchange      EXHF   =        58.56890654
  -V(xc)+E(xc)   XCENC  =        66.81335526
  PAW double counting   =      2629.22358864    -2825.72992640
  entropy T*S    EENTRO =        -0.00000000
  eigenvalues    EBANDS =      -143.42620497
  atomic energy  EATOM  =      2777.04005442
  ---------------------------------------------------
  free energy    TOTEN  =        -3.06453726 eV

  energy without entropy =       -3.06453726  energy(sigma->0) =       -3.06453726
  exchange ACFDT corr.  =        -0.00000000  see jH, gK, PRB 81, 115126


--------------------------------------------------------------------------------------------------------




--------------------------------------- Iteration      1(  12)  ---------------------------------------


    POTLOK:  cpu time      0.2191: real time      0.2191
    SETDIJ:  cpu time      0.3018: real time      0.3018
    TRIAL :  cpu time     30.7022: real time     30.7178
    CORREC:  cpu time     31.7016: real time     31.7168
    CHARGE:  cpu time      0.5822: real time      0.5825
    --------------------------------------------
      LOOP:  cpu time     63.5473: real time     63.5788

 eigenvalue-minimisations  :     0
 total energy-change (2. order) :-0.4111581E-02  (-0.4611810E-02)
 number of electron      22.0000026 magnetization 
 augmentation part       14.4089016 magnetization 

 DIPCOR: dipole corrections for dipol
 direction  3 min pos     1,
 dipolmoment           0.000000      0.000000     -0.000016 electrons x Angstroem
 Tr[quadrupol]     -4031.653595

 energy correction for charged system         0.000000 eV
 dipol+quadrupol energy correction           -0.000000 eV
 added-field ion interaction          0.000028 eV  (added to PSCEN)


 Free energy of the ion-electron system (eV)
  ---------------------------------------------------
  alpha Z        PSCENC =         0.29609101
  Ewald energy   TEWEN  =       324.81674927
  -Hartree energ DENC   =     -2893.06814404
  -exchange      EXHF   =        58.62906521
  -V(xc)+E(xc)   XCENC  =        66.89490286
  PAW double counting   =      2630.31145559    -2827.64992274
  entropy T*S    EENTRO =        -0.00000000
  eigenvalues    EBANDS =      -140.33890042
  atomic energy  EATOM  =      2777.04005442
  ---------------------------------------------------
  free energy    TOTEN  =        -3.06864884 eV

  energy without entropy =       -3.06864884  energy(sigma->0) =       -3.06864884
  exchange ACFDT corr.  =        -0.00000000  see jH, gK, PRB 81, 115126


--------------------------------------------------------------------------------------------------------




--------------------------------------- Iteration      1(  13)  ---------------------------------------


    POTLOK:  cpu time      0.2150: real time      0.2150
    SETDIJ:  cpu time      0.3012: real time      0.3012
    TRIAL :  cpu time     31.1690: real time     31.1835
    CORREC:  cpu time     31.6931: real time     31.7080
    CHARGE:  cpu time      0.5819: real time      0.5822
    --------------------------------------------
      LOOP:  cpu time     63.9898: real time     64.0305

 eigenvalue-minimisations  :     0
 total energy-change (2. order) :-0.4609360E-02  (-0.7446077E-03)
 number of electron      22.0000026 magnetization 
 augmentation part       14.4038171 magnetization 

 DIPCOR: dipole corrections for dipol
 direction  3 min pos     1,
 dipolmoment           0.000000      0.000000     -0.000006 electrons x Angstroem
 Tr[quadrupol]     -4031.644993

 energy correction for charged system         0.000000 eV
 dipol+quadrupol energy correction           -0.000000 eV
 added-field ion interaction          0.000010 eV  (added to PSCEN)


 Free energy of the ion-electron system (eV)
  ---------------------------------------------------
  alpha Z        PSCENC =         0.29606229
  Ewald energy   TEWEN  =       324.81674927
  -Hartree energ DENC   =     -2891.18374803
  -exchange      EXHF   =        58.58582517
  -V(xc)+E(xc)   XCENC  =        66.84637448
  PAW double counting   =      2628.60133310    -2825.67282802
  entropy T*S    EENTRO =        -0.00000000
  eigenvalues    EBANDS =      -142.40308089
  atomic energy  EATOM  =      2777.04005442
  ---------------------------------------------------
  free energy    TOTEN  =        -3.07325820 eV

  energy without entropy =       -3.07325820  energy(sigma->0) =       -3.07325820
  exchange ACFDT corr.  =        -0.00000000  see jH, gK, PRB 81, 115126


--------------------------------------------------------------------------------------------------------




--------------------------------------- Iteration      1(  14)  ---------------------------------------


    POTLOK:  cpu time      0.2070: real time      0.2070
    SETDIJ:  cpu time      0.3047: real time      0.3047
    TRIAL :  cpu time     30.9862: real time     31.0001
    CORREC:  cpu time     31.6670: real time     31.6810
    CHARGE:  cpu time      0.5817: real time      0.5819
    --------------------------------------------
      LOOP:  cpu time     63.7799: real time     63.8168

 eigenvalue-minimisations  :     0
 total energy-change (2. order) :-0.7445798E-03  (-0.2735932E-03)
 number of electron      22.0000026 magnetization 
 augmentation part       14.4087801 magnetization 

 DIPCOR: dipole corrections for dipol
 direction  3 min pos     1,
 dipolmoment           0.000000      0.000000     -0.000001 electrons x Angstroem
 Tr[quadrupol]     -4031.651986

 energy correction for charged system         0.000000 eV
 dipol+quadrupol energy correction           -0.000000 eV
 added-field ion interaction          0.000002 eV  (added to PSCEN)


 Free energy of the ion-electron system (eV)
  ---------------------------------------------------
  alpha Z        PSCENC =         0.29604615
  Ewald energy   TEWEN  =       324.81674927
  -Hartree energ DENC   =     -2890.41846331
  -exchange      EXHF   =        58.56637793
  -V(xc)+E(xc)   XCENC  =        66.82281488
  PAW double counting   =      2628.06008218    -2824.94959953
  entropy T*S    EENTRO =        -0.00000000
  eigenvalues    EBANDS =      -143.30806478
  atomic energy  EATOM  =      2777.04005442
  ---------------------------------------------------
  free energy    TOTEN  =        -3.07400278 eV

  energy without entropy =       -3.07400278  energy(sigma->0) =       -3.07400278
  exchange ACFDT corr.  =        -0.00000000  see jH, gK, PRB 81, 115126


--------------------------------------------------------------------------------------------------------




--------------------------------------- Iteration      1(  15)  ---------------------------------------


    POTLOK:  cpu time      0.2093: real time      0.2093
    SETDIJ:  cpu time      0.2965: real time      0.2965
    TRIAL :  cpu time     30.8825: real time     30.8971
    CORREC:  cpu time     31.7851: real time     31.7993
    CHARGE:  cpu time      0.5816: real time      0.5819
    --------------------------------------------
      LOOP:  cpu time     63.7852: real time     63.8249

 eigenvalue-minimisations  :     0
 total energy-change (2. order) :-0.2730504E-03  (-0.1862611E-03)
 number of electron      22.0000026 magnetization 
 augmentation part       14.4075811 magnetization 

 DIPCOR: dipole corrections for dipol
 direction  3 min pos     1,
 dipolmoment           0.000000      0.000000     -0.000001 electrons x Angstroem
 Tr[quadrupol]     -4031.651983

 energy correction for charged system         0.000000 eV
 dipol+quadrupol energy correction           -0.000000 eV
 added-field ion interaction          0.000002 eV  (added to PSCEN)


 Free energy of the ion-electron system (eV)
  ---------------------------------------------------
  alpha Z        PSCENC =         0.29604023
  Ewald energy   TEWEN  =       324.81674927
  -Hartree energ DENC   =     -2891.07435163
  -exchange      EXHF   =        58.58151404
  -V(xc)+E(xc)   XCENC  =        66.84296550
  PAW double counting   =      2628.41831883    -2825.50488356
  entropy T*S    EENTRO =        -0.00000000
  eigenvalues    EBANDS =      -142.49068294
  atomic energy  EATOM  =      2777.04005442
  ---------------------------------------------------
  free energy    TOTEN  =        -3.07427583 eV

  energy without entropy =       -3.07427583  energy(sigma->0) =       -3.07427583
  exchange ACFDT corr.  =        -0.00000000  see jH, gK, PRB 81, 115126


--------------------------------------------------------------------------------------------------------




--------------------------------------- Iteration      1(  16)  ---------------------------------------


    POTLOK:  cpu time      0.2076: real time      0.2076
    SETDIJ:  cpu time      0.3037: real time      0.3037
    TRIAL :  cpu time     30.7913: real time     30.8056
    CORREC:  cpu time     31.7971: real time     31.8115
    CHARGE:  cpu time      0.5798: real time      0.5801
    --------------------------------------------
      LOOP:  cpu time     63.7214: real time     63.7507

 eigenvalue-minimisations  :     0
 total energy-change (2. order) :-0.1861238E-03  (-0.5273237E-04)
 number of electron      22.0000026 magnetization 
 augmentation part       14.4064693 magnetization 

 DIPCOR: dipole corrections for dipol
 direction  3 min pos     1,
 dipolmoment           0.000000      0.000000     -0.000001 electrons x Angstroem
 Tr[quadrupol]     -4031.654407

 energy correction for charged system         0.000000 eV
 dipol+quadrupol energy correction           -0.000000 eV
 added-field ion interaction          0.000001 eV  (added to PSCEN)


 Free energy of the ion-electron system (eV)
  ---------------------------------------------------
  alpha Z        PSCENC =         0.29603792
  Ewald energy   TEWEN  =       324.81674927
  -Hartree energ DENC   =     -2891.01694978
  -exchange      EXHF   =        58.57945156
  -V(xc)+E(xc)   XCENC  =        66.83999218
  PAW double counting   =      2628.36768788    -2825.41354047
  entropy T*S    EENTRO =        -0.00000000
  eigenvalues    EBANDS =      -142.58394494
  atomic energy  EATOM  =      2777.04005442
  ---------------------------------------------------
  free energy    TOTEN  =        -3.07446195 eV

  energy without entropy =       -3.07446195  energy(sigma->0) =       -3.07446195
  exchange ACFDT corr.  =        -0.00000000  see jH, gK, PRB 81, 115126


--------------------------------------------------------------------------------------------------------




--------------------------------------- Iteration      1(  17)  ---------------------------------------


    POTLOK:  cpu time      0.2017: real time      0.2017
    SETDIJ:  cpu time      0.3072: real time      0.3072
    TRIAL :  cpu time     31.3199: real time     31.3332
    CORREC:  cpu time     31.5363: real time     31.5505
    CHARGE:  cpu time      0.5819: real time      0.5822
    --------------------------------------------
      LOOP:  cpu time     63.9766: real time     64.0156

 eigenvalue-minimisations  :     0
 total energy-change (2. order) :-0.5251541E-04  (-0.1767949E-04)
 number of electron      22.0000026 magnetization 
 augmentation part       14.4077331 magnetization 

 DIPCOR: dipole corrections for dipol
 direction  3 min pos     1,
 dipolmoment           0.000000      0.000000     -0.000000 electrons x Angstroem
 Tr[quadrupol]     -4031.657427

 energy correction for charged system         0.000000 eV
 dipol+quadrupol energy correction           -0.000000 eV
 added-field ion interaction          0.000000 eV  (added to PSCEN)


 Free energy of the ion-electron system (eV)
  ---------------------------------------------------
  alpha Z        PSCENC =         0.29603690
  Ewald energy   TEWEN  =       324.81674927
  -Hartree energ DENC   =     -2890.94437333
  -exchange      EXHF   =        58.57725565
  -V(xc)+E(xc)   XCENC  =        66.83692654
  PAW double counting   =      2628.29611398    -2825.31035080
  entropy T*S    EENTRO =        -0.00000000
  eigenvalues    EBANDS =      -142.68292710
  atomic energy  EATOM  =      2777.04005442
  ---------------------------------------------------
  free energy    TOTEN  =        -3.07451447 eV

  energy without entropy =       -3.07451447  energy(sigma->0) =       -3.07451447
  exchange ACFDT corr.  =        -0.00000000  see jH, gK, PRB 81, 115126


--------------------------------------------------------------------------------------------------------




--------------------------------------- Iteration      1(  18)  ---------------------------------------


    POTLOK:  cpu time      0.2017: real time      0.2017
    SETDIJ:  cpu time      0.3079: real time      0.3079
    TRIAL :  cpu time     30.8413: real time     30.8565
    CORREC:  cpu time     31.5756: real time     31.5905
    CHARGE:  cpu time      0.5827: real time      0.5830
    --------------------------------------------
      LOOP:  cpu time     63.5412: real time     63.5811

 eigenvalue-minimisations  :     0
 total energy-change (2. order) :-0.1765765E-04  (-0.2090309E-04)
 number of electron      22.0000026 magnetization 
 augmentation part       14.4069173 magnetization 

 DIPCOR: dipole corrections for dipol
 direction  3 min pos     1,
 dipolmoment           0.000000      0.000000      0.000000 electrons x Angstroem
 Tr[quadrupol]     -4031.657740

 energy correction for charged system         0.000000 eV
 dipol+quadrupol energy correction           -0.000000 eV
 added-field ion interaction         -0.000000 eV  (added to PSCEN)


 Free energy of the ion-electron system (eV)
  ---------------------------------------------------
  alpha Z        PSCENC =         0.29603649
  Ewald energy   TEWEN  =       324.81674927
  -Hartree energ DENC   =     -2891.14035639
  -exchange      EXHF   =        58.58170118
  -V(xc)+E(xc)   XCENC  =        66.84270783
  PAW double counting   =      2628.38680749    -2825.45621719
  entropy T*S    EENTRO =        -0.00000000
  eigenvalues    EBANDS =      -142.44201522
  atomic energy  EATOM  =      2777.04005442
  ---------------------------------------------------
  free energy    TOTEN  =        -3.07453213 eV

  energy without entropy =       -3.07453213  energy(sigma->0) =       -3.07453213
  exchange ACFDT corr.  =        -0.00000000  see jH, gK, PRB 81, 115126


--------------------------------------------------------------------------------------------------------




--------------------------------------- Iteration      1(  19)  ---------------------------------------


    POTLOK:  cpu time      0.2015: real time      0.2015
    SETDIJ:  cpu time      0.3090: real time      0.3090
    TRIAL :  cpu time     30.8619: real time     30.8764
    CORREC:  cpu time     31.5420: real time     31.5572
    CHARGE:  cpu time      0.5823: real time      0.5825
    --------------------------------------------
      LOOP:  cpu time     63.5267: real time     63.5675

 eigenvalue-minimisations  :     0
 total energy-change (2. order) :-0.2071745E-04  (-0.7981782E-05)
 number of electron      22.0000026 magnetization 
 augmentation part       14.4069931 magnetization 

 DIPCOR: dipole corrections for dipol
 direction  3 min pos     1,
 dipolmoment           0.000000      0.000000      0.000000 electrons x Angstroem
 Tr[quadrupol]     -4031.658640

 energy correction for charged system         0.000000 eV
 dipol+quadrupol energy correction           -0.000000 eV
 added-field ion interaction         -0.000000 eV  (added to PSCEN)


 Free energy of the ion-electron system (eV)
  ---------------------------------------------------
  alpha Z        PSCENC =         0.29603569
  Ewald energy   TEWEN  =       324.81674927
  -Hartree energ DENC   =     -2891.07621601
  -exchange      EXHF   =        58.57965131
  -V(xc)+E(xc)   XCENC  =        66.84017470
  PAW double counting   =      2628.30873803    -2825.35926621
  entropy T*S    EENTRO =        -0.00000000
  eigenvalues    EBANDS =      -142.52047406
  atomic energy  EATOM  =      2777.04005442
  ---------------------------------------------------
  free energy    TOTEN  =        -3.07455284 eV

  energy without entropy =       -3.07455284  energy(sigma->0) =       -3.07455284
  exchange ACFDT corr.  =        -0.00000000  see jH, gK, PRB 81, 115126


--------------------------------------------------------------------------------------------------------




--------------------------------------- Iteration      1(  20)  ---------------------------------------


    POTLOK:  cpu time      0.2016: real time      0.2016
    SETDIJ:  cpu time      0.3049: real time      0.3049
    TRIAL :  cpu time     30.5679: real time     30.5837
    CORREC:  cpu time     32.0141: real time     32.0284
    CHARGE:  cpu time      0.5809: real time      0.5812
    --------------------------------------------
      LOOP:  cpu time     63.7014: real time     63.7407

 eigenvalue-minimisations  :     0
 total energy-change (2. order) :-0.7913177E-05  (-0.2185969E-05)
 number of electron      22.0000026 magnetization 
 augmentation part       14.4066878 magnetization 

 DIPCOR: dipole corrections for dipol
 direction  3 min pos     1,
 dipolmoment           0.000000      0.000000      0.000000 electrons x Angstroem
 Tr[quadrupol]     -4031.658991

 energy correction for charged system         0.000000 eV
 dipol+quadrupol energy correction           -0.000000 eV
 added-field ion interaction         -0.000000 eV  (added to PSCEN)


 Free energy of the ion-electron system (eV)
  ---------------------------------------------------
  alpha Z        PSCENC =         0.29603548
  Ewald energy   TEWEN  =       324.81674927
  -Hartree energ DENC   =     -2891.11060300
  -exchange      EXHF   =        58.58046896
  -V(xc)+E(xc)   XCENC  =        66.84104666
  PAW double counting   =      2628.35786232    -2825.41451608
  entropy T*S    EENTRO =        -0.00000000
  eigenvalues    EBANDS =      -142.48165879
  atomic energy  EATOM  =      2777.04005442
  ---------------------------------------------------
  free energy    TOTEN  =        -3.07456076 eV

  energy without entropy =       -3.07456076  energy(sigma->0) =       -3.07456076
  exchange ACFDT corr.  =        -0.00000000  see jH, gK, PRB 81, 115126


--------------------------------------------------------------------------------------------------------




--------------------------------------- Iteration      1(  21)  ---------------------------------------


    POTLOK:  cpu time      0.2023: real time      0.2023
    SETDIJ:  cpu time      0.3083: real time      0.3083
    TRIAL :  cpu time     31.1033: real time     31.1188
    CORREC:  cpu time     31.7402: real time     31.7549
    CHARGE:  cpu time      0.5801: real time      0.5804
    --------------------------------------------
      LOOP:  cpu time     63.9639: real time     64.0055

 eigenvalue-minimisations  :     0
 total energy-change (2. order) :-0.2152644E-05  (-0.7424820E-06)
 number of electron      22.0000026 magnetization 
 augmentation part       14.4069435 magnetization 

 DIPCOR: dipole corrections for dipol
 direction  3 min pos     1,
 dipolmoment           0.000000      0.000000      0.000000 electrons x Angstroem
 Tr[quadrupol]     -4031.659081

 energy correction for charged system         0.000000 eV
 dipol+quadrupol energy correction           -0.000000 eV
 added-field ion interaction         -0.000000 eV  (added to PSCEN)


 Free energy of the ion-electron system (eV)
  ---------------------------------------------------
  alpha Z        PSCENC =         0.29603552
  Ewald energy   TEWEN  =       324.81674927
  -Hartree energ DENC   =     -2891.07683236
  -exchange      EXHF   =        58.57962727
  -V(xc)+E(xc)   XCENC  =        66.83992393
  PAW double counting   =      2628.37095699    -2825.41739351
  entropy T*S    EENTRO =        -0.00000000
  eigenvalues    EBANDS =      -142.52368444
  atomic energy  EATOM  =      2777.04005442
  ---------------------------------------------------
  free energy    TOTEN  =        -3.07456291 eV

  energy without entropy =       -3.07456291  energy(sigma->0) =       -3.07456291
  exchange ACFDT corr.  =        -0.00000000  see jH, gK, PRB 81, 115126


--------------------------------------------------------------------------------------------------------




--------------------------------------- Iteration      1(  22)  ---------------------------------------


    POTLOK:  cpu time      0.2017: real time      0.2018
    SETDIJ:  cpu time      0.3062: real time      0.3062
    TRIAL :  cpu time     30.6270: real time     30.6431
    CORREC:  cpu time     31.7367: real time     31.7517
    EDDIAG:  cpu time     30.7074: real time     30.7217
    CHARGE:  cpu time      0.5778: real time      0.5781
    --------------------------------------------
      LOOP:  cpu time     94.1880: real time     94.2438

 eigenvalue-minimisations  :     0
 total energy-change (2. order) :-0.7349845E-06  (-0.5879803E-06)
 number of electron      22.0000026 magnetization 
 augmentation part       14.4068821 magnetization 

 DIPCOR: dipole corrections for dipol
 direction  3 min pos     1,
 dipolmoment           0.000000      0.000000      0.000000 electrons x Angstroem
 Tr[quadrupol]     -4031.658851

 energy correction for charged system         0.000000 eV
 dipol+quadrupol energy correction           -0.000000 eV
 added-field ion interaction         -0.000000 eV  (added to PSCEN)


 Free energy of the ion-electron system (eV)
  ---------------------------------------------------
  alpha Z        PSCENC =         0.29603555
  Ewald energy   TEWEN  =       324.81674927
  -Hartree energ DENC   =     -2891.10884994
  -exchange      EXHF   =        58.58007988
  -V(xc)+E(xc)   XCENC  =        66.84096000
  PAW double counting   =      2628.40177038    -2825.45859371
  entropy T*S    EENTRO =        -0.00000000
  eigenvalues    EBANDS =      -142.48309953
  atomic energy  EATOM  =      2777.04005442
  ---------------------------------------------------
  free energy    TOTEN  =        -3.07456364 eV

  energy without entropy =       -3.07456364  energy(sigma->0) =       -3.07456364
  exchange ACFDT corr.  =        -0.00000000  see jH, gK, PRB 81, 115126


--------------------------------------------------------------------------------------------------------


  average scaling for gradient   1.0844


 average (electrostatic) potential at core
  the test charge radii are     0.9430
  (the norm of the test charge is              1.0000)
       1 -65.6361       2 -65.6361



 E-fermi :  -5.2654     XC(G=0):  -0.1234     alpha+bet : -0.0321

 Fermi energy:        -5.2653838256

 k-point     1 :       0.0000    0.0000    0.0000
  band No.  band energies     occupation 
      1      -7.5129      2.00000
      2      -7.0804      2.00000
      3      -7.0804      2.00000
      4      -6.5900      2.00000
      5      -6.5900      2.00000
      6      -6.3657      2.00000
      7      -6.3657      2.00000
      8      -6.0865      2.00000
      9      -6.0865      2.00000
     10      -5.9804      2.00000
     11      -5.5086      2.00000
     12      -2.5121      0.00000
     13      -0.8122      0.00000
     14      -0.8122      0.00000
     15      -0.2970      0.00000
     16       0.0793      0.00000
     17       0.2952      0.00000
     18       0.3006      0.00000
     19       0.3439      0.00000
     20       0.3689      0.00000
     21       0.3689      0.00000
     22       0.4545      0.00000
     23       0.5157      0.00000
     24       0.5157      0.00000
     25       0.6088      0.00000
     26       0.6343      0.00000
     27       0.6385      0.00000
     28       0.6447      0.00000
     29       0.6579      0.00000
     30       0.6662      0.00000
     31       0.6664      0.00000
     32       0.7223      0.00000
     33       0.7223      0.00000
     34       0.8002      0.00000
     35       0.8474      0.00000
     36       0.8474      0.00000
     37       0.9384      0.00000
     38       0.9699      0.00000
     39       0.9704      0.00000
     40       1.0276      0.00000
     41       1.0278      0.00000
     42       1.0292      0.00000
     43       1.2045      0.00000
     44       1.2123      0.00000
     45       1.2123      0.00000
     46       1.2300      0.00000
     47       1.2415      0.00000
     48       1.3592      0.00000
     49       1.3592      0.00000
     50       1.4179      0.00000
     51       1.5022      0.00000
     52       1.5172      0.00000
     53       1.5302      0.00000
     54       1.5302      0.00000
     55       1.5559      0.00000
     56       1.5594      0.00000
     57       1.5686      0.00000
     58       1.5890      0.00000
     59       1.6024      0.00000
     60       1.6024      0.00000
     61       1.6193      0.00000
     62       1.6435      0.00000
     63       1.6436      0.00000
     64       1.6528      0.00000
     65       1.6676      0.00000
     66       1.6881      0.00000
     67       1.6882      0.00000
     68       1.6892      0.00000
     69       1.6939      0.00000
     70       1.7450      0.00000
     71       1.7451      0.00000
     72       1.7462      0.00000
     73       1.7462      0.00000
     74       1.8365      0.00000
     75       1.8387      0.00000
     76       1.8402      0.00000
     77       1.8924      0.00000
     78       1.8926      0.00000
     79       1.9152      0.00000
     80       1.9176      0.00000
     81       1.9260      0.00000
     82       1.9350      0.00000
     83       1.9351      0.00000
     84       1.9457      0.00000
     85       1.9503      0.00000
     86       1.9662      0.00000
     87       1.9756      0.00000
     88       1.9786      0.00000
     89       1.9786      0.00000
     90       1.9925      0.00000
     91       1.9925      0.00000
     92       1.9987      0.00000
     93       2.0045      0.00000
     94       2.1457      0.00000
     95       2.1457      0.00000
     96       2.2339      0.00000
     97       2.2339      0.00000
     98       2.2792      0.00000
     99       2.4879      0.00000
    100       2.4885      0.00000
    101       2.5092      0.00000
    102       2.5095      0.00000
    103       2.5388      0.00000
    104       2.5594      0.00000
    105       2.5733      0.00000
    106       2.6644      0.00000
    107       2.6645      0.00000
    108       2.6980      0.00000
    109       2.6998      0.00000
    110       2.6999      0.00000
    111       2.7257      0.00000
    112       2.7485      0.00000
    113       2.7695      0.00000
    114       2.7868      0.00000
    115       2.7894      0.00000
    116       2.8116      0.00000
    117       2.8116      0.00000
    118       2.8661      0.00000
    119       2.8895      0.00000
    120       2.9028      0.00000
    121       2.9033      0.00000
    122       2.9033      0.00000
    123       2.9049      0.00000
    124       2.9049      0.00000
    125       2.9081      0.00000
    126       2.9240      0.00000
    127       2.9241      0.00000
    128       2.9365      0.00000
    129       2.9629      0.00000
    130       2.9630      0.00000
    131       2.9688      0.00000
    132       2.9688      0.00000
    133       2.9702      0.00000
    134       2.9744      0.00000
    135       2.9847      0.00000
    136       3.0386      0.00000
    137       3.0386      0.00000
    138       3.0514      0.00000
    139       3.0514      0.00000
    140       3.1164      0.00000
    141       3.1171      0.00000
    142       3.1225      0.00000
    143       3.1226      0.00000
    144       3.1391      0.00000
    145       3.1658      0.00000
    146       3.1706      0.00000
    147       3.1711      0.00000
    148       3.1975      0.00000
    149       3.1976      0.00000
    150       3.2506      0.00000
    151       3.2951      0.00000
    152       3.3009      0.00000
    153       3.3082      0.00000
    154       3.3082      0.00000
    155       3.3341      0.00000
    156       3.3342      0.00000
    157       3.3347      0.00000
    158       3.3464      0.00000
    159       3.3466      0.00000
    160       3.3520      0.00000
    161       3.3602      0.00000
    162       3.3624      0.00000
    163       3.3624      0.00000
    164       3.4185      0.00000
    165       3.4214      0.00000
    166       3.4835      0.00000
    167       3.4835      0.00000
    168       3.4854      0.00000
    169       3.4881      0.00000
    170       3.5017      0.00000
    171       3.5018      0.00000
    172       3.5475      0.00000
    173       3.5827      0.00000
    174       3.5917      0.00000
    175       3.5975      0.00000
    176       3.6095      0.00000
    177       3.6225      0.00000
    178       3.6225      0.00000
    179       3.6402      0.00000
    180       3.6461      0.00000
    181       3.6461      0.00000
    182       3.6601      0.00000
    183       3.6715      0.00000
    184       3.7156      0.00000
    185       3.7156      0.00000
    186       3.7486      0.00000
    187       3.7486      0.00000
    188       3.8270      0.00000
    189       3.8387      0.00000
    190       3.8547      0.00000
    191       3.9074      0.00000
    192       3.9381      0.00000
    193       3.9382      0.00000
    194       3.9597      0.00000
    195       3.9598      0.00000
    196       3.9831      0.00000
    197       3.9984      0.00000
    198       4.0163      0.00000
    199       4.0163      0.00000
    200       4.0600      0.00000
    201       4.1434      0.00000
    202       4.1488      0.00000
    203       4.1488      0.00000
    204       4.1490      0.00000
    205       4.1577      0.00000
    206       4.1719      0.00000
    207       4.1783      0.00000
    208       4.1942      0.00000
    209       4.1944      0.00000
    210       4.2124      0.00000
    211       4.2445      0.00000
    212       4.2846      0.00000
    213       4.2847      0.00000
    214       4.3152      0.00000
    215       4.3153      0.00000
    216       4.3213      0.00000
    217       4.3397      0.00000
    218       4.3536      0.00000
    219       4.3548      0.00000
    220       4.3548      0.00000
    221       4.3626      0.00000
    222       4.4189      0.00000
    223       4.4210      0.00000
    224       4.4354      0.00000
    225       4.4409      0.00000
    226       4.4432      0.00000
    227       4.4432      0.00000
    228       4.4452      0.00000
    229       4.4452      0.00000
    230       4.4570      0.00000
    231       4.4570      0.00000
    232       4.4587      0.00000
    233       4.4587      0.00000
    234       4.4597      0.00000
    235       4.4602      0.00000
    236       4.4911      0.00000
    237       4.4967      0.00000
    238       4.5165      0.00000
    239       4.5210      0.00000
    240       4.5240      0.00000
    241       4.5471      0.00000
    242       4.5474      0.00000
    243       4.5498      0.00000
    244       4.5500      0.00000
    245       4.5636      0.00000
    246       4.5683      0.00000
    247       4.5695      0.00000
    248       4.5954      0.00000
    249       4.6006      0.00000
    250       4.6031      0.00000
    251       4.6114      0.00000
    252       4.6288      0.00000
    253       4.6326      0.00000
    254       4.6376      0.00000
    255       4.6397      0.00000
    256       4.6720      0.00000


--------------------------------------------------------------------------------------------------------


 soft charge-density along one line, spin component           1
         0         1         2         3         4         5         6         7         8         9
 total charge-density along one line

 pseudopotential strength for first ion, spin component:           1
 -6.658  -0.000  -0.000   0.000   0.000  -2.177   0.000   0.000
 -0.000  -6.712  -0.000   0.000  -0.000   0.000  -2.138   0.000
 -0.000  -0.000  -6.739  -0.000  -0.000   0.000   0.000  -2.120
  0.000   0.000  -0.000  -6.712  -0.000  -0.000  -0.000   0.000
  0.000  -0.000  -0.000  -0.000  -6.658  -0.000   0.000   0.000
 -2.177   0.000   0.000  -0.000  -0.000   8.697  -0.000  -0.000
  0.000  -2.138   0.000  -0.000   0.000  -0.000   8.672   0.000
  0.000   0.000  -2.120   0.000   0.000  -0.000   0.000   8.663
 -0.000  -0.000   0.000  -2.138   0.000   0.000   0.000  -0.000
 -0.000   0.000   0.000   0.000  -2.177   0.000  -0.000  -0.000
 -0.000  -0.000   0.017   0.000  -0.000  -0.000  -0.000  -0.004
 -0.000  -0.000   0.031   0.000  -0.000  -0.000  -0.000  -0.005
 -0.000   0.032  -0.000   0.000  -0.000   0.000  -0.012  -0.000
  0.000   0.000   0.041  -0.000   0.000   0.000  -0.000  -0.016
  0.000   0.000   0.000   0.032  -0.000   0.000   0.000  -0.000
 -0.000   0.035  -0.000  -0.000  -0.000  -0.000  -0.007  -0.000
 -0.000   0.000   0.045  -0.000  -0.000   0.000  -0.000  -0.012
  0.000  -0.000   0.000   0.035  -0.000   0.000   0.000   0.000
 total augmentation occupancy for first ion, spin component:           1
  2.001  -0.000   0.000   0.000   0.000  -0.015   0.000   0.000  -0.000   0.000  -0.000   0.000   0.000   0.000   0.000   0.000
 -0.000   1.997  -0.000   0.000   0.000  -0.000  -0.002  -0.000   0.000   0.000  -0.000  -0.000  -0.055  -0.000  -0.000   0.047
  0.000  -0.000   1.995   0.000  -0.000   0.000   0.000   0.016   0.000  -0.000  -0.069  -0.014  -0.000  -0.120  -0.000   0.000
  0.000   0.000   0.000   1.997  -0.000   0.000   0.000  -0.000  -0.002   0.000  -0.000  -0.000   0.000  -0.000  -0.055   0.000
  0.000   0.000  -0.000  -0.000   2.001  -0.000   0.000  -0.000  -0.000  -0.015   0.000   0.000   0.000   0.000   0.000   0.000
 -0.015  -0.000   0.000   0.000  -0.000   0.000   0.000  -0.000  -0.000  -0.000   0.000   0.000   0.000   0.000  -0.000   0.000
  0.000  -0.002   0.000   0.000   0.000   0.000   0.003   0.000   0.000  -0.000   0.000   0.000  -0.006   0.000   0.000   0.001
  0.000  -0.000   0.016  -0.000  -0.000  -0.000   0.000   0.009   0.000  -0.000   0.098  -0.013   0.000  -0.025  -0.000   0.000
 -0.000   0.000   0.000  -0.002  -0.000  -0.000   0.000   0.000   0.003  -0.000  -0.000   0.000   0.000  -0.000  -0.006   0.000
  0.000   0.000  -0.000   0.000  -0.015  -0.000  -0.000  -0.000  -0.000   0.000  -0.000   0.000  -0.000   0.000   0.000   0.000
 -0.000  -0.000  -0.069  -0.000   0.000   0.000  -0.000   0.098  -0.000  -0.000   1.918  -0.235   0.000  -0.324  -0.000   0.000
  0.000  -0.000  -0.014  -0.000   0.000   0.000   0.000  -0.013   0.000   0.000  -0.235   0.029  -0.000   0.043   0.000  -0.000
  0.000  -0.055  -0.000   0.000   0.000   0.000  -0.006   0.000   0.000  -0.000   0.000   0.000   0.012   0.000   0.000  -0.002
  0.000  -0.000  -0.120  -0.000   0.000   0.000   0.000  -0.025  -0.000   0.000  -0.324   0.043   0.000   0.075  -0.000   0.000
  0.000  -0.000   0.000  -0.055   0.000  -0.000   0.000  -0.000  -0.006   0.000  -0.000   0.000   0.000  -0.000   0.012  -0.000
  0.000   0.047   0.000   0.000   0.000   0.000   0.001   0.000   0.000   0.000   0.000  -0.000  -0.002   0.000  -0.000   0.001
  0.000   0.000   0.055  -0.000  -0.000   0.000   0.000   0.003  -0.000  -0.000   0.035  -0.005  -0.000  -0.011   0.000   0.000
 -0.000   0.000   0.000   0.047  -0.000   0.000   0.000   0.000   0.001   0.000   0.000   0.000   0.000   0.000  -0.002   0.000


------------------------ aborting loop because EDIFF is reached ----------------------------------------


    FORLOC:  cpu time      0.0008: real time      0.0008
    FORHF :  cpu time      1.5728: real time      1.5732
    FORNL :  cpu time      0.1209: real time      0.1211
    FORCOR:  cpu time      0.4547: real time      0.4548
    OFIELD:  cpu time      0.0001: real time      0.0001
    FORVDW:  cpu time      0.0057: real time      0.1806

 VOLUME and BASIS-vectors are now :
 -----------------------------------------------------------------------------
  energy-cutoff  :      520.00
  volume of cell :     9881.61
      direct lattice vectors                 reciprocal lattice vectors
    21.138852197  0.000000000  0.000000000     0.047306258  0.000000000  0.000000000
     0.000000000 21.138852197  0.000000000     0.000000000  0.047306258  0.000000000
     0.000000000  0.000000000 22.113885220     0.000000000  0.000000000  0.045220457

  length of vectors
    21.138852197 21.138852197 22.113885220     0.047306258  0.047306258  0.045220457


 FORCES acting on ions:
    Electron-Ion                     Ewald-Force                    Non-Local-Force
 -----------------------------------------------------------------------------------------------
   0.172E-03 -.245E-08 -.365E+03   0.126E-16 0.327E-16 0.351E+03   -.318E-21 -.212E-21 0.135E+02
   0.172E-03 -.232E-08 0.365E+03   -.566E-16 -.302E-16 -.351E+03   0.318E-21 0.212E-21 -.135E+02
 -----------------------------------------------------------------------------------------------
   0.348E-03 0.599E-08 0.148E-05   -.440E-16 0.248E-17 0.000E+00   0.000E+00 0.000E+00 0.000E+00


 POSITION                                       TOTAL-FORCE (eV/Angst)
 -----------------------------------------------------------------------------------
     10.56943     12.68331     16.08428         0.000000     -0.000000      0.120227
     10.56943     12.68331     13.86085        -0.000000      0.000000     -0.120227
 -----------------------------------------------------------------------------------
    total drift:                                0.000348      0.000000      0.000001


--------------------------------------------------------------------------------------------------------



  FREE ENERGIE OF THE ION-ELECTRON SYSTEM (eV)
  ---------------------------------------------------
  free  energy   TOTEN  =        -3.09926578 eV

  energy  without entropy=       -3.09926578  energy(sigma->0) =       -3.09926578



--------------------------------------------------------------------------------------------------------


    POTLOK:  cpu time      0.5108: real time      0.5108


--------------------------------------------------------------------------------------------------------


     LOOP+:  cpu time   1190.4421: real time   1191.4296
    4ORBIT:  cpu time      0.0000: real time      0.0000

 total amount of memory used by VASP MPI-rank0  1210280. kBytes
=======================================================================

   base      :      30000. kBytes
   nonlr-proj:       1100. kBytes
   fftplans  :      61791. kBytes
   grid      :      48291. kBytes
   one-center:         15. kBytes
   HF        :         64. kBytes
   wavefun   :       3207. kBytes
   fock_wrk  :    1065812. kBytes

  
  
 General timing and accounting informations for this job:
 ========================================================
  
                  Total CPU time used (sec):     1282.422
                            User time (sec):     1250.840
                          System time (sec):       31.582
                         Elapsed time (sec):     1292.024
  
                   Maximum memory used (kb):     2668804.
                   Average memory used (kb):          N/A
  
                          Minor page faults:      3559561
                          Major page faults:           49
                 Voluntary context switches:        46118
