 vasp.6.3.0 20Jan22 (build Apr  1 2022 16:44:48) complex                         
 executed on        HPECrayEX_GCC date 2022.08.16  00:52:00
 running  512 mpi-ranks, with    1 threads/rank
 distrk:  each k-point on  256 cores,    2 groups
 distr:  one band on NCORE=   4 cores,   64 groups


--------------------------------------------------------------------------------------------------------


 INCAR:
   SYSTEM = MgO-rocksalt
   ISMEAR = 0
   SIGMA = 0.05
   EDIFF = 1E-6
   ALGO = ALL
   ISTART = 0
   IBRION = -1
   NSW = 0
   ISYM = 2
   DIPOL = 0.5 0.5 0.5
   IDIPOL = 3
   LDIPOL = .TRUE.
   GGA = ML
   LUSE_VDW = .TRUE.
   ZAB_VDW = -1.8867
   AGGAC = 0.0000
   ENCUT = 520
   PREC = Accurate
   LASPH = .TRUE.
   LREAL = Auto
   ISPIN = 1
   NELM = 200
   NELMIN = 8
   NCORE = 4
   KPAR = 2
   LWAVE = .FALSE.
   LCHARG = .FALSE.

 POTCAR:    PAW_PBE Mg_pv 13Apr2007               
 POTCAR:    PAW_PBE O 08Apr2002                   
 -----------------------------------------------------------------------------
|                                                                             |
|               ----> ADVICE to this user running VASP <----                  |
|                                                                             |
|     You have switched on vdW-DFT.                                           |
|     This routine was written and supplied by Jiri Klimes. We recommend      |
|     that you carefully read and cite the following publications:            |
|       J. Klimes, D.R. Bowler, A. Michelides                                 |
|          J. Phys.: Cond Matt. 22 022201 (2010)                              |
|       J. Klimes, D.R. Bowler, A. Michelides                                 |
|          Phys. Rev. B. 83, 195131 (2011)                                    |
|     and references therein.                                                 |
|                                                                             |
 -----------------------------------------------------------------------------

 POTCAR:    PAW_PBE Mg_pv 13Apr2007               
   SHA256 =  f474ac0dd33840b9ae76c01d57fea79fdf77cdfbb07d5ade72c65f83c709b62b Mg_pv/POTCAR          
   COPYR  = (c) Copyright 13Apr2007 Georg Kresse                                                    
   COPYR  = This file is part of the software VASP. Any use, copying, and all other rights are regul
   COPYR  = If you do not have a valid VASP license, you may not use, copy or distribute this file. 
   VRHFIN =Mg: p6s2                                                                                 
   LEXCH  = PE                                                                                      
   EATOM  =  1056.7344 eV,   77.6678 Ry                                                             
                                                                                                    
   TITEL  = PAW_PBE Mg_pv 13Apr2007                                                                 
   LULTRA =        F    use ultrasoft PP ?                                                          
   IUNSCR =        1    unscreen: 0-lin 1-nonlin 2-no                                               
   RPACOR =    1.500    partial core radius                                                         
   POMASS =   24.305; ZVAL   =    8.000    mass and valenz                                          
   RCORE  =    2.000    outmost cutoff radius                                                       
   RWIGS  =    2.000; RWIGS  =    1.058    wigner-seitz radius (au A)                               
   ENMAX  =  403.929; ENMIN  =  302.947 eV                                                          
   RCLOC  =    1.506    cutoff for local pot                                                        
   LCOR   =        T    correct aug charges                                                         
   LPAW   =        T    paw PP                                                                      
   EAUG   =  758.780                                                                                
   DEXC   =    0.000                                                                                
   RMAX   =    2.045    core radius for proj-oper                                                   
   RAUG   =    1.300    factor for augmentation sphere                                              
   RDEP   =    2.025    radius for radial grids                                                     
   RDEPT  =    1.557    core radius for aug-charge                                                  
                                                                                                    
   Atomic configuration                                                                             
    5 entries                                                                                       
     n  l   j            E        occ.                                                              
     1  0  0.50     -1259.6230   2.0000                                                             
     2  0  0.50       -79.8442   2.0000                                                             
     2  1  1.50       -46.6121   6.0000                                                             
     3  0  0.50        -4.7055   2.0000                                                             
     3  2  1.50        -1.3606   0.0000                                                             
   Description                                                                                      
     l       E           TYP  RCUT    TYP  RCUT                                                     
     1    -46.6121073     23  1.600                                                                 
     1      2.7211652     23  1.600                                                                 
     0     -4.7054661     23  2.000                                                                 
     0     61.2262170     23  2.000                                                                 
     2     -1.3605826     23  2.000                                                                 
  local pseudopotential read in
  partial core-charges read in
  partial kinetic energy density read in
  atomic valenz-charges read in
  non local Contribution for L=           1  read in
    real space projection operators read in
  non local Contribution for L=           1  read in
    real space projection operators read in
  non local Contribution for L=           0  read in
    real space projection operators read in
  non local Contribution for L=           0  read in
    real space projection operators read in
  non local Contribution for L=           2  read in
    real space projection operators read in
    PAW grid and wavefunctions read in

   number of l-projection  operators is LMAX  =           5
   number of lm-projection operators is LMMAX =          13

 POTCAR:    PAW_PBE O 08Apr2002                   
   SHA256 =  818f92134a0a090dccd8ba1447fa70422a3b330e708bb4f08108d8ae51209ddf O/POTCAR              
   COPYR  = (c) Copyright 08Apr2002 Georg Kresse                                                    
   COPYR  = This file is part of the software VASP. Any use, copying, and all other rights are regul
   COPYR  = If you do not have a valid VASP license, you may not use, copy or distribute this file. 
   VRHFIN =O: s2p4                                                                                  
   LEXCH  = PE                                                                                      
   EATOM  =   432.3788 eV,   31.7789 Ry                                                             
                                                                                                    
   TITEL  = PAW_PBE O 08Apr2002                                                                     
   LULTRA =        F    use ultrasoft PP ?                                                          
   IUNSCR =        1    unscreen: 0-lin 1-nonlin 2-no                                               
   RPACOR =    1.200    partial core radius                                                         
   POMASS =   16.000; ZVAL   =    6.000    mass and valenz                                          
   RCORE  =    1.520    outmost cutoff radius                                                       
   RWIGS  =    1.550; RWIGS  =    0.820    wigner-seitz radius (au A)                               
   ENMAX  =  400.000; ENMIN  =  300.000 eV                                                          
   ICORE  =        2    local potential                                                             
   LCOR   =        T    correct aug charges                                                         
   LPAW   =        T    paw PP                                                                      
   EAUG   =  605.392                                                                                
   DEXC   =    0.000                                                                                
   RMAX   =    1.553    core radius for proj-oper                                                   
   RAUG   =    1.300    factor for augmentation sphere                                              
   RDEP   =    1.550    radius for radial grids                                                     
   RDEPT  =    1.329    core radius for aug-charge                                                  
                                                                                                    
   Atomic configuration                                                                             
    4 entries                                                                                       
     n  l   j            E        occ.                                                              
     1  0  0.50      -514.6923   2.0000                                                             
     2  0  0.50       -23.9615   2.0000                                                             
     2  1  0.50        -9.0305   4.0000                                                             
     3  2  1.50        -9.5241   0.0000                                                             
   Description                                                                                      
     l       E           TYP  RCUT    TYP  RCUT                                                     
     0    -23.9615318     23  1.200                                                                 
     0     -9.5240782     23  1.200                                                                 
     1     -9.0304911     23  1.520                                                                 
     1      8.1634956     23  1.520                                                                 
     2     -9.5240782      7  1.500                                                                 
  local pseudopotential read in
  partial core-charges read in
  partial kinetic energy density read in
  kinetic energy density of atom read in
  atomic valenz-charges read in
  non local Contribution for L=           0  read in
    real space projection operators read in
  non local Contribution for L=           0  read in
    real space projection operators read in
  non local Contribution for L=           1  read in
    real space projection operators read in
  non local Contribution for L=           1  read in
    real space projection operators read in
    PAW grid and wavefunctions read in

   number of l-projection  operators is LMAX  =           4
   number of lm-projection operators is LMMAX =           8

 Optimization of the real space projectors (new method)

 maximal supplied QI-value         = 18.90
 optimisation between [QCUT,QGAM] = [ 11.53, 23.24] = [ 37.21,151.29] Ry 
 Optimized for a Real-space Cutoff    1.28 Angstroem

   l    n(q)    QCUT    max X(q) W(low)/X(q) W(high)/X(q)  e(spline) 
   1      8    11.527     2.974    0.44E-04    0.56E-04    0.12E-06
   1      8    11.527     4.279    0.12E-03    0.12E-03    0.26E-06
   0      9    11.527    16.381    0.46E-04    0.64E-04    0.78E-07
   0      9    11.527     5.611    0.26E-04    0.43E-04    0.55E-07
   2      8    11.527     4.652    0.22E-03    0.72E-04    0.47E-07
 Optimization of the real space projectors (new method)

 maximal supplied QI-value         = 24.76
 optimisation between [QCUT,QGAM] = [ 11.64, 23.27] = [ 37.91,151.63] Ry 
 Optimized for a Real-space Cutoff    1.14 Angstroem

   l    n(q)    QCUT    max X(q) W(low)/X(q) W(high)/X(q)  e(spline) 
   0      8    11.635    20.381    0.10E-03    0.33E-03    0.24E-06
   0      8    11.635    15.268    0.11E-03    0.35E-03    0.26E-06
   1      7    11.635     5.964    0.24E-03    0.31E-03    0.30E-06
   1      7    11.635     5.382    0.22E-03    0.25E-03    0.26E-06
 -----------------------------------------------------------------------------
|                                                                             |
|               ----> ADVICE to this user running VASP <----                  |
|                                                                             |
|     You enforced a specific xc type in the INCAR file but a different       |
|     type was found in the POTCAR file.                                      |
|     I HOPE YOU KNOW WHAT YOU ARE DOING!                                     |
|                                                                             |
 -----------------------------------------------------------------------------

  PAW_PBE Mg_pv 13Apr2007               :
 energy of atom  1       EATOM=-1056.7344
 kinetic energy error for atom=    0.0340 (will be added to EATOM!!)
  PAW_PBE O 08Apr2002                   :
 energy of atom  2       EATOM= -432.3788
 kinetic energy error for atom=    0.0208 (will be added to EATOM!!)


 POSCAR: Mg  O
  positions in direct lattice
  No initial velocities read in
 exchange correlation table for  LEXCH =       44
   RHO(1)=    0.500       N(1)  =     2000
   RHO(2)=  100.500       N(2)  =     4000



--------------------------------------------------------------------------------------------------------


 ion  position               nearest neighbor table
   1  0.000  0.000  0.407- 103 2.11 104 2.11 119 2.11 184 2.11 101 2.11
   2  0.100  0.100  0.407- 103 2.11 104 2.11 108 2.11 123 2.11 102 2.11
   3  0.000  0.100  0.503- 101 2.11 102 2.11 105 2.11 182 2.11 103 2.11
   4  0.100  0.000  0.503- 101 2.11 102 2.11 118 2.11 121 2.11 104 2.11
   5  0.000  0.200  0.407- 107 2.11 103 2.11 108 2.11 188 2.11 105 2.11
   6  0.100  0.300  0.407- 108 2.11 107 2.11 112 2.11 127 2.11 106 2.11
   7  0.000  0.300  0.503- 105 2.11 106 2.11 109 2.11 186 2.11 107 2.11
   8  0.100  0.200  0.503- 106 2.11 105 2.11 102 2.11 125 2.11 108 2.11
   9  0.000  0.400  0.407- 107 2.11 111 2.11 112 2.11 192 2.11 109 2.11
  10  0.100  0.500  0.407- 111 2.11 112 2.11 116 2.11 131 2.11 110 2.11
  11  0.000  0.500  0.503- 109 2.11 110 2.11 113 2.11 190 2.11 111 2.11
  12  0.100  0.400  0.503- 106 2.11 109 2.11 110 2.11 129 2.11 112 2.11
  13  0.000  0.600  0.407- 111 2.11 115 2.11 116 2.11 196 2.11 113 2.11
  14  0.100  0.700  0.407- 120 2.11 116 2.11 115 2.11 135 2.11 114 2.11
  15  0.000  0.700  0.503- 117 2.11 114 2.11 113 2.11 194 2.11 115 2.11
  16  0.100  0.600  0.503- 110 2.11 113 2.11 114 2.11 133 2.11 116 2.11
  17  0.000  0.800  0.407- 115 2.11 119 2.11 120 2.11 200 2.11 117 2.11
  18  0.100  0.900  0.407- 104 2.11 119 2.11 120 2.11 139 2.11 118 2.11
  19  0.000  0.900  0.503- 101 2.11 117 2.11 118 2.11 198 2.11 119 2.11
  20  0.100  0.800  0.503- 114 2.11 117 2.11 118 2.11 137 2.11 120 2.11
  21  0.200  0.000  0.407- 124 2.11 123 2.11 104 2.11 139 2.11 121 2.11
  22  0.300  0.100  0.407- 123 2.11 124 2.11 128 2.11 143 2.11 122 2.11
  23  0.200  0.100  0.503- 122 2.11 121 2.11 102 2.11 125 2.11 123 2.11
  24  0.300  0.000  0.503- 121 2.11 122 2.11 138 2.11 141 2.11 124 2.11
  25  0.200  0.200  0.407- 127 2.11 128 2.11 108 2.11 123 2.11 125 2.11
  26  0.300  0.300  0.407- 127 2.11 128 2.11 132 2.11 147 2.11 126 2.11
  27  0.200  0.300  0.503- 125 2.11 126 2.11 106 2.11 129 2.11 127 2.11
  28  0.300  0.200  0.503- 125 2.11 126 2.11 122 2.11 145 2.11 128 2.11
  29  0.200  0.400  0.407- 132 2.11 127 2.11 131 2.11 112 2.11 129 2.11
  30  0.300  0.500  0.407- 131 2.11 132 2.11 136 2.11 151 2.11 130 2.11
  31  0.200  0.500  0.503- 130 2.11 129 2.11 110 2.11 133 2.11 131 2.11
  32  0.300  0.400  0.503- 129 2.11 126 2.11 130 2.11 149 2.11 132 2.11
  33  0.200  0.600  0.407- 136 2.11 131 2.11 135 2.11 116 2.11 133 2.11
  34  0.300  0.700  0.407- 135 2.11 140 2.11 136 2.11 155 2.11 134 2.11
  35  0.200  0.700  0.503- 134 2.11 137 2.11 114 2.11 133 2.11 135 2.11
  36  0.300  0.600  0.503- 133 2.11 130 2.11 134 2.11 153 2.11 136 2.11
  37  0.200  0.800  0.407- 135 2.11 140 2.11 139 2.11 120 2.11 137 2.11
  38  0.300  0.900  0.407- 139 2.11 124 2.11 140 2.11 159 2.11 138 2.11
  39  0.200  0.900  0.503- 138 2.11 121 2.11 137 2.11 118 2.11 139 2.11
  40  0.300  0.800  0.503- 134 2.11 137 2.11 138 2.11 157 2.11 140 2.11
  41  0.400  0.000  0.407- 124 2.11 143 2.11 144 2.11 159 2.11 141 2.11
  42  0.500  0.100  0.407- 143 2.11 144 2.11 148 2.11 163 2.11 142 2.11
  43  0.400  0.100  0.503- 122 2.11 141 2.11 142 2.11 145 2.11 143 2.11
  44  0.500  0.000  0.503- 141 2.11 142 2.11 158 2.11 161 2.11 144 2.11
  45  0.400  0.200  0.407- 147 2.11 143 2.11 128 2.11 148 2.11 145 2.11
  46  0.500  0.300  0.407- 148 2.11 147 2.11 152 2.11 167 2.11 146 2.11
  47  0.400  0.300  0.503- 145 2.11 126 2.11 146 2.11 149 2.11 147 2.11
  48  0.500  0.200  0.503- 146 2.11 145 2.11 142 2.11 165 2.11 148 2.11
  49  0.400  0.400  0.407- 132 2.11 147 2.11 151 2.11 152 2.11 149 2.11
  50  0.500  0.500  0.407- 151 2.11 152 2.11 156 2.11 171 2.11 150 2.11
  51  0.400  0.500  0.503- 130 2.11 149 2.11 150 2.11 153 2.11 151 2.11
  52  0.500  0.400  0.503- 146 2.11 149 2.11 150 2.11 169 2.11 152 2.11
  53  0.400  0.600  0.407- 136 2.11 151 2.11 155 2.11 156 2.11 153 2.11
  54  0.500  0.700  0.407- 160 2.11 156 2.11 155 2.11 175 2.11 154 2.11
  55  0.400  0.700  0.503- 157 2.11 153 2.11 154 2.11 134 2.11 155 2.11
  56  0.500  0.600  0.503- 150 2.11 153 2.11 154 2.11 173 2.11 156 2.11
  57  0.400  0.800  0.407- 155 2.11 140 2.11 159 2.11 160 2.11 157 2.11
  58  0.500  0.900  0.407- 144 2.11 159 2.11 160 2.11 179 2.11 158 2.11
  59  0.400  0.900  0.503- 138 2.11 141 2.11 157 2.11 158 2.11 159 2.11
  60  0.500  0.800  0.503- 154 2.11 157 2.11 158 2.11 177 2.11 160 2.11
  61  0.600  0.000  0.407- 144 2.11 163 2.11 164 2.11 179 2.11 161 2.11
  62  0.700  0.100  0.407- 183 2.11 164 2.11 168 2.11 163 2.11 162 2.11
  63  0.600  0.100  0.503- 142 2.11 161 2.11 162 2.11 165 2.11 163 2.11
  64  0.700  0.000  0.503- 181 2.11 162 2.11 178 2.11 161 2.11 164 2.11
  65  0.600  0.200  0.407- 167 2.11 163 2.11 148 2.11 168 2.11 165 2.11
  66  0.700  0.300  0.407- 168 2.11 187 2.11 172 2.11 167 2.11 166 2.11
  67  0.600  0.300  0.503- 165 2.11 146 2.11 166 2.11 169 2.11 167 2.11
  68  0.700  0.200  0.503- 166 2.11 185 2.11 162 2.11 165 2.11 168 2.11
  69  0.600  0.400  0.407- 152 2.11 167 2.11 171 2.11 172 2.11 169 2.11
  70  0.700  0.500  0.407- 191 2.11 172 2.11 176 2.11 171 2.11 170 2.11
  71  0.600  0.500  0.503- 150 2.11 169 2.11 170 2.11 173 2.11 171 2.11
  72  0.700  0.400  0.503- 189 2.11 169 2.11 170 2.11 166 2.11 172 2.11
  73  0.600  0.600  0.407- 156 2.11 171 2.11 175 2.11 176 2.11 173 2.11
  74  0.700  0.700  0.407- 180 2.11 195 2.11 175 2.11 176 2.11 174 2.11
  75  0.600  0.700  0.503- 177 2.11 173 2.11 174 2.11 154 2.11 175 2.11
  76  0.700  0.600  0.503- 193 2.11 173 2.11 174 2.11 170 2.11 176 2.11
  77  0.600  0.800  0.407- 175 2.11 160 2.11 179 2.11 180 2.11 177 2.11
  78  0.700  0.900  0.407- 199 2.11 179 2.11 180 2.11 164 2.11 178 2.11
  79  0.600  0.900  0.503- 158 2.11 161 2.11 177 2.11 178 2.11 179 2.11
  80  0.700  0.800  0.503- 174 2.11 197 2.11 178 2.11 177 2.11 180 2.11
  81  0.800  0.000  0.407- 164 2.11 183 2.11 184 2.11 199 2.11 181 2.11
  82  0.900  0.100  0.407- 103 2.11 183 2.11 184 2.11 188 2.11 182 2.11
  83  0.800  0.100  0.503- 162 2.11 181 2.11 182 2.11 185 2.11 183 2.11
  84  0.900  0.000  0.503- 101 2.11 181 2.11 182 2.11 198 2.11 184 2.11
  85  0.800  0.200  0.407- 168 2.11 187 2.11 183 2.11 188 2.11 185 2.11
  86  0.900  0.300  0.407- 188 2.11 187 2.11 107 2.11 192 2.11 186 2.11
  87  0.800  0.300  0.503- 166 2.11 185 2.11 186 2.11 189 2.11 187 2.11
  88  0.900  0.200  0.503- 186 2.11 182 2.11 185 2.11 105 2.11 188 2.11
  89  0.800  0.400  0.407- 172 2.11 187 2.11 191 2.11 192 2.11 189 2.11
  90  0.900  0.500  0.407- 111 2.11 191 2.11 192 2.11 196 2.11 190 2.11
  91  0.800  0.500  0.503- 170 2.11 189 2.11 190 2.11 193 2.11 191 2.11
  92  0.900  0.400  0.503- 109 2.11 186 2.11 189 2.11 190 2.11 192 2.11
  93  0.800  0.600  0.407- 176 2.11 191 2.11 195 2.11 196 2.11 193 2.11
  94  0.900  0.700  0.407- 200 2.11 195 2.11 196 2.11 115 2.11 194 2.11
  95  0.800  0.700  0.503- 174 2.11 197 2.11 194 2.11 193 2.11 195 2.11
  96  0.900  0.600  0.503- 113 2.11 190 2.11 193 2.11 194 2.11 196 2.11
  97  0.800  0.800  0.407- 180 2.11 195 2.11 199 2.11 200 2.11 197 2.11
  98  0.900  0.900  0.407- 119 2.11 184 2.11 199 2.11 200 2.11 198 2.11
  99  0.800  0.900  0.503- 178 2.11 181 2.11 197 2.11 198 2.11 199 2.11
 100  0.900  0.800  0.503- 194 2.11 117 2.11 197 2.11 198 2.11 200 2.11
 101  0.000  0.000  0.503-   3 2.11   4 2.11  19 2.11  84 2.11   1 2.11
 102  0.100  0.100  0.503-   3 2.11   4 2.11   8 2.11  23 2.11   2 2.11
 103  0.000  0.100  0.407-   1 2.11   2 2.11   5 2.11  82 2.11   3 2.11
 104  0.100  0.000  0.407-   1 2.11   2 2.11  18 2.11  21 2.11   4 2.11
 105  0.000  0.200  0.503-   7 2.11   3 2.11   8 2.11  88 2.11   5 2.11
 106  0.100  0.300  0.503-   8 2.11   7 2.11  12 2.11  27 2.11   6 2.11
 107  0.000  0.300  0.407-   5 2.11   6 2.11   9 2.11  86 2.11   7 2.11
 108  0.100  0.200  0.407-   6 2.11   5 2.11   2 2.11  25 2.11   8 2.11
 109  0.000  0.400  0.503-   7 2.11  11 2.11  12 2.11  92 2.11   9 2.11
 110  0.100  0.500  0.503-  11 2.11  12 2.11  16 2.11  31 2.11  10 2.11
 111  0.000  0.500  0.407-   9 2.11  10 2.11  13 2.11  90 2.11  11 2.11
 112  0.100  0.400  0.407-   6 2.11   9 2.11  10 2.11  29 2.11  12 2.11
 113  0.000  0.600  0.503-  11 2.11  15 2.11  16 2.11  96 2.11  13 2.11
 114  0.100  0.700  0.503-  20 2.11  16 2.11  15 2.11  35 2.11  14 2.11
 115  0.000  0.700  0.407-  17 2.11  14 2.11  13 2.11  94 2.11  15 2.11
 116  0.100  0.600  0.407-  10 2.11  13 2.11  14 2.11  33 2.11  16 2.11
 117  0.000  0.800  0.503-  15 2.11  19 2.11  20 2.11 100 2.11  17 2.11
 118  0.100  0.900  0.503-   4 2.11  19 2.11  20 2.11  39 2.11  18 2.11
 119  0.000  0.900  0.407-   1 2.11  17 2.11  18 2.11  98 2.11  19 2.11
 120  0.100  0.800  0.407-  14 2.11  17 2.11  18 2.11  37 2.11  20 2.11
 121  0.200  0.000  0.503-  24 2.11  23 2.11   4 2.11  39 2.11  21 2.11
 122  0.300  0.100  0.503-  23 2.11  24 2.11  28 2.11  43 2.11  22 2.11
 123  0.200  0.100  0.407-  22 2.11  21 2.11   2 2.11  25 2.11  23 2.11
 124  0.300  0.000  0.407-  21 2.11  22 2.11  38 2.11  41 2.11  24 2.11
 125  0.200  0.200  0.503-  27 2.11  28 2.11   8 2.11  23 2.11  25 2.11
 126  0.300  0.300  0.503-  27 2.11  28 2.11  32 2.11  47 2.11  26 2.11
 127  0.200  0.300  0.407-  25 2.11  26 2.11   6 2.11  29 2.11  27 2.11
 128  0.300  0.200  0.407-  25 2.11  26 2.11  22 2.11  45 2.11  28 2.11
 129  0.200  0.400  0.503-  32 2.11  27 2.11  31 2.11  12 2.11  29 2.11
 130  0.300  0.500  0.503-  31 2.11  32 2.11  36 2.11  51 2.11  30 2.11
 131  0.200  0.500  0.407-  30 2.11  29 2.11  10 2.11  33 2.11  31 2.11
 132  0.300  0.400  0.407-  29 2.11  26 2.11  30 2.11  49 2.11  32 2.11
 133  0.200  0.600  0.503-  36 2.11  31 2.11  35 2.11  16 2.11  33 2.11
 134  0.300  0.700  0.503-  35 2.11  40 2.11  36 2.11  55 2.11  34 2.11
 135  0.200  0.700  0.407-  34 2.11  37 2.11  14 2.11  33 2.11  35 2.11
 136  0.300  0.600  0.407-  33 2.11  30 2.11  34 2.11  53 2.11  36 2.11
 137  0.200  0.800  0.503-  35 2.11  40 2.11  39 2.11  20 2.11  37 2.11
 138  0.300  0.900  0.503-  39 2.11  24 2.11  40 2.11  59 2.11  38 2.11
 139  0.200  0.900  0.407-  38 2.11  21 2.11  37 2.11  18 2.11  39 2.11
 140  0.300  0.800  0.407-  34 2.11  37 2.11  38 2.11  57 2.11  40 2.11
 141  0.400  0.000  0.503-  24 2.11  43 2.11  44 2.11  59 2.11  41 2.11
 142  0.500  0.100  0.503-  43 2.11  44 2.11  48 2.11  63 2.11  42 2.11
 143  0.400  0.100  0.407-  22 2.11  41 2.11  42 2.11  45 2.11  43 2.11
 144  0.500  0.000  0.407-  41 2.11  42 2.11  58 2.11  61 2.11  44 2.11
 145  0.400  0.200  0.503-  47 2.11  43 2.11  28 2.11  48 2.11  45 2.11
 146  0.500  0.300  0.503-  48 2.11  47 2.11  52 2.11  67 2.11  46 2.11
 147  0.400  0.300  0.407-  45 2.11  26 2.11  46 2.11  49 2.11  47 2.11
 148  0.500  0.200  0.407-  46 2.11  45 2.11  42 2.11  65 2.11  48 2.11
 149  0.400  0.400  0.503-  32 2.11  47 2.11  51 2.11  52 2.11  49 2.11
 150  0.500  0.500  0.503-  51 2.11  52 2.11  56 2.11  71 2.11  50 2.11
 151  0.400  0.500  0.407-  30 2.11  49 2.11  50 2.11  53 2.11  51 2.11
 152  0.500  0.400  0.407-  46 2.11  49 2.11  50 2.11  69 2.11  52 2.11
 153  0.400  0.600  0.503-  36 2.11  51 2.11  55 2.11  56 2.11  53 2.11
 154  0.500  0.700  0.503-  60 2.11  56 2.11  55 2.11  75 2.11  54 2.11
 155  0.400  0.700  0.407-  57 2.11  53 2.11  54 2.11  34 2.11  55 2.11
 156  0.500  0.600  0.407-  50 2.11  53 2.11  54 2.11  73 2.11  56 2.11
 157  0.400  0.800  0.503-  55 2.11  40 2.11  59 2.11  60 2.11  57 2.11
 158  0.500  0.900  0.503-  44 2.11  59 2.11  60 2.11  79 2.11  58 2.11
 159  0.400  0.900  0.407-  38 2.11  41 2.11  57 2.11  58 2.11  59 2.11
 160  0.500  0.800  0.407-  54 2.11  57 2.11  58 2.11  77 2.11  60 2.11
 161  0.600  0.000  0.503-  44 2.11  63 2.11  64 2.11  79 2.11  61 2.11
 162  0.700  0.100  0.503-  83 2.11  64 2.11  68 2.11  63 2.11  62 2.11
 163  0.600  0.100  0.407-  42 2.11  61 2.11  62 2.11  65 2.11  63 2.11
 164  0.700  0.000  0.407-  81 2.11  62 2.11  78 2.11  61 2.11  64 2.11
 165  0.600  0.200  0.503-  67 2.11  63 2.11  48 2.11  68 2.11  65 2.11
 166  0.700  0.300  0.503-  68 2.11  87 2.11  72 2.11  67 2.11  66 2.11
 167  0.600  0.300  0.407-  65 2.11  46 2.11  66 2.11  69 2.11  67 2.11
 168  0.700  0.200  0.407-  66 2.11  85 2.11  62 2.11  65 2.11  68 2.11
 169  0.600  0.400  0.503-  52 2.11  67 2.11  71 2.11  72 2.11  69 2.11
 170  0.700  0.500  0.503-  91 2.11  72 2.11  76 2.11  71 2.11  70 2.11
 171  0.600  0.500  0.407-  50 2.11  69 2.11  70 2.11  73 2.11  71 2.11
 172  0.700  0.400  0.407-  89 2.11  69 2.11  70 2.11  66 2.11  72 2.11
 173  0.600  0.600  0.503-  56 2.11  71 2.11  75 2.11  76 2.11  73 2.11
 174  0.700  0.700  0.503-  80 2.11  95 2.11  75 2.11  76 2.11  74 2.11
 175  0.600  0.700  0.407-  77 2.11  73 2.11  74 2.11  54 2.11  75 2.11
 176  0.700  0.600  0.407-  93 2.11  73 2.11  74 2.11  70 2.11  76 2.11
 177  0.600  0.800  0.503-  75 2.11  60 2.11  79 2.11  80 2.11  77 2.11
 178  0.700  0.900  0.503-  99 2.11  79 2.11  80 2.11  64 2.11  78 2.11
 179  0.600  0.900  0.407-  58 2.11  61 2.11  77 2.11  78 2.11  79 2.11
 180  0.700  0.800  0.407-  74 2.11  97 2.11  78 2.11  77 2.11  80 2.11
 181  0.800  0.000  0.503-  64 2.11  83 2.11  84 2.11  99 2.11  81 2.11
 182  0.900  0.100  0.503-   3 2.11  83 2.11  84 2.11  88 2.11  82 2.11
 183  0.800  0.100  0.407-  62 2.11  81 2.11  82 2.11  85 2.11  83 2.11
 184  0.900  0.000  0.407-   1 2.11  81 2.11  82 2.11  98 2.11  84 2.11
 185  0.800  0.200  0.503-  68 2.11  87 2.11  83 2.11  88 2.11  85 2.11
 186  0.900  0.300  0.503-  88 2.11  87 2.11   7 2.11  92 2.11  86 2.11
 187  0.800  0.300  0.407-  66 2.11  85 2.11  86 2.11  89 2.11  87 2.11
 188  0.900  0.200  0.407-  86 2.11  82 2.11  85 2.11   5 2.11  88 2.11
 189  0.800  0.400  0.503-  72 2.11  87 2.11  91 2.11  92 2.11  89 2.11
 190  0.900  0.500  0.503-  11 2.11  91 2.11  92 2.11  96 2.11  90 2.11
 191  0.800  0.500  0.407-  70 2.11  89 2.11  90 2.11  93 2.11  91 2.11
 192  0.900  0.400  0.407-   9 2.11  86 2.11  89 2.11  90 2.11  92 2.11
 193  0.800  0.600  0.503-  76 2.11  91 2.11  95 2.11  96 2.11  93 2.11
 194  0.900  0.700  0.503- 100 2.11  95 2.11  96 2.11  15 2.11  94 2.11
 195  0.800  0.700  0.407-  74 2.11  97 2.11  94 2.11  93 2.11  95 2.11
 196  0.900  0.600  0.407-  13 2.11  90 2.11  93 2.11  94 2.11  96 2.11
 197  0.800  0.800  0.503-  80 2.11  95 2.11  99 2.11 100 2.11  97 2.11
 198  0.900  0.900  0.503-  19 2.11  84 2.11  99 2.11 100 2.11  98 2.11
 199  0.800  0.900  0.407-  78 2.11  81 2.11  97 2.11  98 2.11  99 2.11
 200  0.900  0.800  0.407-  94 2.11  17 2.11  97 2.11  98 2.11 100 2.11

  LATTYP: Found a simple tetragonal cell.
 ALAT       =    21.1388521970
 C/A-ratio  =     1.0461251639
  
  Lattice vectors:
  
 A1 = (  21.1388521970,   0.0000000000,   0.0000000000)
 A2 = (   0.0000000000,  21.1388521970,   0.0000000000)
 A3 = (   0.0000000000,   0.0000000000,  22.1138852197)


Analysis of symmetry for initial positions (statically):
=====================================================================
 Subroutine PRICEL returns following result:
 
  LATTYP: Found a simple tetragonal cell.
 ALAT       =     2.9894851470
 C/A-ratio  =     7.3972219738
  
  Lattice vectors:
  
 A1 = (   2.1138852197,  -2.1138852197,   0.0000000000)
 A2 = (   2.1138852197,   2.1138852197,   0.0000000000)
 A3 = (   0.0000000000,   0.0000000000,  22.1138852197)
 
  50 primitive cells build up your supercell.
 

 Routine SETGRP: Setting up the symmetry group for a 
 simple tetragonal supercell.


 Subroutine GETGRP returns: Found 16 space group operations
 (whereof  8 operations were pure point group operations)
 out of a pool of 16 trial point group operations.


The static configuration has the point symmetry C_4v.
 The point group associated with its full space group is D_4h.


Analysis of symmetry for dynamics (positions and initial velocities):
=====================================================================
 Subroutine PRICEL returns following result:
 
  LATTYP: Found a simple tetragonal cell.
 ALAT       =     2.9894851470
 C/A-ratio  =     7.3972219738
  
  Lattice vectors:
  
 A1 = (   2.1138852197,  -2.1138852197,   0.0000000000)
 A2 = (   2.1138852197,   2.1138852197,   0.0000000000)
 A3 = (   0.0000000000,   0.0000000000,  22.1138852197)
 
  50 primitive cells build up your supercell.
 

 Routine SETGRP: Setting up the symmetry group for a 
 simple tetragonal supercell.


 Subroutine GETGRP returns: Found 16 space group operations
 (whereof  8 operations were pure point group operations)
 out of a pool of 16 trial point group operations.


The dynamic configuration has the point symmetry C_4v.
 The point group associated with its full space group is D_4h.


 Subroutine INISYM returns: Found 16 space group operations
 (whereof  8 operations are pure point group operations),
 and found    50 'primitive' translations


----------------------------------------------------------------------------------------

                                     Primitive cell                                     

  volume of cell :     197.6323

  direct lattice vectors                    reciprocal lattice vectors
     2.113885220 -2.113885220  0.000000000     0.236531291 -0.236531291  0.000000000
     2.113885220  2.113885220  0.000000000     0.236531291  0.236531291 -0.000000000
     0.000000000  0.000000000 22.113885220    -0.000000000  0.000000000  0.045220457

  length of vectors
     2.989485147  2.989485147 22.113885220     0.334505760  0.334505760  0.045220457

  position of ions in fractional coordinates (direct lattice)
     0.000000000  0.000000000  0.406984115
     0.500000000  0.500000000  0.502574971
     0.000000000  0.000000000  0.502574971
     0.500000000  0.500000000  0.406984115

  ion indices of the primitive-cell ions
   primitive index   ion index
                 1           1
                 2           3
                 3         101
                 4         103

----------------------------------------------------------------------------------------



 KPOINTS: KPOINTS created by Atomic Simulation Env

Automatic generation of k-mesh.
 Grid dimensions read from file:
 generate k-points for:    1    1    1

 Generating k-lattice:

  Cartesian coordinates                     Fractional coordinates (reciprocal lattice)
     0.047306258  0.000000000  0.000000000     1.000000000  0.000000000  0.000000000
     0.000000000  0.047306258  0.000000000     0.000000000  1.000000000  0.000000000
     0.000000000  0.000000000  0.045220457     0.000000000  0.000000000  1.000000000

  Length of vectors
     0.047306258  0.047306258  0.045220457

  Shift w.r.t. Gamma in fractional coordinates (k-lattice)
     0.000000000  0.000000000  0.000000000

 
 Subroutine IBZKPT returns following result:
 ===========================================
 
 Found      1 irreducible k-points:
 
 Following reciprocal coordinates:
            Coordinates               Weight
  0.000000  0.000000  0.000000      1.000000
 
 Following cartesian coordinates:
            Coordinates               Weight
  0.000000  0.000000  0.000000      1.000000
 


--------------------------------------------------------------------------------------------------------




 Dimension of arrays:
   k-points           NKPTS =      1   k-points in BZ     NKDIM =      1   number of bands    NBANDS=    896
   number of dos      NEDOS =    301   number of ions     NIONS =    200
   non local maximal  LDIM  =      5   non local SUM 2l+1 LMDIM =     13
   total plane-waves  NPLWV = ******
   max r-space proj   IRMAX =   3914   max aug-charges    IRDMAX=   8776
   dimension x,y,z NGX =   160 NGY =  160 NGZ =  168
   dimension x,y,z NGXF=   320 NGYF=  320 NGZF=  336
   support grid    NGXF=   320 NGYF=  320 NGZF=  336
   ions per type =             100 100
   NGX,Y,Z   is equivalent  to a cutoff of  12.58, 12.58, 12.63 a.u.
   NGXF,Y,Z  is equivalent  to a cutoff of  25.17, 25.17, 25.26 a.u.

 SYSTEM =  MgO-rocksalt                            
 POSCAR =  Mg  O                                   

 Startparameter for this run:
   NWRITE =      2    write-flag & timer
   PREC   = accura    normal or accurate (medium, high low for compatibility)
   ISTART =      0    job   : 0-new  1-cont  2-samecut
   ICHARG =      2    charge: 1-file 2-atom 10-const
   ISPIN  =      1    spin polarized calculation?
   LNONCOLLINEAR =      F non collinear calculations
   LSORBIT =      F    spin-orbit coupling
   INIWAV =      1    electr: 0-lowe 1-rand  2-diag
   LASPH  =      T    aspherical Exc in radial PAW
 Electronic Relaxation 1
   ENCUT  =  520.0 eV  38.22 Ry    6.18 a.u.  39.30 39.30 41.12*2*pi/ulx,y,z
   ENINI  =  520.0     initial cutoff
   ENAUG  =  758.8 eV  augmentation charge cutoff
   NELM   =    200;   NELMIN=  8; NELMDL= -5     # of ELM steps 
   EDIFF  = 0.1E-05   stopping-criterion for ELM
   LREAL  =      T    real-space projection
   NLSPLINE    = F    spline interpolate recip. space projectors
   LCOMPAT=      F    compatible to vasp.4.4
   GGA_COMPAT  = T    GGA compatible to vasp.4.4-vasp.4.6
   LMAXPAW     = -100 max onsite density
   LMAXMIX     =    2 max onsite mixed and CHGCAR
   VOSKOWN=      0    Vosko Wilk Nusair interpolation
   ROPT   =   -0.00025  -0.00025
 Ionic relaxation
   EDIFFG = 0.1E-04   stopping-criterion for IOM
   NSW    =      0    number of steps for IOM
   NBLOCK =      1;   KBLOCK =      1    inner block; outer block 
   IBRION =     -1    ionic relax: 0-MD 1-quasi-New 2-CG
   NFREE  =      0    steps in history (QN), initial steepest desc. (CG)
   ISIF   =      2    stress and relaxation
   IWAVPR =     10    prediction:  0-non 1-charg 2-wave 3-comb
   ISYM   =      2    0-nonsym 1-usesym 2-fastsym
   LCORR  =      T    Harris-Foulkes like correction to forces

   POTIM  = 0.5000    time-step for ionic-motion
   TEIN   =    0.0    initial temperature
   TEBEG  =    0.0;   TEEND  =   0.0 temperature during run
   SMASS  =  -3.00    Nose mass-parameter (am)
   estimated Nose-frequenzy (Omega)   =  0.10E-29 period in steps = 0.13E+47 mass=  -0.102E-25a.u.
   SCALEE = 1.0000    scale energy and forces
   NPACO  =    256;   APACO  = 10.0  distance and # of slots for P.C.
   PSTRESS=    0.0 pullay stress

  Mass of Ions in am
   POMASS =  24.30 16.00
  Ionic Valenz
   ZVAL   =   8.00  6.00
  Atomic Wigner-Seitz radii
   RWIGS  =  -1.00 -1.00
  virtual crystal weights 
   VCA    =   1.00  1.00
   NELECT =    1400.0000    total number of electrons
   NUPDOWN=      -1.0000    fix difference up-down

 DOS related values:
   EMIN   =  10.00;   EMAX   =-10.00  energy-range for DOS
   EFERMI =   0.00
   ISMEAR =     0;   SIGMA  =   0.05  broadening in eV -4-tet -1-fermi 0-gaus

 Electronic relaxation 2 (details)
   IALGO  =     58    algorithm
   LDIAG  =      T    sub-space diagonalisation (order eigenvalues)
   LSUBROT=      F    optimize rotation matrix (better conditioning)
   TURBO    =      0    0=normal 1=particle mesh
   IRESTART =      0    0=no restart 2=restart with 2 vectors
   NREBOOT  =      0    no. of reboots
   NMIN     =      0    reboot dimension
   EREF     =   0.00    reference energy to select bands
   IMIX   =      4    mixing-type and parameters
     AMIX     =   0.40;   BMIX     =  1.00
     AMIX_MAG =   1.60;   BMIX_MAG =  1.00
     AMIN     =   0.10
     WC   =   100.;   INIMIX=   1;  MIXPRE=   1;  MAXMIX= -45

 Intra band minimization:
   WEIMIN = 0.0000     energy-eigenvalue tresh-hold
   EBREAK =  0.28E-09  absolut break condition
   DEPER  =   0.30     relativ break condition  

   TIME   =   0.40     timestep for ELM

  volume/ion in A,a.u.               =      49.41       333.42
  Fermi-wavevector in a.u.,A,eV,Ry     =   0.853444  1.612775  9.910024  0.728366
  Thomas-Fermi vector in A             =   1.969887

 Write flags
   LWAVE        =      F    write WAVECAR
   LDOWNSAMPLE  =      F    k-point downsampling of WAVECAR
   LCHARG       =      F    write CHGCAR
   LVTOT        =      F    write LOCPOT, total local potential
   LVHAR        =      F    write LOCPOT, Hartree potential only
   LELF         =      F    write electronic localiz. function (ELF)
   LORBIT       =      0    0 simple, 1 ext, 2 COOP (PROOUT), +10 PAW based schemes


 Dipole corrections
   LMONO  =      F    monopole corrections only (constant potential shift)
   LDIPOL =      T    correct potential (dipole corrections)
   IDIPOL =      3    1-x, 2-y, 3-z, 4-all directions 
   EPSILON=  1.0000000 bulk dielectric constant

 Exchange correlation treatment:
   GGA     =    ML    GGA type
   LEXCH   =    44    internal setting for exchange type
   LIBXC   =     F    Libxc                    
   VOSKOWN =     0    Vosko Wilk Nusair interpolation
   LHFCALC =     F    Hartree Fock is set to
   LHFONE  =     F    Hartree Fock one center treatment
   AEXX    =    0.0000 exact exchange contribution

 vdW DFT:
   LUSE_VDW   =     T    switch on vdW DFT
   Zab_VDW    =******    correlation parameter
   PARAM1     =0.1234
   PARAM2     =1.0000
   PARAM3     =0.0000
   -- rVV10 --
   BPARAM     = 6.3000
   CPARAM     = 0.0093

 Linear response parameters
   LEPSILON=     F    determine dielectric tensor
   LRPA    =     F    only Hartree local field effects (RPA)
   LNABLA  =     F    use nabla operator in PAW spheres
   LVEL    =     F    velocity operator in full k-point grid
   CSHIFT  =0.1000    complex shift for real part using Kramers Kronig
   OMEGAMAX=  -1.0    maximum frequency
   DEG_THRESHOLD= 0.2000000E-02 threshold for treating states as degnerate
   RTIME   =   -0.100 relaxation time in fs
  (WPLASMAI=    0.000 imaginary part of plasma frequency in eV, 0.658/RTIME)
   DFIELD  = 0.0000000 0.0000000 0.0000000 field for delta impulse in time

  Optional k-point grid parameters
   LKPOINTS_OPT  =     F    use optional k-point grid
   KPOINTS_OPT_MODE=     1    mode for optional k-point grid

 Orbital magnetization related:
   ORBITALMAG=     F  switch on orbital magnetization
   LCHIMAG   =     F  perturbation theory with respect to B field
   DQ        =  0.001000  dq finite difference perturbation B field
   LLRAUG    =     F  two centre corrections for induced B field



--------------------------------------------------------------------------------------------------------


 Static calculation
 charge density and potential will be updated during run
 non-spin polarized calculation
 Conjugate gradient for all bands (Freysoldt, et al. PRB 79, 241103 (2009))
 preconditioned conjugated gradient                                        
 perform sub-space diagonalisation
    before iterative eigenvector-optimisation
 modified Broyden-mixing scheme, WC =      100.0
 initial mixing is a Kerker type mixing with AMIX =  0.4000 and BMIX =      1.0000
 Hartree-type preconditioning will be used
 using additional bands          196
 real space projection scheme for non local part
 use partial core corrections
 no Harris-corrections to forces 
 use gradient corrections 
 use of overlap-Matrix (Vanderbilt PP)
 Gauss-broadening in eV      SIGMA  =   0.05


--------------------------------------------------------------------------------------------------------


  energy-cutoff  :      520.00
  volume of cell :     9881.61
      direct lattice vectors                 reciprocal lattice vectors
    21.138852197  0.000000000  0.000000000     0.047306258  0.000000000  0.000000000
     0.000000000 21.138852197  0.000000000     0.000000000  0.047306258  0.000000000
     0.000000000  0.000000000 22.113885220     0.000000000  0.000000000  0.045220457

  length of vectors
    21.138852197 21.138852197 22.113885220     0.047306258  0.047306258  0.045220457



 k-points in units of 2pi/SCALE and weight: KPOINTS created by Atomic Simulation Env
   0.00000000  0.00000000  0.00000000       1.000

 k-points in reciprocal lattice and weights: KPOINTS created by Atomic Simulation Env
   0.00000000  0.00000000  0.00000000       1.000

 position of ions in fractional coordinates (direct lattice) 
   0.00000000  0.00000000  0.40698411
   0.10000000  0.10000000  0.40698411
   0.00000000  0.10000000  0.50257497
   0.10000000  0.00000000  0.50257497
   0.00000000  0.20000000  0.40698411
   0.10000000  0.30000000  0.40698411
   0.00000000  0.30000000  0.50257497
   0.10000000  0.20000000  0.50257497
   0.00000000  0.40000000  0.40698411
   0.10000000  0.50000000  0.40698411
   0.00000000  0.50000000  0.50257497
   0.10000000  0.40000000  0.50257497
   0.00000000  0.60000000  0.40698411
   0.10000000  0.70000000  0.40698411
   0.00000000  0.70000000  0.50257497
   0.10000000  0.60000000  0.50257497
   0.00000000  0.80000000  0.40698411
   0.10000000  0.90000000  0.40698411
   0.00000000  0.90000000  0.50257497
   0.10000000  0.80000000  0.50257497
   0.20000000  0.00000000  0.40698411
   0.30000000  0.10000000  0.40698411
   0.20000000  0.10000000  0.50257497
   0.30000000  0.00000000  0.50257497
   0.20000000  0.20000000  0.40698411
   0.30000000  0.30000000  0.40698411
   0.20000000  0.30000000  0.50257497
   0.30000000  0.20000000  0.50257497
   0.20000000  0.40000000  0.40698411
   0.30000000  0.50000000  0.40698411
   0.20000000  0.50000000  0.50257497
   0.30000000  0.40000000  0.50257497
   0.20000000  0.60000000  0.40698411
   0.30000000  0.70000000  0.40698411
   0.20000000  0.70000000  0.50257497
   0.30000000  0.60000000  0.50257497
   0.20000000  0.80000000  0.40698411
   0.30000000  0.90000000  0.40698411
   0.20000000  0.90000000  0.50257497
   0.30000000  0.80000000  0.50257497
   0.40000000  0.00000000  0.40698411
   0.50000000  0.10000000  0.40698411
   0.40000000  0.10000000  0.50257497
   0.50000000  0.00000000  0.50257497
   0.40000000  0.20000000  0.40698411
   0.50000000  0.30000000  0.40698411
   0.40000000  0.30000000  0.50257497
   0.50000000  0.20000000  0.50257497
   0.40000000  0.40000000  0.40698411
   0.50000000  0.50000000  0.40698411
   0.40000000  0.50000000  0.50257497
   0.50000000  0.40000000  0.50257497
   0.40000000  0.60000000  0.40698411
   0.50000000  0.70000000  0.40698411
   0.40000000  0.70000000  0.50257497
   0.50000000  0.60000000  0.50257497
   0.40000000  0.80000000  0.40698411
   0.50000000  0.90000000  0.40698411
   0.40000000  0.90000000  0.50257497
   0.50000000  0.80000000  0.50257497
   0.60000000  0.00000000  0.40698411
   0.70000000  0.10000000  0.40698411
   0.60000000  0.10000000  0.50257497
   0.70000000  0.00000000  0.50257497
   0.60000000  0.20000000  0.40698411
   0.70000000  0.30000000  0.40698411
   0.60000000  0.30000000  0.50257497
   0.70000000  0.20000000  0.50257497
   0.60000000  0.40000000  0.40698411
   0.70000000  0.50000000  0.40698411
   0.60000000  0.50000000  0.50257497
   0.70000000  0.40000000  0.50257497
   0.60000000  0.60000000  0.40698411
   0.70000000  0.70000000  0.40698411
   0.60000000  0.70000000  0.50257497
   0.70000000  0.60000000  0.50257497
   0.60000000  0.80000000  0.40698411
   0.70000000  0.90000000  0.40698411
   0.60000000  0.90000000  0.50257497
   0.70000000  0.80000000  0.50257497
   0.80000000  0.00000000  0.40698411
   0.90000000  0.10000000  0.40698411
   0.80000000  0.10000000  0.50257497
   0.90000000  0.00000000  0.50257497
   0.80000000  0.20000000  0.40698411
   0.90000000  0.30000000  0.40698411
   0.80000000  0.30000000  0.50257497
   0.90000000  0.20000000  0.50257497
   0.80000000  0.40000000  0.40698411
   0.90000000  0.50000000  0.40698411
   0.80000000  0.50000000  0.50257497
   0.90000000  0.40000000  0.50257497
   0.80000000  0.60000000  0.40698411
   0.90000000  0.70000000  0.40698411
   0.80000000  0.70000000  0.50257497
   0.90000000  0.60000000  0.50257497
   0.80000000  0.80000000  0.40698411
   0.90000000  0.90000000  0.40698411
   0.80000000  0.90000000  0.50257497
   0.90000000  0.80000000  0.50257497
   0.00000000  0.00000000  0.50257497
   0.10000000  0.10000000  0.50257497
   0.00000000  0.10000000  0.40698411
   0.10000000  0.00000000  0.40698411
   0.00000000  0.20000000  0.50257497
   0.10000000  0.30000000  0.50257497
   0.00000000  0.30000000  0.40698411
   0.10000000  0.20000000  0.40698411
   0.00000000  0.40000000  0.50257497
   0.10000000  0.50000000  0.50257497
   0.00000000  0.50000000  0.40698411
   0.10000000  0.40000000  0.40698411
   0.00000000  0.60000000  0.50257497
   0.10000000  0.70000000  0.50257497
   0.00000000  0.70000000  0.40698411
   0.10000000  0.60000000  0.40698411
   0.00000000  0.80000000  0.50257497
   0.10000000  0.90000000  0.50257497
   0.00000000  0.90000000  0.40698411
   0.10000000  0.80000000  0.40698411
   0.20000000  0.00000000  0.50257497
   0.30000000  0.10000000  0.50257497
   0.20000000  0.10000000  0.40698411
   0.30000000  0.00000000  0.40698411
   0.20000000  0.20000000  0.50257497
   0.30000000  0.30000000  0.50257497
   0.20000000  0.30000000  0.40698411
   0.30000000  0.20000000  0.40698411
   0.20000000  0.40000000  0.50257497
   0.30000000  0.50000000  0.50257497
   0.20000000  0.50000000  0.40698411
   0.30000000  0.40000000  0.40698411
   0.20000000  0.60000000  0.50257497
   0.30000000  0.70000000  0.50257497
   0.20000000  0.70000000  0.40698411
   0.30000000  0.60000000  0.40698411
   0.20000000  0.80000000  0.50257497
   0.30000000  0.90000000  0.50257497
   0.20000000  0.90000000  0.40698411
   0.30000000  0.80000000  0.40698411
   0.40000000  0.00000000  0.50257497
   0.50000000  0.10000000  0.50257497
   0.40000000  0.10000000  0.40698411
   0.50000000  0.00000000  0.40698411
   0.40000000  0.20000000  0.50257497
   0.50000000  0.30000000  0.50257497
   0.40000000  0.30000000  0.40698411
   0.50000000  0.20000000  0.40698411
   0.40000000  0.40000000  0.50257497
   0.50000000  0.50000000  0.50257497
   0.40000000  0.50000000  0.40698411
   0.50000000  0.40000000  0.40698411
   0.40000000  0.60000000  0.50257497
   0.50000000  0.70000000  0.50257497
   0.40000000  0.70000000  0.40698411
   0.50000000  0.60000000  0.40698411
   0.40000000  0.80000000  0.50257497
   0.50000000  0.90000000  0.50257497
   0.40000000  0.90000000  0.40698411
   0.50000000  0.80000000  0.40698411
   0.60000000  0.00000000  0.50257497
   0.70000000  0.10000000  0.50257497
   0.60000000  0.10000000  0.40698411
   0.70000000  0.00000000  0.40698411
   0.60000000  0.20000000  0.50257497
   0.70000000  0.30000000  0.50257497
   0.60000000  0.30000000  0.40698411
   0.70000000  0.20000000  0.40698411
   0.60000000  0.40000000  0.50257497
   0.70000000  0.50000000  0.50257497
   0.60000000  0.50000000  0.40698411
   0.70000000  0.40000000  0.40698411
   0.60000000  0.60000000  0.50257497
   0.70000000  0.70000000  0.50257497
   0.60000000  0.70000000  0.40698411
   0.70000000  0.60000000  0.40698411
   0.60000000  0.80000000  0.50257497
   0.70000000  0.90000000  0.50257497
   0.60000000  0.90000000  0.40698411
   0.70000000  0.80000000  0.40698411
   0.80000000  0.00000000  0.50257497
   0.90000000  0.10000000  0.50257497
   0.80000000  0.10000000  0.40698411
   0.90000000  0.00000000  0.40698411
   0.80000000  0.20000000  0.50257497
   0.90000000  0.30000000  0.50257497
   0.80000000  0.30000000  0.40698411
   0.90000000  0.20000000  0.40698411
   0.80000000  0.40000000  0.50257497
   0.90000000  0.50000000  0.50257497
   0.80000000  0.50000000  0.40698411
   0.90000000  0.40000000  0.40698411
   0.80000000  0.60000000  0.50257497
   0.90000000  0.70000000  0.50257497
   0.80000000  0.70000000  0.40698411
   0.90000000  0.60000000  0.40698411
   0.80000000  0.80000000  0.50257497
   0.90000000  0.90000000  0.50257497
   0.80000000  0.90000000  0.40698411
   0.90000000  0.80000000  0.40698411

 position of ions in cartesian coordinates  (Angst):
   0.00000000  0.00000000  9.00000000
   2.11388522  2.11388522  9.00000000
   0.00000000  2.11388522 11.11388522
   2.11388522  0.00000000 11.11388522
   0.00000000  4.22777044  9.00000000
   2.11388522  6.34165566  9.00000000
   0.00000000  6.34165566 11.11388522
   2.11388522  4.22777044 11.11388522
   0.00000000  8.45554088  9.00000000
   2.11388522 10.56942610  9.00000000
   0.00000000 10.56942610 11.11388522
   2.11388522  8.45554088 11.11388522
   0.00000000 12.68331132  9.00000000
   2.11388522 14.79719654  9.00000000
   0.00000000 14.79719654 11.11388522
   2.11388522 12.68331132 11.11388522
   0.00000000 16.91108176  9.00000000
   2.11388522 19.02496698  9.00000000
   0.00000000 19.02496698 11.11388522
   2.11388522 16.91108176 11.11388522
   4.22777044  0.00000000  9.00000000
   6.34165566  2.11388522  9.00000000
   4.22777044  2.11388522 11.11388522
   6.34165566  0.00000000 11.11388522
   4.22777044  4.22777044  9.00000000
   6.34165566  6.34165566  9.00000000
   4.22777044  6.34165566 11.11388522
   6.34165566  4.22777044 11.11388522
   4.22777044  8.45554088  9.00000000
   6.34165566 10.56942610  9.00000000
   4.22777044 10.56942610 11.11388522
   6.34165566  8.45554088 11.11388522
   4.22777044 12.68331132  9.00000000
   6.34165566 14.79719654  9.00000000
   4.22777044 14.79719654 11.11388522
   6.34165566 12.68331132 11.11388522
   4.22777044 16.91108176  9.00000000
   6.34165566 19.02496698  9.00000000
   4.22777044 19.02496698 11.11388522
   6.34165566 16.91108176 11.11388522
   8.45554088  0.00000000  9.00000000
  10.56942610  2.11388522  9.00000000
   8.45554088  2.11388522 11.11388522
  10.56942610  0.00000000 11.11388522
   8.45554088  4.22777044  9.00000000
  10.56942610  6.34165566  9.00000000
   8.45554088  6.34165566 11.11388522
  10.56942610  4.22777044 11.11388522
   8.45554088  8.45554088  9.00000000
  10.56942610 10.56942610  9.00000000
   8.45554088 10.56942610 11.11388522
  10.56942610  8.45554088 11.11388522
   8.45554088 12.68331132  9.00000000
  10.56942610 14.79719654  9.00000000
   8.45554088 14.79719654 11.11388522
  10.56942610 12.68331132 11.11388522
   8.45554088 16.91108176  9.00000000
  10.56942610 19.02496698  9.00000000
   8.45554088 19.02496698 11.11388522
  10.56942610 16.91108176 11.11388522
  12.68331132  0.00000000  9.00000000
  14.79719654  2.11388522  9.00000000
  12.68331132  2.11388522 11.11388522
  14.79719654  0.00000000 11.11388522
  12.68331132  4.22777044  9.00000000
  14.79719654  6.34165566  9.00000000
  12.68331132  6.34165566 11.11388522
  14.79719654  4.22777044 11.11388522
  12.68331132  8.45554088  9.00000000
  14.79719654 10.56942610  9.00000000
  12.68331132 10.56942610 11.11388522
  14.79719654  8.45554088 11.11388522
  12.68331132 12.68331132  9.00000000
  14.79719654 14.79719654  9.00000000
  12.68331132 14.79719654 11.11388522
  14.79719654 12.68331132 11.11388522
  12.68331132 16.91108176  9.00000000
  14.79719654 19.02496698  9.00000000
  12.68331132 19.02496698 11.11388522
  14.79719654 16.91108176 11.11388522
  16.91108176  0.00000000  9.00000000
  19.02496698  2.11388522  9.00000000
  16.91108176  2.11388522 11.11388522
  19.02496698  0.00000000 11.11388522
  16.91108176  4.22777044  9.00000000
  19.02496698  6.34165566  9.00000000
  16.91108176  6.34165566 11.11388522
  19.02496698  4.22777044 11.11388522
  16.91108176  8.45554088  9.00000000
  19.02496698 10.56942610  9.00000000
  16.91108176 10.56942610 11.11388522
  19.02496698  8.45554088 11.11388522
  16.91108176 12.68331132  9.00000000
  19.02496698 14.79719654  9.00000000
  16.91108176 14.79719654 11.11388522
  19.02496698 12.68331132 11.11388522
  16.91108176 16.91108176  9.00000000
  19.02496698 19.02496698  9.00000000
  16.91108176 19.02496698 11.11388522
  19.02496698 16.91108176 11.11388522
   0.00000000  0.00000000 11.11388522
   2.11388522  2.11388522 11.11388522
   0.00000000  2.11388522  9.00000000
   2.11388522  0.00000000  9.00000000
   0.00000000  4.22777044 11.11388522
   2.11388522  6.34165566 11.11388522
   0.00000000  6.34165566  9.00000000
   2.11388522  4.22777044  9.00000000
   0.00000000  8.45554088 11.11388522
   2.11388522 10.56942610 11.11388522
   0.00000000 10.56942610  9.00000000
   2.11388522  8.45554088  9.00000000
   0.00000000 12.68331132 11.11388522
   2.11388522 14.79719654 11.11388522
   0.00000000 14.79719654  9.00000000
   2.11388522 12.68331132  9.00000000
   0.00000000 16.91108176 11.11388522
   2.11388522 19.02496698 11.11388522
   0.00000000 19.02496698  9.00000000
   2.11388522 16.91108176  9.00000000
   4.22777044  0.00000000 11.11388522
   6.34165566  2.11388522 11.11388522
   4.22777044  2.11388522  9.00000000
   6.34165566  0.00000000  9.00000000
   4.22777044  4.22777044 11.11388522
   6.34165566  6.34165566 11.11388522
   4.22777044  6.34165566  9.00000000
   6.34165566  4.22777044  9.00000000
   4.22777044  8.45554088 11.11388522
   6.34165566 10.56942610 11.11388522
   4.22777044 10.56942610  9.00000000
   6.34165566  8.45554088  9.00000000
   4.22777044 12.68331132 11.11388522
   6.34165566 14.79719654 11.11388522
   4.22777044 14.79719654  9.00000000
   6.34165566 12.68331132  9.00000000
   4.22777044 16.91108176 11.11388522
   6.34165566 19.02496698 11.11388522
   4.22777044 19.02496698  9.00000000
   6.34165566 16.91108176  9.00000000
   8.45554088  0.00000000 11.11388522
  10.56942610  2.11388522 11.11388522
   8.45554088  2.11388522  9.00000000
  10.56942610  0.00000000  9.00000000
   8.45554088  4.22777044 11.11388522
  10.56942610  6.34165566 11.11388522
   8.45554088  6.34165566  9.00000000
  10.56942610  4.22777044  9.00000000
   8.45554088  8.45554088 11.11388522
  10.56942610 10.56942610 11.11388522
   8.45554088 10.56942610  9.00000000
  10.56942610  8.45554088  9.00000000
   8.45554088 12.68331132 11.11388522
  10.56942610 14.79719654 11.11388522
   8.45554088 14.79719654  9.00000000
  10.56942610 12.68331132  9.00000000
   8.45554088 16.91108176 11.11388522
  10.56942610 19.02496698 11.11388522
   8.45554088 19.02496698  9.00000000
  10.56942610 16.91108176  9.00000000
  12.68331132  0.00000000 11.11388522
  14.79719654  2.11388522 11.11388522
  12.68331132  2.11388522  9.00000000
  14.79719654  0.00000000  9.00000000
  12.68331132  4.22777044 11.11388522
  14.79719654  6.34165566 11.11388522
  12.68331132  6.34165566  9.00000000
  14.79719654  4.22777044  9.00000000
  12.68331132  8.45554088 11.11388522
  14.79719654 10.56942610 11.11388522
  12.68331132 10.56942610  9.00000000
  14.79719654  8.45554088  9.00000000
  12.68331132 12.68331132 11.11388522
  14.79719654 14.79719654 11.11388522
  12.68331132 14.79719654  9.00000000
  14.79719654 12.68331132  9.00000000
  12.68331132 16.91108176 11.11388522
  14.79719654 19.02496698 11.11388522
  12.68331132 19.02496698  9.00000000
  14.79719654 16.91108176  9.00000000
  16.91108176  0.00000000 11.11388522
  19.02496698  2.11388522 11.11388522
  16.91108176  2.11388522  9.00000000
  19.02496698  0.00000000  9.00000000
  16.91108176  4.22777044 11.11388522
  19.02496698  6.34165566 11.11388522
  16.91108176  6.34165566  9.00000000
  19.02496698  4.22777044  9.00000000
  16.91108176  8.45554088 11.11388522
  19.02496698 10.56942610 11.11388522
  16.91108176 10.56942610  9.00000000
  19.02496698  8.45554088  9.00000000
  16.91108176 12.68331132 11.11388522
  19.02496698 14.79719654 11.11388522
  16.91108176 14.79719654  9.00000000
  19.02496698 12.68331132  9.00000000
  16.91108176 16.91108176 11.11388522
  19.02496698 19.02496698 11.11388522
  16.91108176 19.02496698  9.00000000
  19.02496698 16.91108176  9.00000000



--------------------------------------------------------------------------------------------------------


 k-point   1 :   0.0000 0.0000 0.0000  plane waves:  265979

 maximum and minimum number of plane-waves per node :     66495    66494

 maximum number of plane-waves:    265979
 maximum index in each direction: 
   IXMAX=   39   IYMAX=   39   IZMAX=   41
   IXMIN=  -39   IYMIN=  -39   IZMIN=  -41


 real space projection operators:
  total allocation   :      54593.75 KBytes
  max/ min on nodes  :      13748.44      13490.62


 parallel 3D FFT for wavefunctions:
    minimum data exchange during FFTs selected (reduces bandwidth)
 parallel 3D FFT for charge:
    minimum data exchange during FFTs selected (reduces bandwidth)


 total amount of memory used by VASP MPI-rank0   199233. kBytes
=======================================================================

   base      :      30000. kBytes
   nonlr-proj:      30129. kBytes
   fftplans  :      38424. kBytes
   grid      :      55203. kBytes
   one-center:        405. kBytes
   wavefun   :      45072. kBytes

     INWAV:  cpu time      0.0001: real time      0.0004
 Broyden mixing: mesh for mixing (old mesh)
   NGX = 79   NGY = 79   NGZ = 83
  (NGX  =320   NGY  =320   NGZ  =336)
  gives a total of 518003 points

 initial charge density was supplied:
 charge density of overlapping atoms calculated
 number of electron    1400.0000000 magnetization 
 keeping initial charge density in first step


--------------------------------------------------------------------------------------------------------


 Maximum index for non-local projection operator          956
 Maximum index for augmentation-charges          495 (set IRDMAX)


--------------------------------------------------------------------------------------------------------


 First call to EWALD:  gamma=   0.083
 Maximum number of real-space cells 3x 3x 3
 Maximum number of reciprocal cells 3x 3x 3

    FEWALD:  cpu time      0.0083: real time      0.0083


--------------------------------------- Iteration      1(   1)  ---------------------------------------


vdW kernel read from vdw_kernel.bindat
  0.0000  0.2424  0.5071  0.7962  1.1119  1.4567  1.8333  2.2446  2.6937  3.1842
  3.7199  4.3049  4.9438  5.6415  6.4036  7.2358  8.1446  9.1372 10.2212 11.4050
 12.6979 14.1099 15.6519 17.3360 19.1751 21.1837 23.3773 25.7729 28.3892 31.2465
 34.3669 37.7748 41.4965 45.5611 50.0000

    POTLOK:  cpu time      2.1228: real time      2.1246
    SETDIJ:  cpu time      0.1519: real time      0.1520
    TRIAL :  cpu time     10.4733: real time     10.4745
    CORREC:  cpu time      0.0009: real time      0.0009
    --------------------------------------------
      LOOP:  cpu time     12.7680: real time     12.7713

 eigenvalue-minimisations  :  2432
 total energy-change (2. order) : 0.1294491E+05  (-0.7865736E+05)
 number of electron    1400.0000000 magnetization 
 augmentation part     1400.0000000 magnetization 

 DIPCOR: dipole corrections for dipol
 direction  3 min pos     1,
 dipolmoment           0.000000      0.000000      0.000246 electrons x Angstroem
 Tr[quadrupol]   -106286.626506

 energy correction for charged system         0.000000 eV
 dipol+quadrupol energy correction           -0.000000 eV
 added-field ion interaction          0.006823 eV  (added to PSCEN)


 Free energy of the ion-electron system (eV)
  ---------------------------------------------------
  alpha Z        PSCENC =      1314.62922077
  Ewald energy   TEWEN  =    410582.50379712
  -Hartree energ DENC   =   -516853.61490591
  -exchange      EXHF   =         0.00000000
  -V(xc)+E(xc)   XCENC  =      5227.02045866
  PAW double counting   =     99757.69517165  -111925.54358846
  entropy T*S    EENTRO =        -0.09459662
  eigenvalues    EBANDS =    -25637.83697896
  atomic energy  EATOM  =    150480.15448036
  ---------------------------------------------------
  free energy    TOTEN  =     12944.91305859 eV

  energy without entropy =    12945.00765522  energy(sigma->0) =    12944.96035690


--------------------------------------------------------------------------------------------------------




--------------------------------------- Iteration      1(   2)  ---------------------------------------


    TRIAL :  cpu time      9.7174: real time      9.7182
    CORREC:  cpu time      0.0003: real time      0.0003
    --------------------------------------------
      LOOP:  cpu time      9.7220: real time      9.7311

 eigenvalue-minimisations  :  2304
 total energy-change (2. order) :-0.1186993E+05  (-0.1151890E+05)
 number of electron    1400.0000000 magnetization 
 augmentation part     1400.0000000 magnetization 

 DIPCOR: dipole corrections for dipol
 direction  3 min pos     1,
 dipolmoment           0.000000      0.000000      0.000246 electrons x Angstroem
 Tr[quadrupol]   -106286.626506

 energy correction for charged system         0.000000 eV
 dipol+quadrupol energy correction           -0.000000 eV
 added-field ion interaction          0.006823 eV  (added to PSCEN)


 Free energy of the ion-electron system (eV)
  ---------------------------------------------------
  alpha Z        PSCENC =      1314.62922077
  Ewald energy   TEWEN  =    410582.50379712
  -Hartree energ DENC   =   -516853.61490591
  -exchange      EXHF   =         0.00000000
  -V(xc)+E(xc)   XCENC  =      5227.02045866
  PAW double counting   =     99757.69517165  -111925.54358846
  entropy T*S    EENTRO =        -0.00000000
  eigenvalues    EBANDS =    -37507.86405631
  atomic energy  EATOM  =    150480.15448036
  ---------------------------------------------------
  free energy    TOTEN  =      1074.98057787 eV

  energy without entropy =     1074.98057787  energy(sigma->0) =     1074.98057787


--------------------------------------------------------------------------------------------------------




--------------------------------------- Iteration      1(   3)  ---------------------------------------


    TRIAL :  cpu time      8.8735: real time      8.8743
    CORREC:  cpu time      0.0003: real time      0.0003
    --------------------------------------------
      LOOP:  cpu time      8.8775: real time      8.8874

 eigenvalue-minimisations  :  2112
 total energy-change (2. order) :-0.2052113E+04  (-0.2035700E+04)
 number of electron    1400.0000000 magnetization 
 augmentation part     1400.0000000 magnetization 

 DIPCOR: dipole corrections for dipol
 direction  3 min pos     1,
 dipolmoment           0.000000      0.000000      0.000246 electrons x Angstroem
 Tr[quadrupol]   -106286.626506

 energy correction for charged system         0.000000 eV
 dipol+quadrupol energy correction           -0.000000 eV
 added-field ion interaction          0.006823 eV  (added to PSCEN)


 Free energy of the ion-electron system (eV)
  ---------------------------------------------------
  alpha Z        PSCENC =      1314.62922077
  Ewald energy   TEWEN  =    410582.50379712
  -Hartree energ DENC   =   -516853.61490591
  -exchange      EXHF   =         0.00000000
  -V(xc)+E(xc)   XCENC  =      5227.02045866
  PAW double counting   =     99757.69517165  -111925.54358846
  entropy T*S    EENTRO =        -0.00000000
  eigenvalues    EBANDS =    -39559.97681153
  atomic energy  EATOM  =    150480.15448036
  ---------------------------------------------------
  free energy    TOTEN  =      -977.13217736 eV

  energy without entropy =     -977.13217736  energy(sigma->0) =     -977.13217736


--------------------------------------------------------------------------------------------------------




--------------------------------------- Iteration      1(   4)  ---------------------------------------


    TRIAL :  cpu time      9.1683: real time      9.1688
    CORREC:  cpu time      0.0003: real time      0.0003
    --------------------------------------------
      LOOP:  cpu time      9.1721: real time      9.1819

 eigenvalue-minimisations  :  2176
 total energy-change (2. order) :-0.7535600E+02  (-0.7501076E+02)
 number of electron    1400.0000000 magnetization 
 augmentation part     1400.0000000 magnetization 

 DIPCOR: dipole corrections for dipol
 direction  3 min pos     1,
 dipolmoment           0.000000      0.000000      0.000246 electrons x Angstroem
 Tr[quadrupol]   -106286.626506

 energy correction for charged system         0.000000 eV
 dipol+quadrupol energy correction           -0.000000 eV
 added-field ion interaction          0.006823 eV  (added to PSCEN)


 Free energy of the ion-electron system (eV)
  ---------------------------------------------------
  alpha Z        PSCENC =      1314.62922077
  Ewald energy   TEWEN  =    410582.50379712
  -Hartree energ DENC   =   -516853.61490591
  -exchange      EXHF   =         0.00000000
  -V(xc)+E(xc)   XCENC  =      5227.02045866
  PAW double counting   =     99757.69517165  -111925.54358846
  entropy T*S    EENTRO =        -0.00000000
  eigenvalues    EBANDS =    -39635.33281203
  atomic energy  EATOM  =    150480.15448036
  ---------------------------------------------------
  free energy    TOTEN  =     -1052.48817785 eV

  energy without entropy =    -1052.48817785  energy(sigma->0) =    -1052.48817785


--------------------------------------------------------------------------------------------------------




--------------------------------------- Iteration      1(   5)  ---------------------------------------


    TRIAL :  cpu time      9.1058: real time      9.1067
    CORREC:  cpu time      0.0003: real time      0.0003
    CHARGE:  cpu time      5.9666: real time      5.9677
    --------------------------------------------
      LOOP:  cpu time     15.0764: real time     15.0868

 eigenvalue-minimisations  :  2176
 total energy-change (2. order) :-0.1633584E+01  (-0.1630983E+01)
 number of electron    1399.9998047 magnetization 
 augmentation part      501.5331921 magnetization 

 DIPCOR: dipole corrections for dipol
 direction  3 min pos     1,
 dipolmoment           0.000000      0.000000      0.000246 electrons x Angstroem
 Tr[quadrupol]   -106286.626506

 energy correction for charged system         0.000000 eV
 dipol+quadrupol energy correction           -0.000000 eV
 added-field ion interaction          0.006823 eV  (added to PSCEN)


 Free energy of the ion-electron system (eV)
  ---------------------------------------------------
  alpha Z        PSCENC =      1314.62922077
  Ewald energy   TEWEN  =    410582.50379712
  -Hartree energ DENC   =   -516853.61490591
  -exchange      EXHF   =         0.00000000
  -V(xc)+E(xc)   XCENC  =      5227.02045866
  PAW double counting   =     99757.69517165  -111925.54358846
  entropy T*S    EENTRO =        -0.00000000
  eigenvalues    EBANDS =    -39636.96639597
  atomic energy  EATOM  =    150480.15448036
  ---------------------------------------------------
  free energy    TOTEN  =     -1054.12176180 eV

  energy without entropy =    -1054.12176180  energy(sigma->0) =    -1054.12176180


--------------------------------------------------------------------------------------------------------




--------------------------------------- Iteration      1(   6)  ---------------------------------------


    POTLOK:  cpu time      1.7406: real time      1.7411
    SETDIJ:  cpu time      0.1445: real time      0.1445
    TRIAL :  cpu time      5.0532: real time      5.0536
    CORREC:  cpu time      9.5095: real time      9.5108
    CHARGE:  cpu time      5.9620: real time      5.9626
    --------------------------------------------
      LOOP:  cpu time     22.4226: real time     22.4256

 eigenvalue-minimisations  :     0
 total energy-change (2. order) : 0.8562178E+03  (-0.4871788E+03)
 number of electron    1399.9998106 magnetization 
 augmentation part      488.3966466 magnetization 

 DIPCOR: dipole corrections for dipol
 direction  3 min pos     1,
 dipolmoment           0.000000      0.000000      0.278655 electrons x Angstroem
 Tr[quadrupol]   -106368.747725

 energy correction for charged system         0.000000 eV
 dipol+quadrupol energy correction           -0.000768 eV
 added-field ion interaction          7.719857 eV  (added to PSCEN)


 Free energy of the ion-electron system (eV)
  ---------------------------------------------------
  alpha Z        PSCENC =      1314.63946501
  Ewald energy   TEWEN  =    410582.50379712
  -Hartree energ DENC   =   -531909.11533103
  -exchange      EXHF   =         0.00000000
  -V(xc)+E(xc)   XCENC  =      5736.44755142
  PAW double counting   =    113498.85217181  -125564.28684816
  entropy T*S    EENTRO =        -0.00000000
  eigenvalues    EBANDS =    -24337.09922142
  atomic energy  EATOM  =    150480.15448036
  ---------------------------------------------------
  free energy    TOTEN  =      -197.90393489 eV

  energy without entropy =     -197.90393489  energy(sigma->0) =     -197.90393489


--------------------------------------------------------------------------------------------------------




--------------------------------------- Iteration      1(   7)  ---------------------------------------


    POTLOK:  cpu time      1.7409: real time      1.7410
    SETDIJ:  cpu time      0.1459: real time      0.1459
    TRIAL :  cpu time      4.8468: real time      4.8470
    CORREC:  cpu time      9.4744: real time      9.4753
    CHARGE:  cpu time      5.9508: real time      5.9514
    --------------------------------------------
      LOOP:  cpu time     22.1642: real time     22.1741

 eigenvalue-minimisations  :     0
 total energy-change (2. order) :-0.4967294E+03  (-0.2633783E+02)
 number of electron    1399.9998131 magnetization 
 augmentation part      481.9737893 magnetization 

 DIPCOR: dipole corrections for dipol
 direction  3 min pos     1,
 dipolmoment           0.000000      0.000000      0.127408 electrons x Angstroem
 Tr[quadrupol]   -106407.540779

 energy correction for charged system         0.000000 eV
 dipol+quadrupol energy correction           -0.000161 eV
 added-field ion interaction          3.529704 eV  (added to PSCEN)


 Free energy of the ion-electron system (eV)
  ---------------------------------------------------
  alpha Z        PSCENC =      1319.02495630
  Ewald energy   TEWEN  =    410582.50379712
  -Hartree energ DENC   =   -524626.66383345
  -exchange      EXHF   =         0.00000000
  -V(xc)+E(xc)   XCENC  =      5426.07555511
  PAW double counting   =    107856.72575168  -120118.21544190
  entropy T*S    EENTRO =        -0.00000000
  eigenvalues    EBANDS =    -31614.23863981
  atomic energy  EATOM  =    150480.15448036
  ---------------------------------------------------
  free energy    TOTEN  =      -694.63337459 eV

  energy without entropy =     -694.63337459  energy(sigma->0) =     -694.63337459


--------------------------------------------------------------------------------------------------------




--------------------------------------- Iteration      1(   8)  ---------------------------------------


    POTLOK:  cpu time      1.7390: real time      1.7391
    SETDIJ:  cpu time      0.1475: real time      0.1475
    TRIAL :  cpu time      4.8320: real time      4.8322
    CORREC:  cpu time      9.4739: real time      9.4747
    CHARGE:  cpu time      5.9548: real time      5.9554
    --------------------------------------------
      LOOP:  cpu time     22.1605: real time     22.1628

 eigenvalue-minimisations  :     0
 total energy-change (2. order) :-0.2620616E+02  (-0.1736363E+02)
 number of electron    1399.9998130 magnetization 
 augmentation part      482.4996652 magnetization 

 DIPCOR: dipole corrections for dipol
 direction  3 min pos     1,
 dipolmoment           0.000000      0.000000      0.083792 electrons x Angstroem
 Tr[quadrupol]   -106397.176694

 energy correction for charged system         0.000000 eV
 dipol+quadrupol energy correction           -0.000069 eV
 added-field ion interaction          2.321385 eV  (added to PSCEN)


 Free energy of the ion-electron system (eV)
  ---------------------------------------------------
  alpha Z        PSCENC =      1317.95986665
  Ewald energy   TEWEN  =    410582.50379712
  -Hartree energ DENC   =   -523836.59529024
  -exchange      EXHF   =         0.00000000
  -V(xc)+E(xc)   XCENC  =      5394.67859067
  PAW double counting   =    107819.45570099  -119845.58101586
  entropy T*S    EENTRO =        -0.00000000
  eigenvalues    EBANDS =    -32633.41566121
  atomic energy  EATOM  =    150480.15448036
  ---------------------------------------------------
  free energy    TOTEN  =      -720.83953152 eV

  energy without entropy =     -720.83953152  energy(sigma->0) =     -720.83953152


--------------------------------------------------------------------------------------------------------




--------------------------------------- Iteration      1(   9)  ---------------------------------------


    POTLOK:  cpu time      1.7389: real time      1.7390
    SETDIJ:  cpu time      0.1481: real time      0.1481
    TRIAL :  cpu time      4.8246: real time      4.8258
    CORREC:  cpu time      9.4614: real time      9.4624
    CHARGE:  cpu time      5.9506: real time      5.9509
    --------------------------------------------
      LOOP:  cpu time     22.1284: real time     22.1399

 eigenvalue-minimisations  :     0
 total energy-change (2. order) :-0.1675655E+02  (-0.8195781E+01)
 number of electron    1399.9998128 magnetization 
 augmentation part      482.8008513 magnetization 

 DIPCOR: dipole corrections for dipol
 direction  3 min pos     1,
 dipolmoment           0.000000      0.000000      0.014784 electrons x Angstroem
 Tr[quadrupol]   -106377.749526

 energy correction for charged system         0.000000 eV
 dipol+quadrupol energy correction           -0.000002 eV
 added-field ion interaction          0.409562 eV  (added to PSCEN)


 Free energy of the ion-electron system (eV)
  ---------------------------------------------------
  alpha Z        PSCENC =      1316.56510128
  Ewald energy   TEWEN  =    410582.50379712
  -Hartree energ DENC   =   -523231.13355175
  -exchange      EXHF   =         0.00000000
  -V(xc)+E(xc)   XCENC  =      5391.81406829
  PAW double counting   =    107930.00156710  -120082.84539490
  entropy T*S    EENTRO =        -0.00000000
  eigenvalues    EBANDS =    -33124.65615356
  atomic energy  EATOM  =    150480.15448036
  ---------------------------------------------------
  free energy    TOTEN  =      -737.59608606 eV

  energy without entropy =     -737.59608606  energy(sigma->0) =     -737.59608606


--------------------------------------------------------------------------------------------------------




--------------------------------------- Iteration      1(  10)  ---------------------------------------


    POTLOK:  cpu time      1.7394: real time      1.7395
    SETDIJ:  cpu time      0.1471: real time      0.1471
    TRIAL :  cpu time      4.8230: real time      4.8241
    CORREC:  cpu time      9.4624: real time      9.4632
    CHARGE:  cpu time      5.9433: real time      5.9436
    --------------------------------------------
      LOOP:  cpu time     22.1290: real time     22.1317

 eigenvalue-minimisations  :     0
 total energy-change (2. order) :-0.8426539E+01  (-0.3234543E+01)
 number of electron    1399.9998127 magnetization 
 augmentation part      482.7241832 magnetization 

 DIPCOR: dipole corrections for dipol
 direction  3 min pos     1,
 dipolmoment           0.000000      0.000000      0.008916 electrons x Angstroem
 Tr[quadrupol]   -106377.741909

 energy correction for charged system         0.000000 eV
 dipol+quadrupol energy correction           -0.000001 eV
 added-field ion interaction          0.247010 eV  (added to PSCEN)


 Free energy of the ion-electron system (eV)
  ---------------------------------------------------
  alpha Z        PSCENC =      1315.17991754
  Ewald energy   TEWEN  =    410582.50379712
  -Hartree energ DENC   =   -522684.07657534
  -exchange      EXHF   =         0.00000000
  -V(xc)+E(xc)   XCENC  =      5384.79687896
  PAW double counting   =    107676.21148145  -119867.44717205
  entropy T*S    EENTRO =        -0.00000000
  eigenvalues    EBANDS =    -33633.34543279
  atomic energy  EATOM  =    150480.15448036
  ---------------------------------------------------
  free energy    TOTEN  =      -746.02262475 eV

  energy without entropy =     -746.02262475  energy(sigma->0) =     -746.02262475


--------------------------------------------------------------------------------------------------------




--------------------------------------- Iteration      1(  11)  ---------------------------------------


    POTLOK:  cpu time      1.7377: real time      1.7381
    SETDIJ:  cpu time      0.1564: real time      0.1564
    TRIAL :  cpu time      4.8291: real time      4.8293
    CORREC:  cpu time      9.4681: real time      9.4689
    CHARGE:  cpu time      5.9501: real time      5.9508
    --------------------------------------------
      LOOP:  cpu time     22.1463: real time     22.1574

 eigenvalue-minimisations  :     0
 total energy-change (2. order) :-0.3244774E+01  (-0.1303775E+01)
 number of electron    1399.9998125 magnetization 
 augmentation part      483.0134685 magnetization 

 DIPCOR: dipole corrections for dipol
 direction  3 min pos     1,
 dipolmoment           0.000000      0.000000      0.009910 electrons x Angstroem
 Tr[quadrupol]   -106380.629322

 energy correction for charged system         0.000000 eV
 dipol+quadrupol energy correction           -0.000001 eV
 added-field ion interaction          0.274545 eV  (added to PSCEN)


 Free energy of the ion-electron system (eV)
  ---------------------------------------------------
  alpha Z        PSCENC =      1314.85806505
  Ewald energy   TEWEN  =    410582.50379712
  -Hartree energ DENC   =   -522562.62593087
  -exchange      EXHF   =         0.00000000
  -V(xc)+E(xc)   XCENC  =      5382.28042946
  PAW double counting   =    107492.25772003  -119652.56310967
  entropy T*S    EENTRO =        -0.00000000
  eigenvalues    EBANDS =    -33786.13285005
  atomic energy  EATOM  =    150480.15448036
  ---------------------------------------------------
  free energy    TOTEN  =      -749.26739858 eV

  energy without entropy =     -749.26739858  energy(sigma->0) =     -749.26739858


--------------------------------------------------------------------------------------------------------




[...]
   0.318E-10 -.562E-10 -.696E+03   -.438E-11 -.488E-10 0.700E+03   0.159E-22 -.631E-23 -.363E+01
   0.554E-10 -.607E-10 0.696E+03   0.410E-10 -.598E-10 -.700E+03   -.118E-22 -.496E-23 0.363E+01
   0.319E-10 -.409E-10 0.696E+03   -.719E-13 0.697E-11 -.700E+03   -.724E-23 0.310E-24 0.363E+01
   0.555E-10 0.257E-10 -.696E+03   0.416E-10 0.415E-10 0.700E+03   0.123E-22 0.414E-23 -.363E+01
   0.318E-10 0.891E-10 -.696E+03   -.259E-11 -.308E-11 0.700E+03   0.343E-22 0.760E-23 -.363E+01
   0.554E-10 0.365E-10 0.696E+03   0.619E-10 0.573E-11 -.700E+03   -.352E-23 0.157E-22 0.363E+01
   0.319E-10 0.563E-10 0.696E+03   0.249E-12 0.561E-10 -.700E+03   -.174E-22 -.331E-23 0.363E+01
 -----------------------------------------------------------------------------------------------
   0.160E-10 -.294E-10 -.409E-01   0.113E-11 0.441E-13 -.909E-12   0.779E-21 -.173E-21 -.188E-11


 POSITION                                       TOTAL-FORCE (eV/Angst)
 -----------------------------------------------------------------------------------
      0.00000      0.00000      9.00000        -0.000000     -0.000000      0.083863
      2.11389      2.11389      9.00000        -0.000000      0.000000      0.083863
      0.00000      2.11389     11.11389        -0.000000      0.000000     -0.083863
      2.11389      0.00000     11.11389        -0.000000      0.000000     -0.083863
      0.00000      4.22777      9.00000         0.000000      0.000000      0.083863
      2.11389      6.34166      9.00000         0.000000     -0.000000      0.083863
      0.00000      6.34166     11.11389        -0.000000     -0.000000     -0.083863
      2.11389      4.22777     11.11389        -0.000000     -0.000000     -0.083863
      0.00000      8.45554      9.00000         0.000000     -0.000000      0.083863
      2.11389     10.56943      9.00000        -0.000000     -0.000000      0.083863
      0.00000     10.56943     11.11389        -0.000000      0.000000     -0.083863
      2.11389      8.45554     11.11389         0.000000      0.000000     -0.083863
      0.00000     12.68331      9.00000         0.000000      0.000000      0.083863
      2.11389     14.79720      9.00000        -0.000000     -0.000000      0.083863
      0.00000     14.79720     11.11389         0.000000     -0.000000     -0.083863
      2.11389     12.68331     11.11389        -0.000000      0.000000     -0.083863
      0.00000     16.91108      9.00000         0.000000     -0.000000      0.083863
      2.11389     19.02497      9.00000         0.000000      0.000000      0.083863
      0.00000     19.02497     11.11389        -0.000000     -0.000000     -0.083863
      2.11389     16.91108     11.11389         0.000000     -0.000000     -0.083863
      4.22777      0.00000      9.00000         0.000000      0.000000      0.083863
      6.34166      2.11389      9.00000         0.000000     -0.000000      0.083863
      4.22777      2.11389     11.11389         0.000000     -0.000000     -0.083863
      6.34166      0.00000     11.11389         0.000000     -0.000000     -0.083863
      4.22777      4.22777      9.00000         0.000000     -0.000000      0.083863
      6.34166      6.34166      9.00000         0.000000     -0.000000      0.083863
      4.22777      6.34166     11.11389        -0.000000     -0.000000     -0.083863
      6.34166      4.22777     11.11389         0.000000      0.000000     -0.083863
      4.22777      8.45554      9.00000         0.000000      0.000000      0.083863
      6.34166     10.56943      9.00000        -0.000000      0.000000      0.083863
      4.22777     10.56943     11.11389        -0.000000     -0.000000     -0.083863
      6.34166      8.45554     11.11389        -0.000000     -0.000000     -0.083863
      4.22777     12.68331      9.00000         0.000000     -0.000000      0.083863
      6.34166     14.79720      9.00000         0.000000     -0.000000      0.083863
      4.22777     14.79720     11.11389         0.000000      0.000000     -0.083863
      6.34166     12.68331     11.11389         0.000000     -0.000000     -0.083863
      4.22777     16.91108      9.00000         0.000000     -0.000000      0.083863
      6.34166     19.02497      9.00000        -0.000000     -0.000000      0.083863
      4.22777     19.02497     11.11389         0.000000      0.000000     -0.083863
      6.34166     16.91108     11.11389        -0.000000      0.000000     -0.083863
      8.45554      0.00000      9.00000         0.000000      0.000000      0.083863
     10.56943      2.11389      9.00000        -0.000000     -0.000000      0.083863
      8.45554      2.11389     11.11389         0.000000      0.000000     -0.083863
     10.56943      0.00000     11.11389         0.000000      0.000000     -0.083863
      8.45554      4.22777      9.00000        -0.000000     -0.000000      0.083863
     10.56943      6.34166      9.00000         0.000000     -0.000000      0.083863
      8.45554      6.34166     11.11389        -0.000000      0.000000     -0.083863
     10.56943      4.22777     11.11389        -0.000000     -0.000000     -0.083863
      8.45554      8.45554      9.00000        -0.000000      0.000000      0.083863
     10.56943     10.56943      9.00000        -0.000000      0.000000      0.083863
      8.45554     10.56943     11.11389        -0.000000      0.000000     -0.083863
     10.56943      8.45554     11.11389        -0.000000      0.000000     -0.083863
      8.45554     12.68331      9.00000        -0.000000     -0.000000      0.083863
     10.56943     14.79720      9.00000        -0.000000      0.000000      0.083863
      8.45554     14.79720     11.11389         0.000000     -0.000000     -0.083863
     10.56943     12.68331     11.11389        -0.000000      0.000000     -0.083863
      8.45554     16.91108      9.00000        -0.000000     -0.000000      0.083863
     10.56943     19.02497      9.00000        -0.000000     -0.000000      0.083863
      8.45554     19.02497     11.11389        -0.000000      0.000000     -0.083863
     10.56943     16.91108     11.11389        -0.000000     -0.000000     -0.083863
     12.68331      0.00000      9.00000         0.000000     -0.000000      0.083863
     14.79720      2.11389      9.00000        -0.000000     -0.000000      0.083863
     12.68331      2.11389     11.11389        -0.000000      0.000000     -0.083863
     14.79720      0.00000     11.11389        -0.000000     -0.000000     -0.083863
     12.68331      4.22777      9.00000        -0.000000      0.000000      0.083863
     14.79720      6.34166      9.00000        -0.000000     -0.000000      0.083863
     12.68331      6.34166     11.11389         0.000000     -0.000000     -0.083863
     14.79720      4.22777     11.11389         0.000000      0.000000     -0.083863
     12.68331      8.45554      9.00000         0.000000      0.000000      0.083863
     14.79720     10.56943      9.00000         0.000000     -0.000000      0.083863
     12.68331     10.56943     11.11389        -0.000000      0.000000     -0.083863
     14.79720      8.45554     11.11389        -0.000000     -0.000000     -0.083863
     12.68331     12.68331      9.00000        -0.000000      0.000000      0.083863
     14.79720     14.79720      9.00000        -0.000000      0.000000      0.083863
     12.68331     14.79720     11.11389        -0.000000      0.000000     -0.083863
     14.79720     12.68331     11.11389        -0.000000      0.000000     -0.083863
     12.68331     16.91108      9.00000         0.000000      0.000000      0.083863
     14.79720     19.02497      9.00000        -0.000000     -0.000000      0.083863
     12.68331     19.02497     11.11389         0.000000      0.000000     -0.083863
     14.79720     16.91108     11.11389         0.000000      0.000000     -0.083863
     16.91108      0.00000      9.00000         0.000000      0.000000      0.083863
     19.02497      2.11389      9.00000         0.000000      0.000000      0.083863
     16.91108      2.11389     11.11389        -0.000000     -0.000000     -0.083863
     19.02497      0.00000     11.11389         0.000000      0.000000     -0.083863
     16.91108      4.22777      9.00000        -0.000000     -0.000000      0.083863
     19.02497      6.34166      9.00000         0.000000     -0.000000      0.083863
     16.91108      6.34166     11.11389        -0.000000     -0.000000     -0.083863
     19.02497      4.22777     11.11389         0.000000     -0.000000     -0.083863
     16.91108      8.45554      9.00000        -0.000000     -0.000000      0.083863
     19.02497     10.56943      9.00000        -0.000000      0.000000      0.083863
     16.91108     10.56943     11.11389        -0.000000      0.000000     -0.083863
     19.02497      8.45554     11.11389        -0.000000      0.000000     -0.083863
     16.91108     12.68331      9.00000        -0.000000     -0.000000      0.083863
     19.02497     14.79720      9.00000        -0.000000      0.000000      0.083863
     16.91108     14.79720     11.11389        -0.000000      0.000000     -0.083863
     19.02497     12.68331     11.11389        -0.000000      0.000000     -0.083863
     16.91108     16.91108      9.00000         0.000000      0.000000      0.083863
     19.02497     19.02497      9.00000        -0.000000      0.000000      0.083863
     16.91108     19.02497     11.11389         0.000000      0.000000     -0.083863
     19.02497     16.91108     11.11389        -0.000000      0.000000     -0.083863
      0.00000      0.00000     11.11389         0.000000     -0.000000      0.477723
      2.11389      2.11389     11.11389         0.000000     -0.000000      0.477723
      0.00000      2.11389      9.00000         0.000000      0.000000     -0.477723
      2.11389      0.00000      9.00000         0.000000     -0.000000     -0.477723
      0.00000      4.22777     11.11389        -0.000000     -0.000000      0.477723
      2.11389      6.34166     11.11389        -0.000000      0.000000      0.477723
      0.00000      6.34166      9.00000        -0.000000      0.000000     -0.477723
      2.11389      4.22777      9.00000        -0.000000      0.000000     -0.477723
      0.00000      8.45554     11.11389        -0.000000      0.000000      0.477723
      2.11389     10.56943     11.11389        -0.000000      0.000000      0.477723
      0.00000     10.56943      9.00000        -0.000000      0.000000     -0.477723
      2.11389      8.45554      9.00000        -0.000000     -0.000000     -0.477723
      0.00000     12.68331     11.11389         0.000000     -0.000000      0.477723
      2.11389     14.79720     11.11389         0.000000      0.000000      0.477723
      0.00000     14.79720      9.00000        -0.000000      0.000000     -0.477723
      2.11389     12.68331      9.00000        -0.000000      0.000000     -0.477723
      0.00000     16.91108     11.11389        -0.000000     -0.000000      0.477723
      2.11389     19.02497     11.11389        -0.000000     -0.000000      0.477723
      0.00000     19.02497      9.00000         0.000000     -0.000000     -0.477723
      2.11389     16.91108      9.00000         0.000000      0.000000     -0.477723
      4.22777      0.00000     11.11389         0.000000     -0.000000      0.477723
      6.34166      2.11389     11.11389        -0.000000      0.000000      0.477723
      4.22777      2.11389      9.00000         0.000000     -0.000000     -0.477723
      6.34166      0.00000      9.00000         0.000000     -0.000000     -0.477723
      4.22777      4.22777     11.11389         0.000000     -0.000000      0.477723
      6.34166      6.34166     11.11389         0.000000     -0.000000      0.477723
      4.22777      6.34166      9.00000        -0.000000      0.000000     -0.477723
      6.34166      4.22777      9.00000         0.000000     -0.000000     -0.477723
      4.22777      8.45554     11.11389         0.000000     -0.000000      0.477723
      6.34166     10.56943     11.11389        -0.000000     -0.000000      0.477723
      4.22777     10.56943      9.00000         0.000000      0.000000     -0.477723
      6.34166      8.45554      9.00000        -0.000000     -0.000000     -0.477723
      4.22777     12.68331     11.11389        -0.000000      0.000000      0.477723
      6.34166     14.79720     11.11389        -0.000000      0.000000      0.477723
      4.22777     14.79720      9.00000        -0.000000     -0.000000     -0.477723
      6.34166     12.68331      9.00000        -0.000000     -0.000000     -0.477723
      4.22777     16.91108     11.11389        -0.000000     -0.000000      0.477723
      6.34166     19.02497     11.11389         0.000000      0.000000      0.477723
      4.22777     19.02497      9.00000         0.000000     -0.000000     -0.477723
      6.34166     16.91108      9.00000        -0.000000      0.000000     -0.477723
      8.45554      0.00000     11.11389         0.000000      0.000000      0.477723
     10.56943      2.11389     11.11389         0.000000      0.000000      0.477723
      8.45554      2.11389      9.00000         0.000000     -0.000000     -0.477723
     10.56943      0.00000      9.00000        -0.000000      0.000000     -0.477723
      8.45554      4.22777     11.11389        -0.000000     -0.000000      0.477723
     10.56943      6.34166     11.11389         0.000000      0.000000      0.477723
      8.45554      6.34166      9.00000         0.000000     -0.000000     -0.477723
     10.56943      4.22777      9.00000         0.000000      0.000000     -0.477723
      8.45554      8.45554     11.11389        -0.000000     -0.000000      0.477723
     10.56943     10.56943     11.11389        -0.000000     -0.000000      0.477723
      8.45554     10.56943      9.00000        -0.000000     -0.000000     -0.477723
     10.56943      8.45554      9.00000         0.000000      0.000000     -0.477723
      8.45554     12.68331     11.11389        -0.000000      0.000000      0.477723
     10.56943     14.79720     11.11389        -0.000000      0.000000      0.477723
      8.45554     14.79720      9.00000        -0.000000     -0.000000     -0.477723
     10.56943     12.68331      9.00000         0.000000     -0.000000     -0.477723
      8.45554     16.91108     11.11389        -0.000000      0.000000      0.477723
     10.56943     19.02497     11.11389        -0.000000      0.000000      0.477723
      8.45554     19.02497      9.00000        -0.000000     -0.000000     -0.477723
     10.56943     16.91108      9.00000        -0.000000      0.000000     -0.477723
     12.68331      0.00000     11.11389        -0.000000      0.000000      0.477723
     14.79720      2.11389     11.11389        -0.000000      0.000000      0.477723
     12.68331      2.11389      9.00000        -0.000000      0.000000     -0.477723
     14.79720      0.00000      9.00000        -0.000000      0.000000     -0.477723
     12.68331      4.22777     11.11389         0.000000     -0.000000      0.477723
     14.79720      6.34166     11.11389         0.000000     -0.000000      0.477723
     12.68331      6.34166      9.00000         0.000000      0.000000     -0.477723
     14.79720      4.22777      9.00000        -0.000000     -0.000000     -0.477723
     12.68331      8.45554     11.11389         0.000000     -0.000000      0.477723
     14.79720     10.56943     11.11389         0.000000     -0.000000      0.477723
     12.68331     10.56943      9.00000         0.000000     -0.000000     -0.477723
     14.79720      8.45554      9.00000         0.000000      0.000000     -0.477723
     12.68331     12.68331     11.11389         0.000000      0.000000      0.477723
     14.79720     14.79720     11.11389         0.000000     -0.000000      0.477723
     12.68331     14.79720      9.00000         0.000000      0.000000     -0.477723
     14.79720     12.68331      9.00000         0.000000     -0.000000     -0.477723
     12.68331     16.91108     11.11389        -0.000000     -0.000000      0.477723
     14.79720     19.02497     11.11389         0.000000     -0.000000      0.477723
     12.68331     19.02497      9.00000        -0.000000     -0.000000     -0.477723
     14.79720     16.91108      9.00000        -0.000000      0.000000     -0.477723
     16.91108      0.00000     11.11389        -0.000000      0.000000      0.477723
     19.02497      2.11389     11.11389         0.000000     -0.000000      0.477723
     16.91108      2.11389      9.00000        -0.000000      0.000000     -0.477723
     19.02497      0.00000      9.00000         0.000000     -0.000000     -0.477723
     16.91108      4.22777     11.11389        -0.000000      0.000000      0.477723
     19.02497      6.34166     11.11389        -0.000000      0.000000      0.477723
     16.91108      6.34166      9.00000        -0.000000      0.000000     -0.477723
     19.02497      4.22777      9.00000         0.000000      0.000000     -0.477723
     16.91108      8.45554     11.11389         0.000000      0.000000      0.477723
     19.02497     10.56943     11.11389         0.000000     -0.000000      0.477723
     16.91108     10.56943      9.00000        -0.000000     -0.000000     -0.477723
     19.02497      8.45554      9.00000        -0.000000      0.000000     -0.477723
     16.91108     12.68331     11.11389         0.000000     -0.000000      0.477723
     19.02497     14.79720     11.11389         0.000000      0.000000      0.477723
     16.91108     14.79720      9.00000         0.000000     -0.000000     -0.477723
     19.02497     12.68331      9.00000        -0.000000     -0.000000     -0.477723
     16.91108     16.91108     11.11389         0.000000     -0.000000      0.477723
     19.02497     19.02497     11.11389         0.000000     -0.000000      0.477723
     16.91108     19.02497      9.00000         0.000000      0.000000     -0.477723
     19.02497     16.91108      9.00000        -0.000000     -0.000000     -0.477723
 -----------------------------------------------------------------------------------
    total drift:                                0.000000     -0.000000     -0.040879


--------------------------------------------------------------------------------------------------------



  FREE ENERGIE OF THE ION-ELECTRON SYSTEM (eV)
  ---------------------------------------------------
  free  energy   TOTEN  =      -752.25719713 eV

  energy  without entropy=     -752.25719713  energy(sigma->0) =     -752.25719713



--------------------------------------------------------------------------------------------------------


    POTLOK:  cpu time      1.9024: real time      1.9028


--------------------------------------------------------------------------------------------------------


     LOOP+:  cpu time    732.0742: real time    732.3340
    4ORBIT:  cpu time      0.0000: real time      0.0000

 total amount of memory used by VASP MPI-rank0   199233. kBytes
=======================================================================

   base      :      30000. kBytes
   nonlr-proj:      30129. kBytes
   fftplans  :      38424. kBytes
   grid      :      55203. kBytes
   one-center:        405. kBytes
   wavefun   :      45072. kBytes

  
  
 General timing and accounting informations for this job:
 ========================================================
  
                  Total CPU time used (sec):      757.765
                            User time (sec):      753.577
                          System time (sec):        4.187
                         Elapsed time (sec):      762.860
  
                   Maximum memory used (kb):      592068.
                   Average memory used (kb):          N/A
  
                          Minor page faults:       180688
                          Major page faults:            0
                 Voluntary context switches:         7231
