 vasp.6.3.0 20Jan22 (build Apr  1 2022 16:44:48) complex                         
 executed on        HPECrayEX_GCC date 2022.12.06  08:20:01
 running   64 mpi-ranks, with    1 threads/rank
 distrk:  each k-point on   32 cores,    2 groups
 distr:  one band on NCORE=   4 cores,    8 groups


--------------------------------------------------------------------------------------------------------


 INCAR:
   SYSTEM = MgO-rocksalt
   ISMEAR = 0
   SIGMA = 0.05
   EDIFF = 1E-6
   ALGO = ALL
   ISTART = 0
   IBRION = -1
   NSW = 0
   ISYM = 2
   LHFCALC = .TRUE.
   GGA = PE
   IVDW = 12
   VDW_S8 = 1.2177
   VDW_A1 = 0.4145
   VDW_A2 = 4.8593
   ENCUT = 520
   PREC = Accurate
   LASPH = .TRUE.
   LREAL = Auto
   NELM = 200
   NELMIN = 8
   NCORE = 4
   KPAR = 2
   LWAVE = .FALSE.
   LCHARG = .FALSE.
   ISPIN = 2

 POTCAR:    PAW_PBE Au 04Oct2007                  
 -----------------------------------------------------------------------------
|                                                                             |
|           W    W    AA    RRRRR   N    N  II  N    N   GGGG   !!!           |
|           W    W   A  A   R    R  NN   N  II  NN   N  G    G  !!!           |
|           W    W  A    A  R    R  N N  N  II  N N  N  G       !!!           |
|           W WW W  AAAAAA  RRRRR   N  N N  II  N  N N  G  GGG   !            |
|           WW  WW  A    A  R   R   N   NN  II  N   NN  G    G                |
|           W    W  A    A  R    R  N    N  II  N    N   GGGG   !!!           |
|                                                                             |
|     You use a magnetic or noncollinear calculation, but did not specify     |
|     the initial magnetic moment with the MAGMOM tag. Note that a            |
|     default of 1 will be used for all atoms. This ferromagnetic setup       |
|     may break the symmetry of the crystal, in particular it may rule        |
|     out finding an antiferromagnetic solution. Thence, we recommend         |
|     setting the initial magnetic moment manually or verifying carefully     |
|     that this magnetic setup is desired.                                    |
|                                                                             |
 -----------------------------------------------------------------------------

 -----------------------------------------------------------------------------
|                                                                             |
|           W    W    AA    RRRRR   N    N  II  N    N   GGGG   !!!           |
|           W    W   A  A   R    R  NN   N  II  NN   N  G    G  !!!           |
|           W    W  A    A  R    R  N N  N  II  N N  N  G       !!!           |
|           W WW W  AAAAAA  RRRRR   N  N N  II  N  N N  G  GGG   !            |
|           WW  WW  A    A  R   R   N   NN  II  N   NN  G    G                |
|           W    W  A    A  R    R  N    N  II  N    N   GGGG   !!!           |
|                                                                             |
|     You have selected ISYM=2 for a HF type calculation. This will           |
|     symmetrize the charge density but not the exchange potential. I         |
|     suggest to use ISYM=3 instead. This uses symmetry to obtain the         |
|     orbitals at all k-points in the Brillouin zone, but does not apply      |
|     symmetry to the Hartree potential directly. The resultant charge        |
|     might have lower symmetry than the crystal but, at least, Hartree       |
|     and exchange are fully compatible.                                      |
|                                                                             |
 -----------------------------------------------------------------------------

 POTCAR:    PAW_PBE Au 04Oct2007                  
   SHA256 =  d0044ae04e2bdce24051b198fc5c053d722a5bc6fe3c3b100514a13fc5d2db88 Au/POTCAR             
   COPYR  = (c) Copyright 04Oct2007 Georg Kresse                                                    
   COPYR  = This file is part of the software VASP. Any use, copying, and all other rights are regul
   COPYR  = If you do not have a valid VASP license, you may not use, copy or distribute this file. 
   VRHFIN =Au: s1d10                                                                                
   LEXCH  = PE                                                                                      
   EATOM  =   926.0867 eV,   68.0654 Ry                                                             
                                                                                                    
   TITEL  = PAW_PBE Au 04Oct2007                                                                    
   LULTRA =        F    use ultrasoft PP ?                                                          
   IUNSCR =        1    unscreen: 0-lin 1-nonlin 2-no                                               
   RPACOR =    2.330    partial core radius                                                         
   POMASS =  196.966; ZVAL   =   11.000    mass and valenz                                          
   RCORE  =    2.500    outmost cutoff radius                                                       
   RWIGS  =    2.840; RWIGS  =    1.503    wigner-seitz radius (au A)                               
   ENMAX  =  229.943; ENMIN  =  172.457 eV                                                          
   ICORE  =        3    local potential                                                             
   LCOR   =        T    correct aug charges                                                         
   LPAW   =        T    paw PP                                                                      
   EAUG   =  356.670                                                                                
   DEXC   =    0.000                                                                                
   RMAX   =    2.562    core radius for proj-oper                                                   
   RAUG   =    1.300    factor for augmentation sphere                                              
   RDEP   =    2.598    radius for radial grids                                                     
   RDEPT  =    2.193    core radius for aug-charge                                                  
                                                                                                    
   Atomic configuration                                                                             
   16 entries                                                                                       
     n  l   j            E        occ.                                                              
     1  0  0.50    -80748.5001   2.0000                                                             
     2  0  0.50    -14244.7466   2.0000                                                             
     2  1  1.50    -12310.9591   6.0000                                                             
     3  0  0.50     -3362.1768   2.0000                                                             
     3  1  1.50     -2801.5463   6.0000                                                             
     3  2  2.50     -2203.8206  10.0000                                                             
     4  0  0.50      -729.8168   2.0000                                                             
     4  1  1.50      -546.0527   6.0000                                                             
     4  2  2.50      -325.7302  10.0000                                                             
     4  3  3.50       -81.1472  14.0000                                                             
     5  0  0.50      -108.3201   2.0000                                                             
     5  1  1.50       -59.7479   6.0000                                                             
     5  2  2.50        -6.8783  10.0000                                                             
     6  0  0.50        -5.7602   1.0000                                                             
     6  1  1.50        -6.8029   0.0000                                                             
     5  3  2.50        -1.3606   0.0000                                                             
   Description                                                                                      
     l       E           TYP  RCUT    TYP  RCUT                                                     
     2     -6.8782861     23  2.500                                                                 
     2     -8.2388687     23  2.500                                                                 
     0     -5.7601759     23  2.500                                                                 
     0     -0.8493231     23  2.500                                                                 
     1     -2.7211652     23  2.500                                                                 
     1     27.2116520     23  2.500                                                                 
     3     -1.3605826     23  2.500                                                                 
  local pseudopotential read in
  partial core-charges read in
  partial kinetic energy density read in
  atomic valenz-charges read in
  non local Contribution for L=           2  read in
    real space projection operators read in
  non local Contribution for L=           2  read in
    real space projection operators read in
  non local Contribution for L=           0  read in
    real space projection operators read in
  non local Contribution for L=           0  read in
    real space projection operators read in
  non local Contribution for L=           1  read in
    real space projection operators read in
  non local Contribution for L=           1  read in
    real space projection operators read in
    PAW grid and wavefunctions read in

   number of l-projection  operators is LMAX  =           6
   number of lm-projection operators is LMMAX =          18

 -----------------------------------------------------------------------------
|                                                                             |
|               ----> ADVICE to this user running VASP <----                  |
|                                                                             |
|     You have a (more or less) 'small supercell' and for smaller cells       |
|     it is recommended to use the reciprocal-space projection scheme!        |
|     The real-space optimization is not efficient for small cells and it     |
|     is also less accurate ...                                               |
|     Therefore, set LREAL=.FALSE. in the INCAR file.                         |
|                                                                             |
 -----------------------------------------------------------------------------

 Optimization of the real space projectors (new method)

 maximal supplied QI-value         = 15.12
 optimisation between [QCUT,QGAM] = [ 11.64, 23.28] = [ 37.95,151.78] Ry 
 Optimized for a Real-space Cutoff    1.49 Angstroem

   l    n(q)    QCUT    max X(q) W(low)/X(q) W(high)/X(q)  e(spline) 
   2      9    11.641    60.898    0.24E-03    0.10E-03    0.19E-06
   2      9    11.641    58.894    0.25E-03    0.10E-03    0.19E-06
   0     10    11.641   109.617    0.73E-04    0.33E-04    0.11E-06
   0     10    11.641    75.026    0.71E-04    0.32E-04    0.11E-06
   1     10    11.641    16.344    0.27E-04    0.97E-04    0.16E-06
   1     10    11.641    10.160    0.23E-04    0.77E-04    0.13E-06
  PAW_PBE Au 04Oct2007                  :
 energy of atom  1       EATOM= -926.0867
 kinetic energy error for atom=    0.0034 (will be added to EATOM!!)


 POSCAR: au4
  positions in direct lattice
  No initial velocities read in
 exchange correlation table for  LEXCH =        8
   RHO(1)=    0.500       N(1)  =     2000
   RHO(2)=  100.500       N(2)  =     4000



--------------------------------------------------------------------------------------------------------


 ion  position               nearest neighbor table
   1  0.450  0.460  0.600-

  LATTYP: Found a simple cubic cell.
 ALAT       =    20.0000000000
  
  Lattice vectors:
  
 A1 = (  20.0000000000,   0.0000000000,   0.0000000000)
 A2 = (   0.0000000000,  20.0000000000,   0.0000000000)
 A3 = (   0.0000000000,   0.0000000000,  20.0000000000)


Analysis of symmetry for initial positions (statically):
=====================================================================
 Subroutine PRICEL returns:
 Original cell was already a primitive cell.
 

 Routine SETGRP: Setting up the symmetry group for a 
 simple cubic supercell.


 Subroutine GETGRP returns: Found 48 space group operations
 (whereof  1 operations were pure point group operations)
 out of a pool of 48 trial point group operations.


The static configuration has the point symmetry C_1 .
 The point group associated with its full space group is O_h .


Analysis of symmetry for dynamics (positions and initial velocities):
=====================================================================
 Subroutine PRICEL returns:
 Original cell was already a primitive cell.
 

 Routine SETGRP: Setting up the symmetry group for a 
 simple cubic supercell.


 Subroutine GETGRP returns: Found 48 space group operations
 (whereof  1 operations were pure point group operations)
 out of a pool of 48 trial point group operations.


The dynamic configuration has the point symmetry C_1 .
 The point group associated with its full space group is O_h .


Analysis of structural, dynamic, and magnetic symmetry:
=====================================================================
 Subroutine PRICEL returns:
 Original cell was already a primitive cell.
 

 Routine SETGRP: Setting up the symmetry group for a 
 simple cubic supercell.


 Subroutine GETGRP returns: Found 48 space group operations
 (whereof  1 operations were pure point group operations)
 out of a pool of 48 trial point group operations.


The overall configuration has the point symmetry C_1 .
 The point group associated with its full space group is O_h .


 Subroutine INISYM returns: Found 48 space group operations
 (whereof  1 operations are pure point group operations),
 and found     1 'primitive' translations


----------------------------------------------------------------------------------------

                                     Primitive cell                                     

  volume of cell :    8000.0000

  direct lattice vectors                    reciprocal lattice vectors
    20.000000000  0.000000000  0.000000000     0.050000000  0.000000000  0.000000000
     0.000000000 20.000000000  0.000000000     0.000000000  0.050000000  0.000000000
     0.000000000  0.000000000 20.000000000     0.000000000  0.000000000  0.050000000

  length of vectors
    20.000000000 20.000000000 20.000000000     0.050000000  0.050000000  0.050000000

  position of ions in fractional coordinates (direct lattice)
     0.450000000  0.460000000  0.600000000

  ion indices of the primitive-cell ions
   primitive index   ion index
                 1           1

----------------------------------------------------------------------------------------



 KPOINTS: KPOINTS created by Atomic Simulation Env

Automatic generation of k-mesh.
 Grid dimensions read from file:
 generate k-points for:    1    1    1

 Generating k-lattice:

  Cartesian coordinates                     Fractional coordinates (reciprocal lattice)
     0.050000000  0.000000000  0.000000000     1.000000000  0.000000000  0.000000000
     0.000000000  0.050000000  0.000000000     0.000000000  1.000000000  0.000000000
     0.000000000  0.000000000  0.050000000     0.000000000  0.000000000  1.000000000

  Length of vectors
     0.050000000  0.050000000  0.050000000

  Shift w.r.t. Gamma in fractional coordinates (k-lattice)
     0.000000000  0.000000000  0.000000000

 
 Subroutine IBZKPT returns following result:
 ===========================================
 
 Found      1 irreducible k-points:
 
 Following reciprocal coordinates:
            Coordinates               Weight
  0.000000  0.000000  0.000000      1.000000
 
 Following cartesian coordinates:
            Coordinates               Weight
  0.000000  0.000000  0.000000      1.000000
 
 
 Subroutine IBZKPT_HF returns following result:
 ==============================================
 
 Found      1 k-points in 1st BZ
 the following      1 k-points will be used (e.g. in the exchange kernel)
 Following reciprocal coordinates:   # in IRBZ
  0.000000  0.000000  0.000000    1.00000000   1 t-inv F


--------------------------------------------------------------------------------------------------------




 Dimension of arrays:
   k-points           NKPTS =      1   k-points in BZ     NKDIM =      1   number of bands    NBANDS=     16
   number of dos      NEDOS =    301   number of ions     NIONS =      1
   non local maximal  LDIM  =      6   non local SUM 2l+1 LMDIM =     18
   total plane-waves  NPLWV = ******
   max r-space proj   IRMAX =   5885   max aug-charges    IRDMAX=  25995
   dimension x,y,z NGX =   150 NGY =  150 NGZ =  150
   dimension x,y,z NGXF=   300 NGYF=  300 NGZF=  300
   support grid    NGXF=   300 NGYF=  300 NGZF=  300
   ions per type =               1
   NGX,Y,Z   is equivalent  to a cutoff of  12.47, 12.47, 12.47 a.u.
   NGXF,Y,Z  is equivalent  to a cutoff of  24.94, 24.94, 24.94 a.u.

 SYSTEM =  MgO-rocksalt                            
 POSCAR =  au4                                     

 Startparameter for this run:
   NWRITE =      2    write-flag & timer
   PREC   = accura    normal or accurate (medium, high low for compatibility)
   ISTART =      0    job   : 0-new  1-cont  2-samecut
   ICHARG =      2    charge: 1-file 2-atom 10-const
   ISPIN  =      2    spin polarized calculation?
   LNONCOLLINEAR =      F non collinear calculations
   LSORBIT =      F    spin-orbit coupling
   INIWAV =      1    electr: 0-lowe 1-rand  2-diag
   LASPH  =      T    aspherical Exc in radial PAW
 Electronic Relaxation 1
   ENCUT  =  520.0 eV  38.22 Ry    6.18 a.u.  37.19 37.19 37.19*2*pi/ulx,y,z
   ENINI  =  520.0     initial cutoff
   ENAUG  =  356.7 eV  augmentation charge cutoff
   NELM   =    200;   NELMIN=  8; NELMDL= -5     # of ELM steps 
   EDIFF  = 0.1E-05   stopping-criterion for ELM
   LREAL  =      T    real-space projection
   NLSPLINE    = F    spline interpolate recip. space projectors
   LCOMPAT=      F    compatible to vasp.4.4
   GGA_COMPAT  = T    GGA compatible to vasp.4.4-vasp.4.6
   LMAXPAW     = -100 max onsite density
   LMAXMIX     =    2 max onsite mixed and CHGCAR
   VOSKOWN=      0    Vosko Wilk Nusair interpolation
   ROPT   =   -0.00025
 Ionic relaxation
   EDIFFG = 0.1E-04   stopping-criterion for IOM
   NSW    =      0    number of steps for IOM
   NBLOCK =      1;   KBLOCK =      1    inner block; outer block 
   IBRION =     -1    ionic relax: 0-MD 1-quasi-New 2-CG
   NFREE  =      0    steps in history (QN), initial steepest desc. (CG)
   ISIF   =      0    stress and relaxation
   IWAVPR =     10    prediction:  0-non 1-charg 2-wave 3-comb
   ISYM   =      2    0-nonsym 1-usesym 2-fastsym
   LCORR  =      T    Harris-Foulkes like correction to forces

   POTIM  = 0.5000    time-step for ionic-motion
   TEIN   =    0.0    initial temperature
   TEBEG  =    0.0;   TEEND  =   0.0 temperature during run
   SMASS  =  -3.00    Nose mass-parameter (am)
   estimated Nose-frequenzy (Omega)   =  0.10E-29 period in steps = 0.13E+47 mass=  -0.914E-26a.u.
   SCALEE = 1.0000    scale energy and forces
   NPACO  =    256;   APACO  = 10.0  distance and # of slots for P.C.
   PSTRESS=    0.0 pullay stress

  Mass of Ions in am
   POMASS = 196.97
  Ionic Valenz
   ZVAL   =  11.00
  Atomic Wigner-Seitz radii
   RWIGS  =  -1.00
  virtual crystal weights 
   VCA    =   1.00
   NELECT =      11.0000    total number of electrons
   NUPDOWN=      -1.0000    fix difference up-down

 DOS related values:
   EMIN   =  10.00;   EMAX   =-10.00  energy-range for DOS
   EFERMI =   0.00
   ISMEAR =     0;   SIGMA  =   0.05  broadening in eV -4-tet -1-fermi 0-gaus

 Electronic relaxation 2 (details)
   IALGO  =     58    algorithm
   LDIAG  =      T    sub-space diagonalisation (order eigenvalues)
   LSUBROT=      F    optimize rotation matrix (better conditioning)
   TURBO    =      0    0=normal 1=particle mesh
   IRESTART =      0    0=no restart 2=restart with 2 vectors
   NREBOOT  =      0    no. of reboots
   NMIN     =      0    reboot dimension
   EREF     =   0.00    reference energy to select bands
   IMIX   =      4    mixing-type and parameters
     AMIX     =   0.40;   BMIX     =  1.00
     AMIX_MAG =   1.60;   BMIX_MAG =  1.00
     AMIN     =   0.10
     WC   =   100.;   INIMIX=   1;  MIXPRE=   1;  MAXMIX= -45

 Intra band minimization:
   WEIMIN = 0.0000     energy-eigenvalue tresh-hold
   EBREAK =  0.16E-07  absolut break condition
   DEPER  =   0.30     relativ break condition  

   TIME   =   0.40     timestep for ELM

  volume/ion in A,a.u.               =    8000.00     53986.66
  Fermi-wavevector in a.u.,A,eV,Ry     =   0.182044  0.344013  0.450896  0.033140
  Thomas-Fermi vector in A             =   0.909791

 Write flags
   LWAVE        =      F    write WAVECAR
   LDOWNSAMPLE  =      F    k-point downsampling of WAVECAR
   LCHARG       =      F    write CHGCAR
   LVTOT        =      F    write LOCPOT, total local potential
   LVHAR        =      F    write LOCPOT, Hartree potential only
   LELF         =      F    write electronic localiz. function (ELF)
   LORBIT       =      0    0 simple, 1 ext, 2 COOP (PROOUT), +10 PAW based schemes


 Dipole corrections
   LMONO  =      F    monopole corrections only (constant potential shift)
   LDIPOL =      F    correct potential (dipole corrections)
   IDIPOL =      0    1-x, 2-y, 3-z, 4-all directions 
   EPSILON=  1.0000000 bulk dielectric constant

 Exchange correlation treatment:
   GGA     =    PE    GGA type
   LEXCH   =     8    internal setting for exchange type
   LIBXC   =     F    Libxc                    
   VOSKOWN =     0    Vosko Wilk Nusair interpolation
   EXXOEP  =     0    0=HF, 1=EXX-LHF (local Hartree Fock) 2=EXX OEP
   LHFCALC =     T    Hartree Fock is set to
   LSYMGRAD=     F    symmetrize gradient (conserves proper symmetry)
   PRECFOCK=normal    Normal, Fast or Accurate (Low or Medium for compatibility)
   LRHFCALC=     F    long range Hartree Fock
   LRSCOR  =     F    long range correlation only (use DFT for short range part)
   LTHOMAS =     F    Thomas Fermi screening in HF
   LMODELHF=     F    short range full HF, long range fraction AEXX
   LFOCKACE=     T    use Adeptively-Compressed-Exchange operator
   ENCUT4O =  -1.0   cutoff for four orbital integrals eV
   LMAXFOCK=     4    L truncation for augmentation on plane wave grid
   LMAXFOCKAE=  -1    L truncation for all-electron charge restoration on plane wave grid
   NMAXFOCKAE=   1    number of basis functions for all-electron charge restoration
   LFOCKAEDFT=     F  apply the AE augmentation even for DFT
   NKREDX  =     1    reduce k-point grid by
   NKREDY  =     1    reduce k-point grid by
   NKREDZ  =     1    reduce k-point grid by
   SHIFTRED=     F    shift reduced grid of Gamma
   HFKIDENT=     F    idential grid for each k-point
   ODDONLY =     F    use only odd q-grid points
   EVENONLY=     F    use only even q-grid points
   HFALPHA =   -1.0000 decay constant for conv. correction
   MCALPHA =    0.0000 extent of test-charge in conv. correction in multipole expansion
   AEXX    =    0.2500 exact exchange contribution
   HFSCREEN=    0.0000 screening length (either q_TF or 0.3 A-1)
   HFSCREENC=   0.0000 screening length for correlation (either q_TF or 0.3 A-1)
   HFRCUT  =    0.0000 spherical cutoff for potential kernel
   ALDAX   =    0.7500 LDA exchange part
   AGGAX   =    0.7500 GGA exchange part
   ALDAC   =    1.0000 LDA correlation
   AGGAC   =    1.0000 GGA correlation
   ENCUTFOCK=  -1.0 apply spherical cutoff to Coloumb kernel
   NBANDSGWLOW=     1    first orbital included in HF term
   NBLOCK_FOCK=    64    blocking factor in FOCK_ACC

 Linear response parameters
   LEPSILON=     F    determine dielectric tensor
   LRPA    =     F    only Hartree local field effects (RPA)
   LNABLA  =     F    use nabla operator in PAW spheres
   LVEL    =     F    velocity operator in full k-point grid
   CSHIFT  =0.1000    complex shift for real part using Kramers Kronig
   OMEGAMAX=  -1.0    maximum frequency
   DEG_THRESHOLD= 0.2000000E-02 threshold for treating states as degnerate
   RTIME   =   -0.100 relaxation time in fs
  (WPLASMAI=    0.000 imaginary part of plasma frequency in eV, 0.658/RTIME)
   DFIELD  = 0.0000000 0.0000000 0.0000000 field for delta impulse in time

  Optional k-point grid parameters
   LKPOINTS_OPT  =     F    use optional k-point grid
   KPOINTS_OPT_MODE=     1    mode for optional k-point grid

 Orbital magnetization related:
   ORBITALMAG=     F  switch on orbital magnetization
   LCHIMAG   =     F  perturbation theory with respect to B field
   DQ        =  0.001000  dq finite difference perturbation B field
   LLRAUG    =     F  two centre corrections for induced B field



--------------------------------------------------------------------------------------------------------


 Static calculation
 charge density and potential will be updated during run
 spin polarized calculation
 Conjugate gradient for all bands (Freysoldt, et al. PRB 79, 241103 (2009))
 preconditioned conjugated gradient                                        
 perform sub-space diagonalisation
    before iterative eigenvector-optimisation
 modified Broyden-mixing scheme, WC =      100.0
 initial mixing is a Kerker type mixing with AMIX =  0.4000 and BMIX =      1.0000
 Hartree-type preconditioning will be used
 using additional bands           10
 real space projection scheme for non local part
 use partial core corrections
 no Harris-corrections to forces 
 use gradient corrections 
 use of overlap-Matrix (Vanderbilt PP)
 Gauss-broadening in eV      SIGMA  =   0.05


--------------------------------------------------------------------------------------------------------


  energy-cutoff  :      520.00
  volume of cell :     8000.00
      direct lattice vectors                 reciprocal lattice vectors
    20.000000000  0.000000000  0.000000000     0.050000000  0.000000000  0.000000000
     0.000000000 20.000000000  0.000000000     0.000000000  0.050000000  0.000000000
     0.000000000  0.000000000 20.000000000     0.000000000  0.000000000  0.050000000

  length of vectors
    20.000000000 20.000000000 20.000000000     0.050000000  0.050000000  0.050000000



 k-points in units of 2pi/SCALE and weight: KPOINTS created by Atomic Simulation Env
   0.00000000  0.00000000  0.00000000       1.000

 k-points in reciprocal lattice and weights: KPOINTS created by Atomic Simulation Env
   0.00000000  0.00000000  0.00000000       1.000

 position of ions in fractional coordinates (direct lattice) 
   0.45000000  0.46000000  0.60000000

 position of ions in cartesian coordinates  (Angst):
   9.00000000  9.20000000 12.00000000



--------------------------------------------------------------------------------------------------------


 k-point   1 :   0.0000 0.0000 0.0000  plane waves:  215503

 maximum and minimum number of plane-waves per node :     53900    53857

 maximum number of plane-waves:    215503
 maximum index in each direction: 
   IXMAX=   37   IYMAX=   37   IZMAX=   37
   IXMIN=  -37   IYMIN=  -37   IZMIN=  -37


 real space projection operators:
  total allocation   :        801.84 KBytes
  max/ min on nodes  :        201.52        199.41


 parallel 3D FFT for wavefunctions:
    minimum data exchange during FFTs selected (reduces bandwidth)
 parallel 3D FFT for charge:
    minimum data exchange during FFTs selected (reduces bandwidth)


 FFT grid for exact exchange (Hartree Fock) 
  NGX =112; NGY =112; NGZ =112


 Radii for the augmentation spheres in the non-local exchange
 for species   1 augmentation radius   1.512 (default was   1.210)
       energy cutoff for augmentation   2080.0

 real space projection operators:
  total allocation   :        496.09 KBytes
  max/ min on nodes  :        126.76        121.09

 Maximum index for augmentation-charges in exchange          649
  SETUP_FOCK is finished

 total amount of memory used by VASP MPI-rank0   250513. kBytes
=======================================================================

   base      :      30000. kBytes
   nonlr-proj:        546. kBytes
   fftplans  :      75804. kBytes
   grid      :     133718. kBytes
   one-center:         31. kBytes
   HF        :         64. kBytes
   wavefun   :      10350. kBytes

     INWAV:  cpu time      0.0000: real time      0.0000
 Broyden mixing: mesh for mixing (old mesh)
   NGX = 75   NGY = 75   NGZ = 75
  (NGX  =300   NGY  =300   NGZ  =300)
  gives a total of 421875 points

 initial charge density was supplied:
 charge density of overlapping atoms calculated
 number of electron      11.0000000 magnetization       1.0000000
 keeping initial charge density in first step


--------------------------------------------------------------------------------------------------------


 Maximum index for non-local projection operator         1433
 Maximum index for augmentation-charges          877 (set IRDMAX)


--------------------------------------------------------------------------------------------------------


    FEWALD:  cpu time      0.0008: real time      0.0008


--------------------------------------- Iteration      1(   1)  ---------------------------------------


    POTLOK:  cpu time      1.3747: real time      1.3751
    SETDIJ:  cpu time      0.4008: real time      0.4009
    TRIAL :  cpu time      1.0487: real time      1.2608
    CORREC:  cpu time      0.0003: real time      0.0003
    --------------------------------------------
      LOOP:  cpu time      2.8370: real time      3.0497

 eigenvalue-minimisations  :    64
 total energy-change (2. order) :-0.2311067E+04  (-0.1325980E+03)
 number of electron      11.0000000 magnetization       1.0000000
 augmentation part       11.0000000 magnetization       1.0000000

 Free energy of the ion-electron system (eV)
  ---------------------------------------------------
  alpha Z        PSCENC =         0.14559951
  Ewald energy   TEWEN  =      -123.59085203
  -Hartree energ DENC   =      -765.15136040
  -exchange      EXHF   =         0.00000000
  -V(xc)+E(xc)   XCENC  =        13.70564822
  PAW double counting   =       874.02147508    -3233.55778544
  entropy T*S    EENTRO =        -0.02782301
  eigenvalues    EBANDS =        -2.10400539
  atomic energy  EATOM  =       925.49212247
  ---------------------------------------------------
  free energy    TOTEN  =     -2311.06698099 eV

  energy without entropy =    -2311.03915798  energy(sigma->0) =    -2311.05306948
  exchange ACFDT corr.  =         0.00000000  see jH, gK, PRB 81, 115126


--------------------------------------------------------------------------------------------------------




--------------------------------------- Iteration      1(   2)  ---------------------------------------


    TRIAL :  cpu time      1.1950: real time      1.1951
    CORREC:  cpu time      0.0002: real time      0.0002
    --------------------------------------------
      LOOP:  cpu time      1.2069: real time      1.2072

 eigenvalue-minimisations  :    80
 total energy-change (2. order) :-0.1265718E+02  (-0.1146449E+02)
 number of electron      11.0000000 magnetization       1.0000000
 augmentation part       11.0000000 magnetization       1.0000000

 Free energy of the ion-electron system (eV)
  ---------------------------------------------------
  alpha Z        PSCENC =         0.14559951
  Ewald energy   TEWEN  =      -123.59085203
  -Hartree energ DENC   =      -765.15136040
  -exchange      EXHF   =         0.00000000
  -V(xc)+E(xc)   XCENC  =        13.70564822
  PAW double counting   =       874.02147508    -3233.55778544
  entropy T*S    EENTRO =        -0.00220630
  eigenvalues    EBANDS =       -14.78680445
  atomic energy  EATOM  =       925.49212247
  ---------------------------------------------------
  free energy    TOTEN  =     -2323.72416335 eV

  energy without entropy =    -2323.72195705  energy(sigma->0) =    -2323.72306020
  exchange ACFDT corr.  =         0.00000000  see jH, gK, PRB 81, 115126


--------------------------------------------------------------------------------------------------------




--------------------------------------- Iteration      1(   3)  ---------------------------------------


    TRIAL :  cpu time      1.7531: real time      1.7533
    CORREC:  cpu time      0.0002: real time      0.0002
    --------------------------------------------
      LOOP:  cpu time      1.7578: real time      1.7646

 eigenvalue-minimisations  :   128
 total energy-change (2. order) :-0.7410879E+02  (-0.7113407E+02)
 number of electron      11.0000000 magnetization       1.0000000
 augmentation part       11.0000000 magnetization       1.0000000

 Free energy of the ion-electron system (eV)
  ---------------------------------------------------
  alpha Z        PSCENC =         0.14559951
  Ewald energy   TEWEN  =      -123.59085203
  -Hartree energ DENC   =      -765.15136040
  -exchange      EXHF   =         0.00000000
  -V(xc)+E(xc)   XCENC  =        13.70564822
  PAW double counting   =       874.02147508    -3233.55778544
  entropy T*S    EENTRO =        -0.00000011
  eigenvalues    EBANDS =       -88.89780404
  atomic energy  EATOM  =       925.49212247
  ---------------------------------------------------
  free energy    TOTEN  =     -2397.83295674 eV

  energy without entropy =    -2397.83295664  energy(sigma->0) =    -2397.83295669
  exchange ACFDT corr.  =         0.00000000  see jH, gK, PRB 81, 115126


--------------------------------------------------------------------------------------------------------




--------------------------------------- Iteration      1(   4)  ---------------------------------------


    TRIAL :  cpu time      1.3814: real time      1.3815
    CORREC:  cpu time      0.0002: real time      0.0002
    --------------------------------------------
      LOOP:  cpu time      1.3922: real time      1.3926

 eigenvalue-minimisations  :    96
 total energy-change (2. order) :-0.1822882E+02  (-0.1822029E+02)
 number of electron      11.0000000 magnetization       1.0000000
 augmentation part       11.0000000 magnetization       1.0000000

 Free energy of the ion-electron system (eV)
  ---------------------------------------------------
  alpha Z        PSCENC =         0.14559951
  Ewald energy   TEWEN  =      -123.59085203
  -Hartree energ DENC   =      -765.15136040
  -exchange      EXHF   =         0.00000000
  -V(xc)+E(xc)   XCENC  =        13.70564822
  PAW double counting   =       874.02147508    -3233.55778544
  entropy T*S    EENTRO =        -0.00000010
  eigenvalues    EBANDS =      -107.12661940
  atomic energy  EATOM  =       925.49212247
  ---------------------------------------------------
  free energy    TOTEN  =     -2416.06177209 eV

  energy without entropy =    -2416.06177199  energy(sigma->0) =    -2416.06177204
  exchange ACFDT corr.  =         0.00000000  see jH, gK, PRB 81, 115126


--------------------------------------------------------------------------------------------------------




--------------------------------------- Iteration      1(   5)  ---------------------------------------


    POTLOK:  cpu time      1.3456: real time      1.3457
    SETDIJ:  cpu time      0.4049: real time      0.4049
    TRIAL :  cpu time      3.1223: real time      3.1225
    CORREC:  cpu time      0.0001: real time      0.0001
    CHARGE:  cpu time      1.0782: real time      1.0783
    --------------------------------------------
      LOOP:  cpu time      5.9555: real time      5.9625

 eigenvalue-minimisations  :    64
 total energy-change (2. order) : 0.2415593E+04  (-0.1004087E+01)
 number of electron      11.0000003 magnetization       1.0000000
 augmentation part        4.3047378 magnetization      -0.1668955

 Free energy of the ion-electron system (eV)
  ---------------------------------------------------
  alpha Z        PSCENC =         0.14559951
  Ewald energy   TEWEN  =      -123.59085203
  -Hartree energ DENC   =      -765.15136040
  -exchange      EXHF   =        26.15418066
  -V(xc)+E(xc)   XCENC  =        10.45197875
  PAW double counting   =       877.27151144     -855.49539561
  entropy T*S    EENTRO =        -0.00000000
  eigenvalues    EBANDS =       -95.74666401
  atomic energy  EATOM  =       925.49212247
  ---------------------------------------------------
  free energy    TOTEN  =        -0.46887922 eV

  energy without entropy =       -0.46887922  energy(sigma->0) =       -0.46887922
  exchange ACFDT corr.  =        -0.00000062  see jH, gK, PRB 81, 115126


--------------------------------------------------------------------------------------------------------




--------------------------------------- Iteration      1(   6)  ---------------------------------------


    POTLOK:  cpu time      1.3478: real time      1.3479
    SETDIJ:  cpu time      0.4241: real time      0.4241
    TRIAL :  cpu time      2.6587: real time      2.6597
    CORREC:  cpu time      4.9933: real time      4.9937
    CHARGE:  cpu time      0.9932: real time      0.9933
    --------------------------------------------
      LOOP:  cpu time     10.4216: real time     10.4312

 eigenvalue-minimisations  :     0
 total energy-change (2. order) :-0.3564166E-01  (-0.2063110E+00)
 number of electron      11.0000003 magnetization       1.0000000
 augmentation part        4.2069480 magnetization      -0.1734463

 Free energy of the ion-electron system (eV)
  ---------------------------------------------------
  alpha Z        PSCENC =         0.14559951
  Ewald energy   TEWEN  =      -123.59085203
  -Hartree energ DENC   =      -784.81207379
  -exchange      EXHF   =        25.12880027
  -V(xc)+E(xc)   XCENC  =        10.99273374
  PAW double counting   =       947.93062216     -925.78264246
  entropy T*S    EENTRO =        -0.00000000
  eigenvalues    EBANDS =       -76.00883074
  atomic energy  EATOM  =       925.49212247
  ---------------------------------------------------
  free energy    TOTEN  =        -0.50452088 eV

  energy without entropy =       -0.50452088  energy(sigma->0) =       -0.50452088
  exchange ACFDT corr.  =        -0.00000000  see jH, gK, PRB 81, 115126


--------------------------------------------------------------------------------------------------------




--------------------------------------- Iteration      1(   7)  ---------------------------------------


    POTLOK:  cpu time      1.3507: real time      1.3508
    SETDIJ:  cpu time      0.4238: real time      0.4238
    TRIAL :  cpu time      2.6600: real time      2.6601
    CORREC:  cpu time      4.9891: real time      4.9898
    CHARGE:  cpu time      0.9928: real time      0.9929
    --------------------------------------------
      LOOP:  cpu time     10.4279: real time     10.4289

 eigenvalue-minimisations  :     0
 total energy-change (2. order) :-0.2088136E+00  (-0.1157257E-01)
 number of electron      11.0000003 magnetization       1.0000000
 augmentation part        4.2037028 magnetization      -0.1977443

 Free energy of the ion-electron system (eV)
  ---------------------------------------------------
  alpha Z        PSCENC =         0.14559951
  Ewald energy   TEWEN  =      -123.59085203
  -Hartree energ DENC   =      -769.60155721
  -exchange      EXHF   =        24.72200341
  -V(xc)+E(xc)   XCENC  =        10.57628325
  PAW double counting   =       920.84184707     -898.91511707
  entropy T*S    EENTRO =        -0.00000000
  eigenvalues    EBANDS =       -90.38366383
  atomic energy  EATOM  =       925.49212247
  ---------------------------------------------------
  free energy    TOTEN  =        -0.71333444 eV

  energy without entropy =       -0.71333444  energy(sigma->0) =       -0.71333444
  exchange ACFDT corr.  =        -0.00000000  see jH, gK, PRB 81, 115126


--------------------------------------------------------------------------------------------------------




--------------------------------------- Iteration      1(   8)  ---------------------------------------


    POTLOK:  cpu time      1.3611: real time      1.3617
    SETDIJ:  cpu time      0.4177: real time      0.4177
    TRIAL :  cpu time      2.6527: real time      2.6528
    CORREC:  cpu time      4.9635: real time      4.9637
    CHARGE:  cpu time      0.9932: real time      0.9932
    --------------------------------------------
      LOOP:  cpu time     10.3925: real time     10.4010

 eigenvalue-minimisations  :     0
 total energy-change (2. order) :-0.1156829E-01  (-0.1084875E-02)
 number of electron      11.0000003 magnetization       1.0000000
 augmentation part        4.2084403 magnetization      -0.2030437

 Free energy of the ion-electron system (eV)
  ---------------------------------------------------
  alpha Z        PSCENC =         0.14559951
  Ewald energy   TEWEN  =      -123.59085203
  -Hartree energ DENC   =      -769.52116264
  -exchange      EXHF   =        24.72986378
  -V(xc)+E(xc)   XCENC  =        10.58437992
  PAW double counting   =       931.79548506     -909.85323386
  entropy T*S    EENTRO =        -0.00000000
  eigenvalues    EBANDS =       -90.50710495
  atomic energy  EATOM  =       925.49212247
  ---------------------------------------------------
  free energy    TOTEN  =        -0.72490274 eV

  energy without entropy =       -0.72490274  energy(sigma->0) =       -0.72490274
  exchange ACFDT corr.  =        -0.00000000  see jH, gK, PRB 81, 115126


--------------------------------------------------------------------------------------------------------




--------------------------------------- Iteration      1(   9)  ---------------------------------------


    POTLOK:  cpu time      1.3541: real time      1.3545
    SETDIJ:  cpu time      0.4196: real time      0.4196
    TRIAL :  cpu time      2.6619: real time      2.6620
    CORREC:  cpu time      4.9494: real time      4.9496
    CHARGE:  cpu time      0.9914: real time      0.9915
    --------------------------------------------
      LOOP:  cpu time     10.3815: real time     10.3894

 eigenvalue-minimisations  :     0
 total energy-change (2. order) :-0.1083165E-02  (-0.2533493E-03)
 number of electron      11.0000003 magnetization       1.0000000
 augmentation part        4.2074882 magnetization      -0.2043288

 Free energy of the ion-electron system (eV)
  ---------------------------------------------------
  alpha Z        PSCENC =         0.14559951
  Ewald energy   TEWEN  =      -123.59085203
  -Hartree energ DENC   =      -770.12437160
  -exchange      EXHF   =        24.74772944
  -V(xc)+E(xc)   XCENC  =        10.60245979
  PAW double counting   =       938.65720022     -916.70301931
  entropy T*S    EENTRO =        -0.00000000
  eigenvalues    EBANDS =       -89.95285440
  atomic energy  EATOM  =       925.49212247
  ---------------------------------------------------
  free energy    TOTEN  =        -0.72598590 eV

  energy without entropy =       -0.72598590  energy(sigma->0) =       -0.72598590
  exchange ACFDT corr.  =        -0.00000000  see jH, gK, PRB 81, 115126


--------------------------------------------------------------------------------------------------------




--------------------------------------- Iteration      1(  10)  ---------------------------------------


    POTLOK:  cpu time      1.3442: real time      1.3449
    SETDIJ:  cpu time      0.4173: real time      0.4173
    TRIAL :  cpu time      2.6715: real time      2.6716
    CORREC:  cpu time      4.9394: real time      4.9396
    CHARGE:  cpu time      0.9924: real time      0.9928
    --------------------------------------------
      LOOP:  cpu time     10.3768: real time     10.3786

 eigenvalue-minimisations  :     0
 total energy-change (2. order) :-0.2533484E-03  (-0.1039118E-03)
 number of electron      11.0000003 magnetization       1.0000000
 augmentation part        4.2091054 magnetization      -0.2038510

 Free energy of the ion-electron system (eV)
  ---------------------------------------------------
  alpha Z        PSCENC =         0.14559951
  Ewald energy   TEWEN  =      -123.59085203
  -Hartree energ DENC   =      -769.78545002
  -exchange      EXHF   =        24.73861964
  -V(xc)+E(xc)   XCENC  =        10.59311333
  PAW double counting   =       941.97401738     -920.02482745
  entropy T*S    EENTRO =        -0.00000000
  eigenvalues    EBANDS =       -90.26858207
  atomic energy  EATOM  =       925.49212247
  ---------------------------------------------------
  free energy    TOTEN  =        -0.72623925 eV

  energy without entropy =       -0.72623925  energy(sigma->0) =       -0.72623925
  exchange ACFDT corr.  =        -0.00000000  see jH, gK, PRB 81, 115126


--------------------------------------------------------------------------------------------------------




--------------------------------------- Iteration      1(  11)  ---------------------------------------


    POTLOK:  cpu time      1.3277: real time      1.3277
    SETDIJ:  cpu time      0.4190: real time      0.4190
    TRIAL :  cpu time      2.6630: real time      2.6632
    CORREC:  cpu time      4.9009: real time      4.9011
    CHARGE:  cpu time      0.9918: real time      0.9921
    --------------------------------------------
      LOOP:  cpu time     10.3077: real time     10.3137

 eigenvalue-minimisations  :     0
 total energy-change (2. order) :-0.1026060E-03  (-0.3635241E-04)
 number of electron      11.0000003 magnetization       1.0000000
 augmentation part        4.2090899 magnetization      -0.2032503

 Free energy of the ion-electron system (eV)
  ---------------------------------------------------
  alpha Z        PSCENC =         0.14559951
  Ewald energy   TEWEN  =      -123.59085203
  -Hartree energ DENC   =      -769.89816835
  -exchange      EXHF   =        24.74145518
  -V(xc)+E(xc)   XCENC  =        10.59591558
  PAW double counting   =       945.42208531     -923.47138370
  entropy T*S    EENTRO =        -0.00000000
  eigenvalues    EBANDS =       -90.16311582
  atomic energy  EATOM  =       925.49212247
  ---------------------------------------------------
  free energy    TOTEN  =        -0.72634186 eV

  energy without entropy =       -0.72634186  energy(sigma->0) =       -0.72634186
  exchange ACFDT corr.  =        -0.00000000  see jH, gK, PRB 81, 115126


--------------------------------------------------------------------------------------------------------




--------------------------------------- Iteration      1(  12)  ---------------------------------------


    POTLOK:  cpu time      1.3188: real time      1.3189
    SETDIJ:  cpu time      0.4103: real time      0.4103
    TRIAL :  cpu time      2.6721: real time      2.6722
    CORREC:  cpu time      4.9071: real time      4.9073
    CHARGE:  cpu time      0.9920: real time      0.9926
    --------------------------------------------
      LOOP:  cpu time     10.3041: real time     10.3134

 eigenvalue-minimisations  :     0
 total energy-change (2. order) :-0.3618426E-04  (-0.1005570E-04)
 number of electron      11.0000003 magnetization       1.0000000
 augmentation part        4.2089341 magnetization      -0.2029009

 Free energy of the ion-electron system (eV)
  ---------------------------------------------------
  alpha Z        PSCENC =         0.14559951
  Ewald energy   TEWEN  =      -123.59085203
  -Hartree energ DENC   =      -769.86415018
  -exchange      EXHF   =        24.74049141
  -V(xc)+E(xc)   XCENC  =        10.59486127
  PAW double counting   =       946.84675004     -924.89730300
  entropy T*S    EENTRO =        -0.00000000
  eigenvalues    EBANDS =       -90.19389752
  atomic energy  EATOM  =       925.49212247
  ---------------------------------------------------
  free energy    TOTEN  =        -0.72637804 eV

  energy without entropy =       -0.72637804  energy(sigma->0) =       -0.72637804
  exchange ACFDT corr.  =        -0.00000000  see jH, gK, PRB 81, 115126


--------------------------------------------------------------------------------------------------------




--------------------------------------- Iteration      1(  13)  ---------------------------------------


    POTLOK:  cpu time      1.3151: real time      1.3151
    SETDIJ:  cpu time      0.4171: real time      0.4171
    TRIAL :  cpu time      2.6424: real time      2.6425
    CORREC:  cpu time      4.9140: real time      4.9147
    CHARGE:  cpu time      0.9930: real time      0.9930
    --------------------------------------------
      LOOP:  cpu time     10.2936: real time     10.2947

 eigenvalue-minimisations  :     0
 total energy-change (2. order) :-0.1008707E-04  (-0.1781121E-05)
 number of electron      11.0000003 magnetization       1.0000000
 augmentation part        4.2090751 magnetization      -0.2028517

 Free energy of the ion-electron system (eV)
  ---------------------------------------------------
  alpha Z        PSCENC =         0.14559951
  Ewald energy   TEWEN  =      -123.59085203
  -Hartree energ DENC   =      -769.84726269
  -exchange      EXHF   =        24.74007134
  -V(xc)+E(xc)   XCENC  =        10.59438886
  PAW double counting   =       947.12504787     -925.17594073
  entropy T*S    EENTRO =        -0.00000000
  eigenvalues    EBANDS =       -90.20956273
  atomic energy  EATOM  =       925.49212247
  ---------------------------------------------------
  free energy    TOTEN  =        -0.72638813 eV

  energy without entropy =       -0.72638813  energy(sigma->0) =       -0.72638813
  exchange ACFDT corr.  =        -0.00000000  see jH, gK, PRB 81, 115126


--------------------------------------------------------------------------------------------------------




--------------------------------------- Iteration      1(  14)  ---------------------------------------


    POTLOK:  cpu time      1.3170: real time      1.3170
    SETDIJ:  cpu time      0.4213: real time      0.4213
    TRIAL :  cpu time      2.6601: real time      2.6602
    CORREC:  cpu time      4.9255: real time      4.9262
    CHARGE:  cpu time      0.9930: real time      0.9931
    --------------------------------------------
      LOOP:  cpu time     10.3209: real time     10.3297

 eigenvalue-minimisations  :     0
 total energy-change (2. order) :-0.1734502E-05  (-0.4060267E-06)
 number of electron      11.0000003 magnetization       1.0000000
 augmentation part        4.2090020 magnetization      -0.2028568

 Free energy of the ion-electron system (eV)
  ---------------------------------------------------
  alpha Z        PSCENC =         0.14559951
  Ewald energy   TEWEN  =      -123.59085203
  -Hartree energ DENC   =      -769.86795842
  -exchange      EXHF   =        24.74063850
  -V(xc)+E(xc)   XCENC  =        10.59495522
  PAW double counting   =       947.11606939     -925.16639386
  entropy T*S    EENTRO =        -0.00000000
  eigenvalues    EBANDS =       -90.19057065
  atomic energy  EATOM  =       925.49212247
  ---------------------------------------------------
  free energy    TOTEN  =        -0.72638986 eV

  energy without entropy =       -0.72638986  energy(sigma->0) =       -0.72638986
  exchange ACFDT corr.  =        -0.00000000  see jH, gK, PRB 81, 115126


--------------------------------------------------------------------------------------------------------




--------------------------------------- Iteration      1(  15)  ---------------------------------------


    POTLOK:  cpu time      1.3170: real time      1.3172
    SETDIJ:  cpu time      0.4192: real time      0.4192
    TRIAL :  cpu time      2.6601: real time      2.6603
    CORREC:  cpu time      4.9058: real time      4.9062
    EDDIAG:  cpu time      2.3053: real time      2.3057
    CHARGE:  cpu time      0.9922: real time      0.9922
    --------------------------------------------
      LOOP:  cpu time     12.6040: real time     12.6144

 eigenvalue-minimisations  :     0
 total energy-change (2. order) :-0.3984013E-06  (-0.1763866E-06)
 number of electron      11.0000003 magnetization       1.0000000
 augmentation part        4.2089959 magnetization      -0.2028812

 Free energy of the ion-electron system (eV)
  ---------------------------------------------------
  alpha Z        PSCENC =         0.14559951
  Ewald energy   TEWEN  =      -123.59085203
  -Hartree energ DENC   =      -769.85474223
  -exchange      EXHF   =        24.74018787
  -V(xc)+E(xc)   XCENC  =        10.59458460
  PAW double counting   =       947.02165948     -925.07209992
  entropy T*S    EENTRO =        -0.00000000
  eigenvalues    EBANDS =       -90.20293637
  atomic energy  EATOM  =       925.49212247
  ---------------------------------------------------
  free energy    TOTEN  =        -0.72639026 eV

  energy without entropy =       -0.72639026  energy(sigma->0) =       -0.72639026
  exchange ACFDT corr.  =        -0.00000000  see jH, gK, PRB 81, 115126


--------------------------------------------------------------------------------------------------------


  average scaling for gradient   1.4138


 average (electrostatic) potential at core
  the test charge radii are     1.2098
  (the norm of the test charge is              1.0000)
       1 -70.3416



 E-fermi :  -6.4622     XC(G=0):  -0.0808     alpha+bet : -0.0297

 Fermi energy:        -6.4622098638

 spin component 1

 k-point     1 :       0.0000    0.0000    0.0000
  band No.  band energies     occupation 
      1      -8.4919      1.00000
      2      -8.4918      1.00000
      3      -8.4918      1.00000
      4      -8.4918      1.00000
      5      -8.4918      1.00000
      6      -6.7073      1.00000
      7      -0.4246      0.00000
      8      -0.4246      0.00000
      9      -0.4245      0.00000
     10      -0.0047      0.00000
     11       0.3573      0.00000
     12       0.3897      0.00000
     13       0.3899      0.00000
     14       0.4401      0.00000
     15       0.4401      0.00000
     16       0.4402      0.00000
 Fermi energy:        -6.4622098638

 spin component 2

 k-point     1 :       0.0000    0.0000    0.0000
  band No.  band energies     occupation 
      1      -8.2078      1.00000
      2      -8.2078      1.00000
      3      -8.2077      1.00000
      4      -8.2077      1.00000
      5      -8.2077      1.00000
      6      -4.0621      0.00000
      7       0.0347      0.00000
      8       0.1392      0.00000
      9       0.1392      0.00000
     10       0.1392      0.00000
     11       0.4009      0.00000
     12       0.4010      0.00000
     13       0.4466      0.00000
     14       0.4939      0.00000
     15       0.4940      0.00000
     16       0.4940      0.00000


--------------------------------------------------------------------------------------------------------


 soft charge-density along one line, spin component           1
         0         1         2         3         4         5         6         7         8         9
 total charge-density along one line

 soft charge-density along one line, spin component           2
         0         1         2         3         4         5         6         7         8         9
 total charge-density along one line

 pseudopotential strength for first ion, spin component:           1
 -8.020   0.000   0.000  -0.000  -0.000  -8.186   0.000   0.000
  0.000  -8.020  -0.000  -0.000   0.000   0.000  -8.186  -0.000
  0.000  -0.000  -8.020   0.000   0.000   0.000  -0.000  -8.186
 -0.000  -0.000   0.000  -8.020   0.000  -0.000  -0.000   0.000
 -0.000   0.000   0.000   0.000  -8.020  -0.000   0.000   0.000
 -8.186   0.000   0.000  -0.000  -0.000  -8.337   0.000   0.000
  0.000  -8.186  -0.000  -0.000   0.000   0.000  -8.337  -0.000
  0.000  -0.000  -8.186   0.000   0.000   0.000  -0.000  -8.337
 -0.000  -0.000   0.000  -8.186   0.000  -0.000  -0.000   0.000
 -0.000   0.000   0.000   0.000  -8.186  -0.000   0.000  -0.000
  0.000   0.000   0.000  -0.000  -0.000   0.000   0.000   0.000
  0.000   0.000   0.000  -0.000  -0.000   0.000   0.000   0.000
  0.000   0.000   0.000  -0.000   0.000   0.000   0.000   0.000
 -0.000  -0.000   0.000   0.000  -0.000  -0.000  -0.000   0.000
 -0.000  -0.000   0.000   0.000  -0.000  -0.000  -0.000   0.000
  0.000   0.000   0.000  -0.000   0.000   0.000   0.000   0.000
 -0.000  -0.000   0.000   0.000  -0.000  -0.000  -0.000   0.000
 -0.000  -0.000   0.000   0.000  -0.000  -0.000  -0.000   0.000
 pseudopotential strength for first ion, spin component:           2
 -8.046   0.000   0.000  -0.000  -0.000  -8.213   0.000   0.000
  0.000  -8.046  -0.000  -0.000   0.000   0.000  -8.213  -0.000
  0.000  -0.000  -8.046   0.000   0.000   0.000  -0.000  -8.213
 -0.000  -0.000   0.000  -8.046   0.000  -0.000  -0.000   0.000
 -0.000   0.000   0.000   0.000  -8.046  -0.000   0.000   0.000
 -8.213   0.000   0.000  -0.000  -0.000  -8.363   0.000   0.000
  0.000  -8.213  -0.000  -0.000   0.000   0.000  -8.363  -0.000
  0.000  -0.000  -8.213   0.000   0.000   0.000  -0.000  -8.363
 -0.000  -0.000   0.000  -8.213   0.000  -0.000  -0.000   0.000
 -0.000   0.000   0.000   0.000  -8.213  -0.000   0.000  -0.000
  0.000   0.000   0.000  -0.000  -0.000   0.000   0.000   0.000
  0.000   0.000  -0.000  -0.000  -0.000   0.000   0.000   0.000
  0.000   0.000   0.000  -0.000   0.000   0.000   0.000   0.000
 -0.000  -0.000   0.000   0.000  -0.000  -0.000  -0.000   0.000
 -0.000  -0.000   0.000   0.000  -0.000  -0.000  -0.000   0.000
  0.000   0.000   0.000  -0.000   0.000   0.000   0.000   0.000
 -0.000  -0.000   0.000   0.000  -0.000  -0.000  -0.000   0.000
 -0.000  -0.000   0.000   0.000  -0.000  -0.000  -0.000   0.000
 total augmentation occupancy for first ion, spin component:           1
  2.202   0.000  -0.000   0.000   0.000  -0.106   0.000  -0.000   0.000   0.000  -0.000   0.000   0.000   0.000   0.000   0.000
  0.000   2.202  -0.000   0.000  -0.000   0.000  -0.106   0.000  -0.000   0.000  -0.000   0.000   0.000   0.000   0.000   0.000
 -0.000  -0.000   2.202   0.000   0.000   0.000   0.000  -0.106   0.000  -0.000   0.000   0.000   0.000   0.000   0.000   0.000
  0.000   0.000   0.000   2.202   0.000   0.000   0.000   0.000  -0.106  -0.000   0.000   0.000   0.000   0.000   0.000   0.000
  0.000  -0.000   0.000   0.000   2.202  -0.000  -0.000  -0.000  -0.000  -0.106   0.000   0.000   0.000   0.000   0.000   0.000
 -0.106   0.000   0.000   0.000  -0.000   0.024   0.000   0.000   0.000  -0.000   0.000   0.000   0.000   0.000   0.000   0.000
  0.000  -0.106   0.000   0.000  -0.000   0.000   0.024  -0.000  -0.000   0.000   0.000   0.000   0.000   0.000   0.000   0.000
 -0.000   0.000  -0.106   0.000  -0.000   0.000  -0.000   0.024  -0.000   0.000  -0.000   0.000   0.000   0.000   0.000   0.000
  0.000  -0.000   0.000  -0.106  -0.000   0.000  -0.000  -0.000   0.024   0.000   0.000  -0.000   0.000   0.000   0.000   0.000
  0.000   0.000  -0.000  -0.000  -0.106  -0.000   0.000   0.000   0.000   0.024   0.000   0.000   0.000   0.000   0.000   0.000
 -0.000  -0.000   0.000   0.000   0.000   0.000   0.000  -0.000   0.000   0.000   2.533  -0.666   0.000   0.000   0.000   0.000
  0.000   0.000   0.000   0.000   0.000   0.000   0.000   0.000  -0.000   0.000  -0.666   0.175   0.000   0.000   0.000   0.000
  0.000   0.000   0.000   0.000   0.000   0.000   0.000   0.000   0.000   0.000   0.000   0.000   0.000   0.000   0.000  -0.000
  0.000   0.000   0.000   0.000   0.000   0.000   0.000   0.000   0.000   0.000   0.000   0.000   0.000   0.000   0.000   0.000
  0.000   0.000   0.000   0.000   0.000   0.000   0.000   0.000   0.000   0.000   0.000   0.000   0.000   0.000   0.000   0.000
  0.000   0.000   0.000   0.000   0.000   0.000   0.000   0.000   0.000   0.000   0.000   0.000  -0.000   0.000   0.000   0.000
  0.000   0.000   0.000   0.000   0.000   0.000   0.000   0.000   0.000   0.000   0.000   0.000   0.000  -0.000  -0.000   0.000
  0.000   0.000   0.000   0.000   0.000   0.000   0.000   0.000   0.000   0.000   0.000   0.000   0.000   0.000  -0.000   0.000
 total augmentation occupancy for first ion, spin component:           2
 -0.440   0.000   0.000   0.000   0.000   0.222   0.000   0.000   0.000  -0.000   0.000   0.000   0.000   0.000   0.000   0.000
  0.000  -0.440   0.000   0.000   0.000   0.000   0.222  -0.000   0.000   0.000   0.000   0.000   0.000   0.000   0.000   0.000
  0.000   0.000  -0.440   0.000  -0.000   0.000   0.000   0.222   0.000   0.000   0.000  -0.000   0.000   0.000   0.000   0.000
  0.000   0.000   0.000  -0.440  -0.000   0.000   0.000  -0.000   0.222   0.000  -0.000  -0.000   0.000   0.000   0.000   0.000
  0.000   0.000  -0.000  -0.000  -0.440  -0.000   0.000   0.000  -0.000   0.222   0.000   0.000   0.000   0.000   0.000   0.000
  0.222   0.000   0.000   0.000  -0.000  -0.017   0.000  -0.000   0.000  -0.000   0.000   0.000   0.000   0.000   0.000   0.000
  0.000   0.222   0.000   0.000   0.000   0.000  -0.017  -0.000   0.000   0.000   0.000   0.000   0.000   0.000   0.000   0.000
  0.000  -0.000   0.222  -0.000   0.000  -0.000  -0.000  -0.017  -0.000  -0.000  -0.000   0.000   0.000   0.000   0.000   0.000
  0.000   0.000   0.000   0.222  -0.000   0.000   0.000  -0.000  -0.017   0.000  -0.000   0.000   0.000   0.000   0.000   0.000
 -0.000   0.000   0.000   0.000   0.222  -0.000   0.000  -0.000   0.000  -0.017   0.000   0.000   0.000   0.000   0.000   0.000
  0.000   0.000   0.000  -0.000   0.000   0.000   0.000  -0.000  -0.000   0.000   2.533  -0.666   0.000   0.000   0.000   0.000
  0.000   0.000  -0.000  -0.000   0.000   0.000   0.000   0.000   0.000   0.000  -0.666   0.175   0.000   0.000   0.000   0.000
  0.000   0.000   0.000   0.000   0.000   0.000   0.000   0.000   0.000   0.000   0.000   0.000   0.000  -0.000   0.000  -0.000
  0.000   0.000   0.000   0.000   0.000   0.000   0.000   0.000   0.000   0.000   0.000   0.000  -0.000   0.000   0.000   0.000
  0.000   0.000   0.000   0.000   0.000   0.000   0.000   0.000   0.000   0.000   0.000   0.000   0.000   0.000   0.000  -0.000
  0.000   0.000   0.000   0.000   0.000   0.000   0.000   0.000   0.000   0.000   0.000   0.000  -0.000   0.000  -0.000   0.000
  0.000   0.000   0.000   0.000   0.000   0.000   0.000   0.000   0.000   0.000   0.000   0.000  -0.000  -0.000  -0.000  -0.000
  0.000   0.000   0.000   0.000   0.000   0.000   0.000   0.000   0.000   0.000   0.000   0.000  -0.000   0.000  -0.000  -0.000


------------------------ aborting loop because EDIFF is reached ----------------------------------------


    FORLOC:  cpu time      0.0105: real time      0.0105
    FORHF :  cpu time      0.9503: real time      0.9506
    FORNL :  cpu time      0.4072: real time      0.4079
    FORCOR:  cpu time      1.6193: real time      1.6193
    OFIELD:  cpu time      0.0081: real time      0.0081
 -----------------------------------------------------------------------------
|                                                                             |
|           W    W    AA    RRRRR   N    N  II  N    N   GGGG   !!!           |
|           W    W   A  A   R    R  NN   N  II  NN   N  G    G  !!!           |
|           W    W  A    A  R    R  N N  N  II  N N  N  G       !!!           |
|           W WW W  AAAAAA  RRRRR   N  N N  II  N  N N  G  GGG   !            |
|           WW  WW  A    A  R   R   N   NN  II  N   NN  G    G                |
|           W    W  A    A  R    R  N    N  II  N    N   GGGG   !!!           |
|                                                                             |
|     Specifying the vdW parameters                                           |
|     VDW_A1 = 0.414                                                          |
|     VDW_A2 = 4.859                                                          |
|     VDW_S8 = 1.218                                                          |
|     in the INCAR file will overwrite the defaults for pbe0. Please make     |
|     sure that is what you intended.                                         |
|                                                                             |
 -----------------------------------------------------------------------------


 ---------------------------------------------------------------------------------------------

         DFTD3 V3.0 Rev 1        
 IVDW         = 12
 DF pbe0      
 parameters
 VDW_S6       =    1.0000
 VDW_S8       =    1.2177
 VDW_A1       =    0.4145
 VDW_A2       =    4.8593
 k1-k3        =   16.0000    1.3333   -4.0000
 VDW_RADIUS   =   50.2022 A
 VDW_CNRADIUS =   21.1671 A
 Edisp (eV)   -0.00001

 E6    (eV) :    -0.0000
 E8    (eV) :    -0.0000
 % E8        :  6.58
    FORVDW:  cpu time      0.0039: real time      0.0041

 VOLUME and BASIS-vectors are now :
 -----------------------------------------------------------------------------
  energy-cutoff  :      520.00
  volume of cell :     8000.00
      direct lattice vectors                 reciprocal lattice vectors
    20.000000000  0.000000000  0.000000000     0.050000000  0.000000000  0.000000000
     0.000000000 20.000000000  0.000000000     0.000000000  0.050000000  0.000000000
     0.000000000  0.000000000 20.000000000     0.000000000  0.000000000  0.050000000

  length of vectors
    20.000000000 20.000000000 20.000000000     0.050000000  0.050000000  0.050000000


 FORCES acting on ions:
    Electron-Ion                     Ewald-Force                    Non-Local-Force
 -----------------------------------------------------------------------------------------------
   0.362E-12 0.800E-10 -.645E-10   0.106E-16 -.303E-16 -.392E-16   0.000E+00 0.000E+00 -.318E-21
 -----------------------------------------------------------------------------------------------
   0.369E-12 0.828E-10 -.670E-10   0.106E-16 -.303E-16 -.392E-16   0.000E+00 0.000E+00 -.318E-21


 POSITION                                       TOTAL-FORCE (eV/Angst)
 -----------------------------------------------------------------------------------
      9.00000      9.20000     12.00000         0.000000      0.000000      0.000000
 -----------------------------------------------------------------------------------
    total drift:                                0.000000      0.000000     -0.000000


--------------------------------------------------------------------------------------------------------



  FREE ENERGIE OF THE ION-ELECTRON SYSTEM (eV)
  ---------------------------------------------------
  free  energy   TOTEN  =        -0.72640425 eV

  energy  without entropy=       -0.72640425  energy(sigma->0) =       -0.72640425



--------------------------------------------------------------------------------------------------------


    POTLOK:  cpu time      1.7429: real time      1.7430


--------------------------------------------------------------------------------------------------------


     LOOP+:  cpu time    123.7371: real time    124.0408
    4ORBIT:  cpu time      0.0000: real time      0.0000

 total amount of memory used by VASP MPI-rank0   458083. kBytes
=======================================================================

   base      :      30000. kBytes
   nonlr-proj:        678. kBytes
   fftplans  :      75804. kBytes
   grid      :     133718. kBytes
   one-center:         31. kBytes
   HF        :         64. kBytes
   wavefun   :      10350. kBytes
   fock_wrk  :     207438. kBytes

  
  
 General timing and accounting informations for this job:
 ========================================================
  
                  Total CPU time used (sec):      131.993
                            User time (sec):      127.501
                          System time (sec):        4.492
                         Elapsed time (sec):      133.825
  
                   Maximum memory used (kb):      595848.
                   Average memory used (kb):          N/A
  
                          Minor page faults:       892465
                          Major page faults:           54
                 Voluntary context switches:         2015
