 vasp.6.4.1 05Apr23 (build May 06 2023 19:47:20) complex                        
  
 executed on             LinuxIFC date 2023.07.05  11:06:32
 running  768 mpi-ranks, with    1 threads/rank, on   48 nodes
 distrk:  each k-point on  768 cores,    1 groups
 distr:  one band on NCORE=  16 cores,   48 groups


--------------------------------------------------------------------------------------------------------


 INCAR:
   SYSTEM = MgO-rocksalt
   ISMEAR = 0
   SIGMA = 0.05
   EDIFF = 1E-6
   ALGO = ALL
   ISTART = 0
   IBRION = -1
   NSW = 0
   ISYM = 2
   DIPOL = 0.5 0.5 0.5
   IDIPOL = 3
   LDIPOL = .TRUE.
   LHFCALC = .TRUE.
   GGA = B5
   AEXX = 0.2
   AGGAX = 0.72
   AGGAC = 0.81
   ALDAC = 0.19
   IVDW = 11
   VDW_S6 = 1.0
   VDW_SR = 1.261
   VDW_S8 = 1.703
   ENCUT = 520
   PREC = Accurate
   LASPH = .TRUE.
   LREAL = Auto
   ISPIN = 1
   NELM = 200
   NELMIN = 8
   NCORE = 16
   KPAR = 1
   LWAVE = .FALSE.
   LCHARG = .FALSE.

 POTCAR:    PAW_PBE Ag 02Apr2005                  
 -----------------------------------------------------------------------------
|                                                                             |
|           W    W    AA    RRRRR   N    N  II  N    N   GGGG   !!!           |
|           W    W   A  A   R    R  NN   N  II  NN   N  G    G  !!!           |
|           W    W  A    A  R    R  N N  N  II  N N  N  G       !!!           |
|           W WW W  AAAAAA  RRRRR   N  N N  II  N  N N  G  GGG   !            |
|           WW  WW  A    A  R   R   N   NN  II  N   NN  G    G                |
|           W    W  A    A  R    R  N    N  II  N    N   GGGG   !!!           |
|                                                                             |
|     You have selected ISYM=2 for a HF type calculation. This will           |
|     symmetrize the charge density but not the exchange potential. I         |
|     suggest to use ISYM=3 instead. This uses symmetry to obtain the         |
|     orbitals at all k-points in the Brillouin zone, but does not apply      |
|     symmetry to the Hartree potential directly. The resultant charge        |
|     might have lower symmetry than the crystal but, at least, Hartree       |
|     and exchange are fully compatible.                                      |
|                                                                             |
 -----------------------------------------------------------------------------

 POTCAR:    PAW_PBE Ag 02Apr2005                  
   SHA256 =  6550cfa3543261e132c169e1b98a529204624d72be14e2da2e0242bcb74a174d Ag/POTCAR             
   COPYR  = (c) Copyright 02Apr2005 Georg Kresse                                                    
   COPYR  = This file is part of the software VASP. Any use, copying, and all other rights are regul
   COPYR  = If you do not have a valid VASP license, you may not use, copy or distribute this file. 
   VRHFIN =Ag : s1 d10                                                                              
   LEXCH  = PE                                                                                      
   EATOM  =  1037.2675 eV,   76.2370 Ry                                                             
                                                                                                    
   TITEL  = PAW_PBE Ag 02Apr2005                                                                    
   LULTRA =        F    use ultrasoft PP ?                                                          
   IUNSCR =        1    unscreen: 0-lin 1-nonlin 2-no                                               
   RPACOR =    2.000    partial core radius                                                         
   POMASS =  107.868; ZVAL   =   11.000    mass and valenz                                          
   RCORE  =    2.500    outmost cutoff radius                                                       
   RWIGS  =    2.840; RWIGS  =    1.503    wigner-seitz radius (au A)                               
   ENMAX  =  249.844; ENMIN  =  187.383 eV                                                          
   ICORE  =        3    local potential                                                             
   LCOR   =        T    correct aug charges                                                         
   LPAW   =        T    paw PP                                                                      
   EAUG   =  412.496                                                                                
   DEXC   =    0.000                                                                                
   RMAX   =    2.560    core radius for proj-oper                                                   
   RAUG   =    1.300    factor for augmentation sphere                                              
   RDEP   =    2.576    radius for radial grids                                                     
   RDEPT  =    2.072    core radius for aug-charge                                                  
                                                                                                    
   Atomic configuration                                                                             
   12 entries                                                                                       
     n  l   j            E        occ.                                                              
     1  0  0.50    -25324.9161   2.0000                                                             
     2  0  0.50     -3728.5341   2.0000                                                             
     2  1  1.50     -3344.0404   6.0000                                                             
     3  0  0.50      -683.5581   2.0000                                                             
     3  1  1.50      -557.3225   6.0000                                                             
     3  2  2.50      -358.3853  10.0000                                                             
     4  0  0.50       -95.0341   2.0000                                                             
     4  1  1.50       -58.5511   6.0000                                                             
     4  2  2.50        -7.4440  10.0000                                                             
     5  0  0.50        -4.4045   1.0000                                                             
     5  1  0.50        -1.3606   0.0000                                                             
     4  3  2.50        -1.3606   0.0000                                                             
   Description                                                                                      
     l       E           TYP  RCUT    TYP  RCUT                                                     
     2     -7.4439781     23  2.400                                                                 
     2     -8.8045607     23  2.400                                                                 
     0     -4.4044681     23  2.400                                                                 
     0      1.9520038     23  2.400                                                                 
     1     -1.3605826     23  2.500                                                                 
     1     27.2116520     23  2.500                                                                 
     3     -4.0817478     23  2.400                                                                 
  local pseudopotential read in
  partial core-charges read in
  partial kinetic energy density read in
  atomic valenz-charges read in
  non local Contribution for L=           2  read in
    real space projection operators read in
  non local Contribution for L=           2  read in
    real space projection operators read in
  non local Contribution for L=           0  read in
    real space projection operators read in
  non local Contribution for L=           0  read in
    real space projection operators read in
  non local Contribution for L=           1  read in
    real space projection operators read in
  non local Contribution for L=           1  read in
    real space projection operators read in
    PAW grid and wavefunctions read in
 
   number of l-projection  operators is LMAX  =           6
   number of lm-projection operators is LMMAX =          18
 
 -----------------------------------------------------------------------------
|                                                                             |
|               ----> ADVICE to this user running VASP <----                  |
|                                                                             |
|     You have a (more or less) 'small supercell' and for smaller cells       |
|     it is recommended to use the reciprocal-space projection scheme!        |
|     The real-space optimization is not efficient for small cells and it     |
|     is also less accurate ...                                               |
|     Therefore, set LREAL=.FALSE. in the INCAR file.                         |
|                                                                             |
 -----------------------------------------------------------------------------

 Optimization of the real space projectors (new method)

 maximal supplied QI-value         = 15.12
 optimisation between [QCUT,QGAM] = [ 11.64, 23.28] = [ 37.95,151.78] Ry 
 Optimized for a Real-space Cutoff    1.45 Angstroem

   l    n(q)    QCUT    max X(q) W(low)/X(q) W(high)/X(q)  e(spline) 
   2      9    11.641    53.897    0.22E-03    0.42E-04    0.28E-06
   2      9    11.641    52.416    0.23E-03    0.44E-04    0.29E-06
   0     10    11.641   122.045    0.51E-04    0.25E-04    0.16E-06
   0     10    11.641    73.629    0.49E-04    0.24E-04    0.16E-06
   1     10    11.641    15.255    0.99E-04    0.55E-04    0.11E-06
   1     10    11.641     9.562    0.81E-04    0.47E-04    0.95E-07
 -----------------------------------------------------------------------------
|                                                                             |
|               ----> ADVICE to this user running VASP <----                  |
|                                                                             |
|     You enforced a specific xc type in the INCAR file but a different       |
|     type was found in the POTCAR file.                                      |
|     I HOPE YOU KNOW WHAT YOU ARE DOING!                                     |
|                                                                             |
 -----------------------------------------------------------------------------

  PAW_PBE Ag 02Apr2005                  :
 energy of atom  1       EATOM=-1037.2675
 kinetic energy error for atom=    0.0047 (will be added to EATOM!!)
 
 
 POSCAR: Ag Mg  O
  positions in direct lattice
  No initial velocities read in
 exchange correlation table for  LEXCH =       12
   RHO(1)=    0.500       N(1)  =     2000
   RHO(2)=  100.500       N(2)  =     4000
 


--------------------------------------------------------------------------------------------------------


 ion  position               nearest neighbor table
   1  0.286  0.505  0.630-   2 2.73   3 2.73
   2  0.398  0.441  0.622-   3 2.68   4 2.73   1 2.73
   3  0.398  0.568  0.615-   2 2.68   1 2.73   4 2.73
   4  0.510  0.505  0.629-   2 2.73   3 2.73
 
  LATTYP: Found a simple tetragonal cell.
 ALAT       =    21.1388521970
 C/A-ratio  =     1.0461251639
  
  Lattice vectors:
  
 A1 = (  21.1388521970,   0.0000000000,   0.0000000000)
 A2 = (   0.0000000000,  21.1388521970,   0.0000000000)
 A3 = (   0.0000000000,   0.0000000000,  22.1138852197)


Analysis of symmetry for initial positions (statically):
=====================================================================
 Subroutine PRICEL returns:
 Original cell was already a primitive cell.
 

 Routine SETGRP: Setting up the symmetry group for a 
 simple tetragonal supercell.


 Subroutine GETGRP returns: Found  1 space group operations
 (whereof  1 operations were pure point group operations)
 out of a pool of 16 trial point group operations.


The static configuration has the point symmetry C_1 .


Analysis of symmetry for dynamics (positions and initial velocities):
=====================================================================
 Subroutine PRICEL returns:
 Original cell was already a primitive cell.
 

 Routine SETGRP: Setting up the symmetry group for a 
 simple tetragonal supercell.


 Subroutine GETGRP returns: Found  1 space group operations
 (whereof  1 operations were pure point group operations)
 out of a pool of 16 trial point group operations.


The dynamic configuration has the point symmetry C_1 .


Analysis of constrained symmetry for selective dynamics:
=====================================================================
 Subroutine PRICEL returns:
 Original cell was already a primitive cell.
 

 Routine SETGRP: Setting up the symmetry group for a 
 simple tetragonal supercell.


 Subroutine GETGRP returns: Found  1 space group operations
 (whereof  1 operations were pure point group operations)
 out of a pool of 16 trial point group operations.


The constrained configuration has the point symmetry C_1 .


 Subroutine INISYM returns: Found  1 space group operations
 (whereof  1 operations are pure point group operations),
 and found     1 'primitive' translations


----------------------------------------------------------------------------------------

                                     Primitive cell                                     

  volume of cell :    9881.6133

  direct lattice vectors                    reciprocal lattice vectors
    21.138852197  0.000000000  0.000000000     0.047306258  0.000000000  0.000000000
     0.000000000 21.138852197  0.000000000     0.000000000  0.047306258  0.000000000
     0.000000000  0.000000000 22.113885220     0.000000000  0.000000000  0.045220457

  length of vectors
    21.138852197 21.138852197 22.113885220     0.047306258  0.047306258  0.045220457

  position of ions in fractional coordinates (direct lattice)
     0.285624611  0.505285429  0.629857969
     0.397515318  0.441309787  0.621723730
     0.397782759  0.567771369  0.615378518
     0.509772545  0.504527893  0.628685236

  ion indices of the primitive-cell ions
   primitive index   ion index
                 1           1
                 2           2
                 3           3
                 4           4

----------------------------------------------------------------------------------------

 
 
 KPOINTS: KPOINTS created by Atomic Simulation Env

Automatic generation of k-mesh.
 Grid dimensions read from file:
 generate k-points for:    1    1    1

 Generating k-lattice:

  Cartesian coordinates                     Fractional coordinates (reciprocal lattice)
     0.047306258  0.000000000  0.000000000     1.000000000  0.000000000  0.000000000
     0.000000000  0.047306258  0.000000000     0.000000000  1.000000000  0.000000000
     0.000000000  0.000000000  0.045220457     0.000000000  0.000000000  1.000000000

  Length of vectors
     0.047306258  0.047306258  0.045220457

  Shift w.r.t. Gamma in fractional coordinates (k-lattice)
     0.000000000  0.000000000  0.000000000

 
 Subroutine IBZKPT returns following result:
 ===========================================
 
 Found      1 irreducible k-points:
 
 Following reciprocal coordinates:
            Coordinates               Weight
  0.000000  0.000000  0.000000      1.000000
 
 Following cartesian coordinates:
            Coordinates               Weight
  0.000000  0.000000  0.000000      1.000000
 
 
 Subroutine IBZKPT_HF returns following result:
 ==============================================
 
 Found      1 k-points in 1st BZ
 the following      1 k-points will be used (e.g. in the exchange kernel)
 Following reciprocal coordinates:   # in IRBZ
  0.000000  0.000000  0.000000    1.00000000   1 t-inv F


--------------------------------------------------------------------------------------------------------




 Dimension of arrays:
   k-points           NKPTS =      1   k-points in BZ     NKDIM =      1   number of bands    NBANDS=     48
   number of dos      NEDOS =    301   number of ions     NIONS =      4
   non local maximal  LDIM  =      6   non local SUM 2l+1 LMDIM =     18
   total plane-waves  NPLWV = ******
   max r-space proj   IRMAX =   5559   max aug-charges    IRDMAX=  21597
   dimension x,y,z NGX =   160 NGY =  160 NGZ =  168
   dimension x,y,z NGXF=   320 NGYF=  320 NGZF=  336
   support grid    NGXF=   320 NGYF=  320 NGZF=  336
   ions per type =               4
   NGX,Y,Z   is equivalent  to a cutoff of  12.58, 12.58, 12.63 a.u.
   NGXF,Y,Z  is equivalent  to a cutoff of  25.17, 25.17, 25.26 a.u.

 SYSTEM =  MgO-rocksalt                            
 POSCAR =  Ag Mg  O                                

 Startparameter for this run:
   NWRITE =      2    write-flag & timer
   PREC   = accura    normal or accurate (medium, high low for compatibility)
   ISTART =      0    job   : 0-new  1-cont  2-samecut
   ICHARG =      2    charge: 1-file 2-atom 10-const
   ISPIN  =      1    spin polarized calculation?
   LNONCOLLINEAR =      F non collinear calculations
   LSORBIT =      F    spin-orbit coupling
   INIWAV =      1    electr: 0-lowe 1-rand  2-diag
   LASPH  =      T    aspherical Exc in radial PAW
 Electronic Relaxation 1
   ENCUT  =  520.0 eV  38.22 Ry    6.18 a.u.  39.30 39.30 41.12*2*pi/ulx,y,z
   ENINI  =  520.0     initial cutoff
   ENAUG  =  412.5 eV  augmentation charge cutoff
   NELM   =    200;   NELMIN=  8; NELMDL= -5     # of ELM steps 
   EDIFF  = 0.1E-05   stopping-criterion for ELM
   LREAL  =      T    real-space projection
   NLSPLINE    = F    spline interpolate recip. space projectors
   LCOMPAT=      F    compatible to vasp.4.4
   GGA_COMPAT  = T    GGA compatible to vasp.4.4-vasp.4.6
   LMAXPAW     = -100 max onsite density
   LMAXMIX     =    2 max onsite mixed and CHGCAR
   VOSKOWN=      0    Vosko Wilk Nusair interpolation
   ROPT   =   -0.00025
 Ionic relaxation
   EDIFFG = 0.1E-04   stopping-criterion for IOM
   NSW    =      0    number of steps for IOM
   NBLOCK =      1;   KBLOCK =      1    inner block; outer block 
   IBRION =     -1    ionic relax: 0-MD 1-quasi-New 2-CG
   NFREE  =      0    steps in history (QN), initial steepest desc. (CG)
   ISIF   =      0    stress and relaxation
   IWAVPR =     10    prediction:  0-non 1-charg 2-wave 3-comb
   ISYM   =      2    0-nonsym 1-usesym 2-fastsym
   LCORR  =      T    Harris-Foulkes like correction to forces

   POTIM  = 0.5000    time-step for ionic-motion
   TEIN   =    0.0    initial temperature
   TEBEG  =    0.0;   TEEND  =   0.0 temperature during run
   SMASS  =  -3.00    Nose mass-parameter (am)
   estimated Nose-frequenzy (Omega)   =  0.10E-29 period in steps = 0.13E+47 mass=  -0.102E-25a.u.
   SCALEE = 1.0000    scale energy and forces
   NPACO  =    256;   APACO  = 10.0  distance and # of slots for P.C.
   PSTRESS=    0.0 pullay stress

  Mass of Ions in am
   POMASS = 107.87
  Ionic Valenz
   ZVAL   =  11.00
  Atomic Wigner-Seitz radii
   RWIGS  =  -1.00
  virtual crystal weights 
   VCA    =   1.00
   NELECT =      44.0000    total number of electrons
   NUPDOWN=      -1.0000    fix difference up-down

 DOS related values:
   EMIN   =  10.00;   EMAX   =-10.00  energy-range for DOS
   EFERMI =   0.00;   METHOD = LEGACY      
   ISMEAR =     0;   SIGMA  =   0.05  broadening in eV -4-tet -1-fermi 0-gaus

 Electronic relaxation 2 (details)
   IALGO  =     58    algorithm
   LDIAG  =      T    sub-space diagonalisation (order eigenvalues)
   LSUBROT=      F    optimize rotation matrix (better conditioning)
   TURBO    =      0    0=normal 1=particle mesh
   IRESTART =      0    0=no restart 2=restart with 2 vectors
   NREBOOT  =      0    no. of reboots
   NMIN     =      0    reboot dimension
   EREF     =   0.00    reference energy to select bands
   IMIX   =      4    mixing-type and parameters
     AMIX     =   0.40;   BMIX     =  1.00
     AMIX_MAG =   1.60;   BMIX_MAG =  1.00
     AMIN     =   0.10
     WC   =   100.;   INIMIX=   1;  MIXPRE=   1;  MAXMIX= -45

 Intra band minimization:
   WEIMIN = 0.0000     energy-eigenvalue tresh-hold
   EBREAK =  0.52E-08  absolut break condition
   DEPER  =   0.30     relativ break condition  

   TIME   =   0.40     timestep for ELM

  volume/ion in A,a.u.               =    2470.40     16671.10
  Fermi-wavevector in a.u.,A,eV,Ry     =   0.269329  0.508958  0.986941  0.072538
  Thomas-Fermi vector in A             =   1.106612
 
 Write flags
   LWAVE        =      F    write WAVECAR
   LDOWNSAMPLE  =      F    k-point downsampling of WAVECAR
   LCHARG       =      F    write CHGCAR
   LVTOT        =      F    write LOCPOT, total local potential
   LVHAR        =      F    write LOCPOT, Hartree potential only
   LELF         =      F    write electronic localiz. function (ELF)
   LORBIT       =      0    0 simple, 1 ext, 2 COOP (PROOUT), +10 PAW based schemes


 Dipole corrections
   LMONO  =      F    monopole corrections only (constant potential shift)
   LDIPOL =      T    correct potential (dipole corrections)
   IDIPOL =      3    1-x, 2-y, 3-z, 4-all directions 
   EPSILON=  1.0000000 bulk dielectric constant

 Exchange correlation treatment:
   GGA     =    B5    GGA type
   LEXCH   =    12    internal setting for exchange type
   LIBXC   =     F    Libxc                    
   VOSKOWN =     0    Vosko Wilk Nusair interpolation
   EXXOEP  =     0    0=HF, 1=EXX-LHF (local Hartree Fock) 2=EXX OEP
   LHFCALC =     T    Hartree Fock is set to
   LSYMGRAD=     F    symmetrize gradient (conserves proper symmetry)
   PRECFOCK=normal    Normal, Fast or Accurate (Low or Medium for compatibility)
   LRHFCALC=     F    long range Hartree Fock
   LRSCOR  =     F    long range correlation only (use DFT for short range part)
   LTHOMAS =     F    Thomas Fermi screening in HF
   LMODELHF=     F    short range full HF, long range fraction AEXX
   FOCKCORR=     1    mode to apply convergence corrections
   LFOCKACE=     T    use Adeptively-Compressed-Exchange operator
   ENCUT4O =  -1.0   cutoff for four orbital integrals eV
   LMAXFOCK=     4    L truncation for augmentation on plane wave grid
   LMAXFOCKAE=  -1    L truncation for all-electron charge restoration on plane wave grid
   NMAXFOCKAE=   1    number of basis functions for all-electron charge restoration
   LFOCKAEDFT=     F  apply the AE augmentation even for DFT
   NKREDX  =     1    reduce k-point grid by
   NKREDY  =     1    reduce k-point grid by
   NKREDZ  =     1    reduce k-point grid by
   SHIFTRED=     F    shift reduced grid of Gamma
   HFKIDENT=     F    idential grid for each k-point
   ODDONLY =     F    use only odd q-grid points
   EVENONLY=     F    use only even q-grid points
   HFALPHA =   -1.0000 decay constant for conv. correction
   MCALPHA =    0.0000 extent of test-charge in conv. correction in multipole expansion
   AEXX    =    0.2000 exact exchange contribution
   HFSCREEN=    0.0000 screening length (either q_TF or 0.3 A-1)
   HFSCREENC=   0.0000 screening length for correlation (either q_TF or 0.3 A-1)
   HFRCUT  =    0.0000 spherical cutoff for potential kernel
   ALDAX   =    0.8000 LDA exchange part
   AGGAX   =    0.7200 GGA exchange part
   ALDAC   =    0.1900 LDA correlation
   AGGAC   =    0.8100 GGA correlation
   ENCUTFOCK=  -1.0 apply spherical cutoff to Coloumb kernel
   NBANDSGWLOW=     1    first orbital included in HF term
   NBLOCK_FOCK=    64    blocking factor in FOCK_ACC

 Linear response parameters
   LEPSILON=     F    determine dielectric tensor
   LRPA    =     F    only Hartree local field effects (RPA)
   LNABLA  =     F    use nabla operator in PAW spheres
   LVEL    =     F    velocity operator in full k-point grid
   CSHIFT  =0.1000    complex shift for real part using Kramers Kronig
   OMEGAMAX=  -1.0    maximum frequency
   DEG_THRESHOLD= 0.2000000E-02 threshold for treating states as degnerate
   RTIME   =   -0.100 relaxation time in fs
  (WPLASMAI=    0.000 imaginary part of plasma frequency in eV, 0.658/RTIME)
   DFIELD  = 0.0000000 0.0000000 0.0000000 field for delta impulse in time
 
  Optional k-point grid parameters
   LKPOINTS_OPT  =     F    use optional k-point grid
   KPOINTS_OPT_MODE=     1    mode for optional k-point grid
 
 Orbital magnetization related:
   ORBITALMAG=     F  switch on orbital magnetization
   LCHIMAG   =     F  perturbation theory with respect to B field
   DQ        =  0.001000  dq finite difference perturbation B field
   LLRAUG    =     F  two centre corrections for induced B field
   LBONE     =     F  B-component reconstruction in AE one-centre
   LVGVCALC  =     T  calculate vGv susceptibility
   LVGVAPPL  =     F  apply vGv susceptibility instead of pGv for G=0

 Random number generation:
   RANDOM_GENERATOR = DEFAULT
   PCG_SEED         = not used


--------------------------------------------------------------------------------------------------------


 Static calculation
 charge density and potential will be updated during run
 non-spin polarized calculation
 Conjugate gradient for all bands (Freysoldt, et al. PRB 79, 241103 (2009))
 preconditioned conjugated gradient                                        
 perform sub-space diagonalisation
    before iterative eigenvector-optimisation
 modified Broyden-mixing scheme, WC =      100.0
 initial mixing is a Kerker type mixing with AMIX =  0.4000 and BMIX =      1.0000
 Hartree-type preconditioning will be used
 using additional bands           26
 real space projection scheme for non local part
 use partial core corrections
 no Harris-corrections to forces 
 use gradient corrections 
 use of overlap-Matrix (Vanderbilt PP)
 Gauss-broadening in eV      SIGMA  =   0.05


--------------------------------------------------------------------------------------------------------


  energy-cutoff  :      520.00
  volume of cell :     9881.61
      direct lattice vectors                 reciprocal lattice vectors
    21.138852197  0.000000000  0.000000000     0.047306258  0.000000000  0.000000000
     0.000000000 21.138852197  0.000000000     0.000000000  0.047306258  0.000000000
     0.000000000  0.000000000 22.113885220     0.000000000  0.000000000  0.045220457

  length of vectors
    21.138852197 21.138852197 22.113885220     0.047306258  0.047306258  0.045220457


 
 k-points in units of 2pi/SCALE and weight: KPOINTS created by Atomic Simulation Env
   0.00000000  0.00000000  0.00000000       1.000
 
 k-points in reciprocal lattice and weights: KPOINTS created by Atomic Simulation Env
   0.00000000  0.00000000  0.00000000       1.000
 
 position of ions in fractional coordinates (direct lattice) 
   0.28562461  0.50528543  0.62985797
   0.39751532  0.44130979  0.62172373
   0.39778276  0.56777137  0.61537852
   0.50977254  0.50452789  0.62868524
 
 position of ions in cartesian coordinates  (Angst):
   6.03777643 10.68115399 13.92860684
   8.40301756  9.32878237 13.74872719
   8.40867095 12.00203505 13.60840992
  10.77600648 10.66514057 13.90267314
 


--------------------------------------------------------------------------------------------------------


 k-point   1 :   0.0000 0.0000 0.0000  plane waves:  265979

 maximum and minimum number of plane-waves per node :     16635    16606

 maximum number of plane-waves:    265979
 maximum index in each direction: 
   IXMAX=   39   IYMAX=   39   IZMAX=   41
   IXMIN=  -39   IYMIN=  -39   IZMIN=  -41


 real space projection operators:
  total allocation   :       3010.92 KBytes
  max/ min on nodes  :        205.31        175.22


 parallel 3D FFT for wavefunctions:
    minimum data exchange during FFTs selected (reduces bandwidth)
 parallel 3D FFT for charge:
    minimum data exchange during FFTs selected (reduces bandwidth)


 FFT grid for exact exchange (Hartree Fock) 
  NGX =120; NGY =120; NGZ =126

 
 Radii for the augmentation spheres in the non-local exchange
 for species   1 augmentation radius   1.406 (default was   1.125)
       energy cutoff for augmentation   2080.0

 real space projection operators:
  total allocation   :       1672.27 KBytes
  max/ min on nodes  :        147.46         47.07

 Maximum index for augmentation-charges in exchange          199
  SETUP_FOCK is finished

 total amount of memory used by VASP MPI-rank0    66186. kBytes
=======================================================================

   base      :      30000. kBytes
   nonlr-proj:        960. kBytes
   fftplans  :      18387. kBytes
   grid      :      15959. kBytes
   one-center:         15. kBytes
   HF        :         64. kBytes
   wavefun   :        801. kBytes
 
     INWAV:  cpu time      0.0001: real time      0.0001
 Broyden mixing: mesh for mixing (old mesh)
   NGX = 79   NGY = 79   NGZ = 83
  (NGX  =320   NGY  =320   NGZ  =336)
  gives a total of 518003 points

 initial charge density was supplied:
 charge density of overlapping atoms calculated
 number of electron      44.0000000 magnetization 
 keeping initial charge density in first step


--------------------------------------------------------------------------------------------------------


 Maximum index for non-local projection operator          373
 Maximum index for augmentation-charges            0 (set IRDMAX)


--------------------------------------------------------------------------------------------------------


    FEWALD:  cpu time      0.0095: real time      0.0095


--------------------------------------- Ionic step        1  -------------------------------------------




--------------------------------------- Iteration      1(   1)  ---------------------------------------


    POTLOK:  cpu time      0.3370: real time      0.3453
    SETDIJ:  cpu time      0.7495: real time      0.7495
    TRIAL :  cpu time      0.2425: real time      0.3050
    CORREC:  cpu time      0.0032: real time      0.0032
    --------------------------------------------
      LOOP:  cpu time      1.3339: real time      1.4057

 eigenvalue-minimisations  :    96
 total energy-change (2. order) :-0.3236775E+04  (-0.6779379E+03)
 number of electron      44.0000000 magnetization 
 augmentation part       44.0000000 magnetization 

 DIPCOR: dipole corrections for dipol
 direction  3 min pos     1,
 dipolmoment           0.000000      0.000000     -0.000026 electrons x Angstroem
 Tr[quadrupol]     -7418.626746

 energy correction for charged system         0.000000 eV
 dipol+quadrupol energy correction           -0.000000 eV
 added-field ion interaction          0.000063 eV  (added to PSCEN)


 Free energy of the ion-electron system (eV)
  ---------------------------------------------------
  alpha Z        PSCENC =         1.37729213
  Ewald energy   TEWEN  =      1752.58193421
  -Hartree energ DENC   =     -5713.61946106
  -exchange      EXHF   =         0.00000000
  -V(xc)+E(xc)   XCENC  =       -46.57246748
  PAW double counting   =      4013.84859731    -7392.08731607
  entropy T*S    EENTRO =        -0.01911593
  eigenvalues    EBANDS =         8.57661163
  atomic energy  EATOM  =      4139.13879565
  ---------------------------------------------------
  free energy    TOTEN  =     -3236.77512962 eV

  energy without entropy =    -3236.75601369  energy(sigma->0) =    -3236.76557166
  exchange ACFDT corr.  =         0.00000000  see jH, gK, PRB 81, 115126


--------------------------------------------------------------------------------------------------------




--------------------------------------- Iteration      1(   2)  ---------------------------------------


    TRIAL :  cpu time      0.3993: real time      0.4014
    CORREC:  cpu time      0.0009: real time      0.0009
    --------------------------------------------
      LOOP:  cpu time      0.4029: real time      0.4130

 eigenvalue-minimisations  :   192
 total energy-change (2. order) :-0.3746794E+03  (-0.3746311E+03)
 number of electron      44.0000000 magnetization 
 augmentation part       44.0000000 magnetization 

 DIPCOR: dipole corrections for dipol
 direction  3 min pos     1,
 dipolmoment           0.000000      0.000000     -0.000026 electrons x Angstroem
 Tr[quadrupol]     -7418.626746

 energy correction for charged system         0.000000 eV
 dipol+quadrupol energy correction           -0.000000 eV
 added-field ion interaction          0.000063 eV  (added to PSCEN)


 Free energy of the ion-electron system (eV)
  ---------------------------------------------------
  alpha Z        PSCENC =         1.37729213
  Ewald energy   TEWEN  =      1752.58193421
  -Hartree energ DENC   =     -5713.61946106
  -exchange      EXHF   =         0.00000000
  -V(xc)+E(xc)   XCENC  =       -46.57246748
  PAW double counting   =      4013.84859731    -7392.08731607
  entropy T*S    EENTRO =        -0.00000000
  eigenvalues    EBANDS =      -366.12185919
  atomic energy  EATOM  =      4139.13879565
  ---------------------------------------------------
  free energy    TOTEN  =     -3611.45448450 eV

  energy without entropy =    -3611.45448450  energy(sigma->0) =    -3611.45448450
  exchange ACFDT corr.  =         0.00000000  see jH, gK, PRB 81, 115126


--------------------------------------------------------------------------------------------------------




--------------------------------------- Iteration      1(   3)  ---------------------------------------


    TRIAL :  cpu time      0.2061: real time      0.2060
    CORREC:  cpu time      0.0006: real time      0.0006
    --------------------------------------------
      LOOP:  cpu time      0.2093: real time      0.2170

 eigenvalue-minimisations  :    96
 total energy-change (2. order) :-0.7289237E+02  (-0.7289220E+02)
 number of electron      44.0000000 magnetization 
 augmentation part       44.0000000 magnetization 

 DIPCOR: dipole corrections for dipol
 direction  3 min pos     1,
 dipolmoment           0.000000      0.000000     -0.000026 electrons x Angstroem
 Tr[quadrupol]     -7418.626746

 energy correction for charged system         0.000000 eV
 dipol+quadrupol energy correction           -0.000000 eV
 added-field ion interaction          0.000063 eV  (added to PSCEN)


 Free energy of the ion-electron system (eV)
  ---------------------------------------------------
  alpha Z        PSCENC =         1.37729213
  Ewald energy   TEWEN  =      1752.58193421
  -Hartree energ DENC   =     -5713.61946106
  -exchange      EXHF   =         0.00000000
  -V(xc)+E(xc)   XCENC  =       -46.57246748
  PAW double counting   =      4013.84859731    -7392.08731607
  entropy T*S    EENTRO =        -0.00000000
  eigenvalues    EBANDS =      -439.01422918
  atomic energy  EATOM  =      4139.13879565
  ---------------------------------------------------
  free energy    TOTEN  =     -3684.34685450 eV

  energy without entropy =    -3684.34685450  energy(sigma->0) =    -3684.34685450
  exchange ACFDT corr.  =         0.00000000  see jH, gK, PRB 81, 115126


--------------------------------------------------------------------------------------------------------




--------------------------------------- Iteration      1(   4)  ---------------------------------------


    TRIAL :  cpu time      0.2425: real time      0.2433
    CORREC:  cpu time      0.0006: real time      0.0006
    --------------------------------------------
      LOOP:  cpu time      0.2535: real time      0.2546

 eigenvalue-minimisations  :   144
 total energy-change (2. order) :-0.7106232E+00  (-0.7106228E+00)
 number of electron      44.0000000 magnetization 
 augmentation part       44.0000000 magnetization 

 DIPCOR: dipole corrections for dipol
 direction  3 min pos     1,
 dipolmoment           0.000000      0.000000     -0.000026 electrons x Angstroem
 Tr[quadrupol]     -7418.626746

 energy correction for charged system         0.000000 eV
 dipol+quadrupol energy correction           -0.000000 eV
 added-field ion interaction          0.000063 eV  (added to PSCEN)


 Free energy of the ion-electron system (eV)
  ---------------------------------------------------
  alpha Z        PSCENC =         1.37729213
  Ewald energy   TEWEN  =      1752.58193421
  -Hartree energ DENC   =     -5713.61946106
  -exchange      EXHF   =         0.00000000
  -V(xc)+E(xc)   XCENC  =       -46.57246748
  PAW double counting   =      4013.84859731    -7392.08731607
  entropy T*S    EENTRO =        -0.00000000
  eigenvalues    EBANDS =      -439.72485240
  atomic energy  EATOM  =      4139.13879565
  ---------------------------------------------------
  free energy    TOTEN  =     -3685.05747772 eV

  energy without entropy =    -3685.05747772  energy(sigma->0) =    -3685.05747772
  exchange ACFDT corr.  =         0.00000000  see jH, gK, PRB 81, 115126


--------------------------------------------------------------------------------------------------------




--------------------------------------- Iteration      1(   5)  ---------------------------------------


    POTLOK:  cpu time      0.7927: real time      0.7932
    SETDIJ:  cpu time      2.2501: real time      2.2516
    TRIAL :  cpu time      2.5754: real time      2.5899
    CORREC:  cpu time      0.0007: real time      0.0007
    CHARGE:  cpu time      0.0769: real time      0.0771
    --------------------------------------------
      LOOP:  cpu time      5.7065: real time      5.7234

 eigenvalue-minimisations  :   144
 total energy-change (2. order) : 0.3678955E+04  (-0.2748844E+01)
 number of electron      44.0000001 magnetization 
 augmentation part       21.4161573 magnetization 

 DIPCOR: dipole corrections for dipol
 direction  3 min pos     1,
 dipolmoment           0.000000      0.000000     -0.000026 electrons x Angstroem
 Tr[quadrupol]     -7418.626746

 energy correction for charged system         0.000000 eV
 dipol+quadrupol energy correction           -0.000000 eV
 added-field ion interaction          0.000063 eV  (added to PSCEN)


 Free energy of the ion-electron system (eV)
  ---------------------------------------------------
  alpha Z        PSCENC =         1.37729213
  Ewald energy   TEWEN  =      1752.58193421
  -Hartree energ DENC   =     -5713.61946106
  -exchange      EXHF   =        89.98016927
  -V(xc)+E(xc)   XCENC  =       -40.05024157
  PAW double counting   =      4006.65197587    -3847.73342768
  entropy T*S    EENTRO =        -0.00000000
  eigenvalues    EBANDS =      -394.42918836
  atomic energy  EATOM  =      4139.13879565
  ---------------------------------------------------
  free energy    TOTEN  =        -6.10215154 eV

  energy without entropy =       -6.10215154  energy(sigma->0) =       -6.10215154
  exchange ACFDT corr.  =        -0.00000000  see jH, gK, PRB 81, 115126


--------------------------------------------------------------------------------------------------------




--------------------------------------- Iteration      1(   6)  ---------------------------------------


    POTLOK:  cpu time      0.7913: real time      0.7917
    SETDIJ:  cpu time      2.2516: real time      2.2530
    TRIAL :  cpu time      2.3662: real time      2.4138
    CORREC:  cpu time      5.2549: real time      5.2586
    CHARGE:  cpu time      0.0540: real time      0.0541
    --------------------------------------------
      LOOP:  cpu time     10.7377: real time     10.7912

 eigenvalue-minimisations  :     0
 total energy-change (2. order) : 0.1012840E+01  (-0.6624139E+00)
 number of electron      44.0000001 magnetization 
 augmentation part       21.2734285 magnetization 

 DIPCOR: dipole corrections for dipol
 direction  3 min pos     1,
 dipolmoment           0.000000      0.000000      0.019990 electrons x Angstroem
 Tr[quadrupol]     -7418.626307

 energy correction for charged system         0.000000 eV
 dipol+quadrupol energy correction           -0.000004 eV
 added-field ion interaction         -0.047694 eV  (added to PSCEN)


 Free energy of the ion-electron system (eV)
  ---------------------------------------------------
  alpha Z        PSCENC =         1.31743096
  Ewald energy   TEWEN  =      1752.58193421
  -Hartree energ DENC   =     -5777.22642581
  -exchange      EXHF   =        86.83909065
  -V(xc)+E(xc)   XCENC  =       -39.57602248
  PAW double counting   =      4543.21200125    -4388.18000396
  entropy T*S    EENTRO =        -0.00000000
  eigenvalues    EBANDS =      -323.19611181
  atomic energy  EATOM  =      4139.13879565
  ---------------------------------------------------
  free energy    TOTEN  =        -5.08931135 eV

  energy without entropy =       -5.08931135  energy(sigma->0) =       -5.08931135
  exchange ACFDT corr.  =        -0.00000000  see jH, gK, PRB 81, 115126


--------------------------------------------------------------------------------------------------------




--------------------------------------- Iteration      1(   7)  ---------------------------------------


    POTLOK:  cpu time      0.8332: real time      0.8339
    SETDIJ:  cpu time      2.2861: real time      2.2883
    TRIAL :  cpu time      2.1929: real time      2.1962
    CORREC:  cpu time      5.2985: real time      5.3022
    CHARGE:  cpu time      0.0598: real time      0.0599
    --------------------------------------------
      LOOP:  cpu time     10.6752: real time     10.6942

 eigenvalue-minimisations  :     0
 total energy-change (2. order) :-0.6643858E+00  (-0.7361500E-01)
 number of electron      44.0000001 magnetization 
 augmentation part       21.3687263 magnetization 

 DIPCOR: dipole corrections for dipol
 direction  3 min pos     1,
 dipolmoment           0.000000      0.000000      0.024204 electrons x Angstroem
 Tr[quadrupol]     -7418.758589

 energy correction for charged system         0.000000 eV
 dipol+quadrupol energy correction           -0.000006 eV
 added-field ion interaction         -0.057747 eV  (added to PSCEN)


 Free energy of the ion-electron system (eV)
  ---------------------------------------------------
  alpha Z        PSCENC =         1.32759538
  Ewald energy   TEWEN  =      1752.58193421
  -Hartree energ DENC   =     -5723.96811087
  -exchange      EXHF   =        86.19611395
  -V(xc)+E(xc)   XCENC  =       -40.38019434
  PAW double counting   =      4489.42612908    -4333.83428377
  entropy T*S    EENTRO =        -0.00000000
  eigenvalues    EBANDS =      -376.24167642
  atomic energy  EATOM  =      4139.13879565
  ---------------------------------------------------
  free energy    TOTEN  =        -5.75369714 eV

  energy without entropy =       -5.75369714  energy(sigma->0) =       -5.75369714
  exchange ACFDT corr.  =        -0.00000000  see jH, gK, PRB 81, 115126


--------------------------------------------------------------------------------------------------------




--------------------------------------- Iteration      1(   8)  ---------------------------------------


    POTLOK:  cpu time      0.8306: real time      0.8311
    SETDIJ:  cpu time      2.2911: real time      2.2926
    TRIAL :  cpu time      2.2050: real time      2.2080
    CORREC:  cpu time      5.3446: real time      5.3491
    CHARGE:  cpu time      0.0617: real time      0.0617
    --------------------------------------------
      LOOP:  cpu time     10.7371: real time     10.7558

 eigenvalue-minimisations  :     0
 total energy-change (2. order) :-0.7370787E-01  (-0.3753388E-01)
 number of electron      44.0000001 magnetization 
 augmentation part       21.3441770 magnetization 

 DIPCOR: dipole corrections for dipol
 direction  3 min pos     1,
 dipolmoment           0.000000      0.000000      0.023843 electrons x Angstroem
 Tr[quadrupol]     -7418.759793

 energy correction for charged system         0.000000 eV
 dipol+quadrupol energy correction           -0.000006 eV
 added-field ion interaction         -0.056886 eV  (added to PSCEN)


 Free energy of the ion-electron system (eV)
  ---------------------------------------------------
  alpha Z        PSCENC =         1.31794321
  Ewald energy   TEWEN  =      1752.58193421
  -Hartree energ DENC   =     -5731.92087741
  -exchange      EXHF   =        86.42952408
  -V(xc)+E(xc)   XCENC  =       -40.09387154
  PAW double counting   =      4480.42545033    -4324.88206494
  entropy T*S    EENTRO =        -0.00000000
  eigenvalues    EBANDS =      -368.82423862
  atomic energy  EATOM  =      4139.13879565
  ---------------------------------------------------
  free energy    TOTEN  =        -5.82740502 eV

  energy without entropy =       -5.82740502  energy(sigma->0) =       -5.82740502
  exchange ACFDT corr.  =        -0.00000000  see jH, gK, PRB 81, 115126


--------------------------------------------------------------------------------------------------------




--------------------------------------- Iteration      1(   9)  ---------------------------------------


    POTLOK:  cpu time      0.8309: real time      0.8314
    SETDIJ:  cpu time      2.2893: real time      2.2908
    TRIAL :  cpu time      2.2936: real time      2.2972
    CORREC:  cpu time      5.3684: real time      5.3747
    CHARGE:  cpu time      0.0599: real time      0.0599
    --------------------------------------------
      LOOP:  cpu time     10.8486: real time     10.8696

 eigenvalue-minimisations  :     0
 total energy-change (2. order) :-0.3750057E-01  (-0.1196052E-01)
 number of electron      44.0000001 magnetization 
 augmentation part       21.3358818 magnetization 

 DIPCOR: dipole corrections for dipol
 direction  3 min pos     1,
 dipolmoment           0.000000      0.000000      0.021246 electrons x Angstroem
 Tr[quadrupol]     -7418.742370

 energy correction for charged system         0.000000 eV
 dipol+quadrupol energy correction           -0.000004 eV
 added-field ion interaction         -0.050689 eV  (added to PSCEN)


 Free energy of the ion-electron system (eV)
  ---------------------------------------------------
  alpha Z        PSCENC =         1.32305370
  Ewald energy   TEWEN  =      1752.58193421
  -Hartree energ DENC   =     -5727.72647844
  -exchange      EXHF   =        86.34573755
  -V(xc)+E(xc)   XCENC  =       -40.19072627
  PAW double counting   =      4461.11836723    -4305.48474776
  entropy T*S    EENTRO =        -0.00000000
  eigenvalues    EBANDS =      -372.97084145
  atomic energy  EATOM  =      4139.13879565
  ---------------------------------------------------
  free energy    TOTEN  =        -5.86490559 eV

  energy without entropy =       -5.86490559  energy(sigma->0) =       -5.86490559
  exchange ACFDT corr.  =        -0.00000000  see jH, gK, PRB 81, 115126


--------------------------------------------------------------------------------------------------------




--------------------------------------- Iteration      1(  10)  ---------------------------------------


    POTLOK:  cpu time      0.7887: real time      0.7888
    SETDIJ:  cpu time      2.2913: real time      2.2927
    TRIAL :  cpu time      2.2216: real time      2.2262
    CORREC:  cpu time      5.2430: real time      5.2501
    CHARGE:  cpu time      0.0633: real time      0.0633
    --------------------------------------------
      LOOP:  cpu time     10.6120: real time     10.6346

 eigenvalue-minimisations  :     0
 total energy-change (2. order) :-0.1195250E-01  (-0.4729329E-02)
 number of electron      44.0000001 magnetization 
 augmentation part       21.3500674 magnetization 

 DIPCOR: dipole corrections for dipol
 direction  3 min pos     1,
 dipolmoment           0.000000      0.000000      0.020071 electrons x Angstroem
 Tr[quadrupol]     -7418.754074

 energy correction for charged system         0.000000 eV
 dipol+quadrupol energy correction           -0.000004 eV
 added-field ion interaction         -0.047887 eV  (added to PSCEN)


 Free energy of the ion-electron system (eV)
  ---------------------------------------------------
  alpha Z        PSCENC =         1.32862746
  Ewald energy   TEWEN  =      1752.58193421
  -Hartree energ DENC   =     -5724.34569642
  -exchange      EXHF   =        86.30765387
  -V(xc)+E(xc)   XCENC  =       -40.23910416
  PAW double counting   =      4451.25529284    -4295.56573696
  entropy T*S    EENTRO =        -0.00000000
  eigenvalues    EBANDS =      -376.33862457
  atomic energy  EATOM  =      4139.13879565
  ---------------------------------------------------
  free energy    TOTEN  =        -5.87685808 eV

  energy without entropy =       -5.87685808  energy(sigma->0) =       -5.87685808
  exchange ACFDT corr.  =        -0.00000000  see jH, gK, PRB 81, 115126


--------------------------------------------------------------------------------------------------------




--------------------------------------- Iteration      1(  11)  ---------------------------------------


    POTLOK:  cpu time      0.7416: real time      0.7414
    SETDIJ:  cpu time      2.2882: real time      2.2903
    TRIAL :  cpu time      2.2480: real time      2.2546
    CORREC:  cpu time      5.3205: real time      5.3237
    CHARGE:  cpu time      0.0662: real time      0.0662
    --------------------------------------------
      LOOP:  cpu time     10.6694: real time     10.6905

 eigenvalue-minimisations  :     0
 total energy-change (2. order) :-0.4730259E-02  (-0.1367503E-02)
 number of electron      44.0000001 magnetization 
 augmentation part       21.3453642 magnetization 

 DIPCOR: dipole corrections for dipol
 direction  3 min pos     1,
 dipolmoment           0.000000      0.000000      0.020741 electrons x Angstroem
 Tr[quadrupol]     -7418.746831

 energy correction for charged system         0.000000 eV
 dipol+quadrupol energy correction           -0.000004 eV
 added-field ion interaction         -0.049484 eV  (added to PSCEN)


 Free energy of the ion-electron system (eV)
  ---------------------------------------------------
  alpha Z        PSCENC =         1.32949011
  Ewald energy   TEWEN  =      1752.58193421
  -Hartree energ DENC   =     -5725.67470353
  -exchange      EXHF   =        86.33855394
  -V(xc)+E(xc)   XCENC  =       -40.20068272
  PAW double counting   =      4450.23950762    -4294.53939586
  entropy T*S    EENTRO =        -0.00000000
  eigenvalues    EBANDS =      -375.09508776
  atomic energy  EATOM  =      4139.13879565
  ---------------------------------------------------
  free energy    TOTEN  =        -5.88158834 eV

  energy without entropy =       -5.88158834  energy(sigma->0) =       -5.88158834
  exchange ACFDT corr.  =        -0.00000000  see jH, gK, PRB 81, 115126


--------------------------------------------------------------------------------------------------------




--------------------------------------- Iteration      1(  12)  ---------------------------------------


    POTLOK:  cpu time      0.7398: real time      0.7403
    SETDIJ:  cpu time      2.2864: real time      2.2886
    TRIAL :  cpu time      2.2414: real time      2.2455
    CORREC:  cpu time      5.2787: real time      5.2875
    CHARGE:  cpu time      0.0625: real time      0.0625
    --------------------------------------------
      LOOP:  cpu time     10.6131: real time     10.6371

 eigenvalue-minimisations  :     0
 total energy-change (2. order) :-0.1371822E-02  (-0.2905141E-03)
 number of electron      44.0000001 magnetization 
 augmentation part       21.3463300 magnetization 

 DIPCOR: dipole corrections for dipol
 direction  3 min pos     1,
 dipolmoment           0.000000      0.000000      0.020477 electrons x Angstroem
 Tr[quadrupol]     -7418.745571

 energy correction for charged system         0.000000 eV
 dipol+quadrupol energy correction           -0.000004 eV
 added-field ion interaction         -0.048855 eV  (added to PSCEN)


 Free energy of the ion-electron system (eV)
  ---------------------------------------------------
  alpha Z        PSCENC =         1.32698854
  Ewald energy   TEWEN  =      1752.58193421
  -Hartree energ DENC   =     -5724.92360744
  -exchange      EXHF   =        86.32298830
  -V(xc)+E(xc)   XCENC  =       -40.21828999
  PAW double counting   =      4448.68997058    -4292.98460910
  entropy T*S    EENTRO =        -0.00000000
  eigenvalues    EBANDS =      -375.81713091
  atomic energy  EATOM  =      4139.13879565
  ---------------------------------------------------
  free energy    TOTEN  =        -5.88296016 eV

  energy without entropy =       -5.88296016  energy(sigma->0) =       -5.88296016
  exchange ACFDT corr.  =        -0.00000000  see jH, gK, PRB 81, 115126


--------------------------------------------------------------------------------------------------------




--------------------------------------- Iteration      1(  13)  ---------------------------------------


    POTLOK:  cpu time      0.7338: real time      0.7341
    SETDIJ:  cpu time      2.2905: real time      2.2927
    TRIAL :  cpu time      2.2171: real time      2.2197
    CORREC:  cpu time      5.3170: real time      5.3211
    CHARGE:  cpu time      0.0585: real time      0.0585
    --------------------------------------------
      LOOP:  cpu time     10.6307: real time     10.6401

 eigenvalue-minimisations  :     0
 total energy-change (2. order) :-0.2914470E-03  (-0.5612164E-04)
 number of electron      44.0000001 magnetization 
 augmentation part       21.3458675 magnetization 

 DIPCOR: dipole corrections for dipol
 direction  3 min pos     1,
 dipolmoment           0.000000      0.000000      0.020333 electrons x Angstroem
 Tr[quadrupol]     -7418.746333

 energy correction for charged system         0.000000 eV
 dipol+quadrupol energy correction           -0.000004 eV
 added-field ion interaction         -0.048512 eV  (added to PSCEN)


 Free energy of the ion-electron system (eV)
  ---------------------------------------------------
  alpha Z        PSCENC =         1.32914092
  Ewald energy   TEWEN  =      1752.58193421
  -Hartree energ DENC   =     -5725.02113377
  -exchange      EXHF   =        86.32405249
  -V(xc)+E(xc)   XCENC  =       -40.21632789
  PAW double counting   =      4449.14135220    -4293.43897328
  entropy T*S    EENTRO =        -0.00000000
  eigenvalues    EBANDS =      -375.72209214
  atomic energy  EATOM  =      4139.13879565
  ---------------------------------------------------
  free energy    TOTEN  =        -5.88325161 eV

  energy without entropy =       -5.88325161  energy(sigma->0) =       -5.88325161
  exchange ACFDT corr.  =        -0.00000000  see jH, gK, PRB 81, 115126


--------------------------------------------------------------------------------------------------------




--------------------------------------- Iteration      1(  14)  ---------------------------------------


    POTLOK:  cpu time      0.7345: real time      0.7350
    SETDIJ:  cpu time      2.2870: real time      2.2883
    TRIAL :  cpu time      2.2340: real time      2.2363
    CORREC:  cpu time      5.2680: real time      5.2720
    CHARGE:  cpu time      0.0633: real time      0.0633
    --------------------------------------------
      LOOP:  cpu time     10.5916: real time     10.6081

 eigenvalue-minimisations  :     0
 total energy-change (2. order) :-0.5549513E-04  (-0.1581099E-04)
 number of electron      44.0000001 magnetization 
 augmentation part       21.3460387 magnetization 

 DIPCOR: dipole corrections for dipol
 direction  3 min pos     1,
 dipolmoment           0.000000      0.000000      0.020501 electrons x Angstroem
 Tr[quadrupol]     -7418.745377

 energy correction for charged system         0.000000 eV
 dipol+quadrupol energy correction           -0.000004 eV
 added-field ion interaction         -0.048913 eV  (added to PSCEN)


 Free energy of the ion-electron system (eV)
  ---------------------------------------------------
  alpha Z        PSCENC =         1.32857160
  Ewald energy   TEWEN  =      1752.58193421
  -Hartree energ DENC   =     -5724.95779147
  -exchange      EXHF   =        86.32219162
  -V(xc)+E(xc)   XCENC  =       -40.21767482
  PAW double counting   =      4449.65332219    -4293.95155614
  entropy T*S    EENTRO =        -0.00000000
  eigenvalues    EBANDS =      -375.78109995
  atomic energy  EATOM  =      4139.13879565
  ---------------------------------------------------
  free energy    TOTEN  =        -5.88330711 eV

  energy without entropy =       -5.88330711  energy(sigma->0) =       -5.88330711
  exchange ACFDT corr.  =        -0.00000000  see jH, gK, PRB 81, 115126


--------------------------------------------------------------------------------------------------------




--------------------------------------- Iteration      1(  15)  ---------------------------------------


    POTLOK:  cpu time      0.7341: real time      0.7347
    SETDIJ:  cpu time      2.2873: real time      2.2886
    TRIAL :  cpu time      2.2246: real time      2.2268
    CORREC:  cpu time      5.2614: real time      5.2646
    CHARGE:  cpu time      0.0624: real time      0.0633
    --------------------------------------------
      LOOP:  cpu time     10.5823: real time     10.5908

 eigenvalue-minimisations  :     0
 total energy-change (2. order) :-0.1564654E-04  (-0.7655536E-05)
 number of electron      44.0000001 magnetization 
 augmentation part       21.3460435 magnetization 

 DIPCOR: dipole corrections for dipol
 direction  3 min pos     1,
 dipolmoment           0.000000      0.000000      0.020481 electrons x Angstroem
 Tr[quadrupol]     -7418.745541

 energy correction for charged system         0.000000 eV
 dipol+quadrupol energy correction           -0.000004 eV
 added-field ion interaction         -0.048865 eV  (added to PSCEN)


 Free energy of the ion-electron system (eV)
  ---------------------------------------------------
  alpha Z        PSCENC =         1.32829173
  Ewald energy   TEWEN  =      1752.58193421
  -Hartree energ DENC   =     -5724.99668340
  -exchange      EXHF   =        86.32266884
  -V(xc)+E(xc)   XCENC  =       -40.21738105
  PAW double counting   =      4449.98974476    -4294.28918876
  entropy T*S    EENTRO =        -0.00000000
  eigenvalues    EBANDS =      -375.74150473
  atomic energy  EATOM  =      4139.13879565
  ---------------------------------------------------
  free energy    TOTEN  =        -5.88332275 eV

  energy without entropy =       -5.88332275  energy(sigma->0) =       -5.88332275
  exchange ACFDT corr.  =        -0.00000000  see jH, gK, PRB 81, 115126


--------------------------------------------------------------------------------------------------------




--------------------------------------- Iteration      1(  16)  ---------------------------------------


    POTLOK:  cpu time      0.7340: real time      0.7338
    SETDIJ:  cpu time      2.2905: real time      2.2926
    TRIAL :  cpu time      2.2159: real time      2.2231
    CORREC:  cpu time      5.2774: real time      5.2918
    CHARGE:  cpu time      0.0604: real time      0.0604
    --------------------------------------------
      LOOP:  cpu time     10.5825: real time     10.6151

 eigenvalue-minimisations  :     0
 total energy-change (2. order) :-0.8337192E-05  (-0.4510890E-05)
 number of electron      44.0000001 magnetization 
 augmentation part       21.3458890 magnetization 

 DIPCOR: dipole corrections for dipol
 direction  3 min pos     1,
 dipolmoment           0.000000      0.000000      0.020516 electrons x Angstroem
 Tr[quadrupol]     -7418.745276

 energy correction for charged system         0.000000 eV
 dipol+quadrupol energy correction           -0.000004 eV
 added-field ion interaction         -0.048948 eV  (added to PSCEN)


 Free energy of the ion-electron system (eV)
  ---------------------------------------------------
  alpha Z        PSCENC =         1.32837944
  Ewald energy   TEWEN  =      1752.58193421
  -Hartree energ DENC   =     -5725.01525549
  -exchange      EXHF   =        86.32279065
  -V(xc)+E(xc)   XCENC  =       -40.21703033
  PAW double counting   =      4450.24641005    -4294.54664747
  entropy T*S    EENTRO =        -0.00000000
  eigenvalues    EBANDS =      -375.72270780
  atomic energy  EATOM  =      4139.13879565
  ---------------------------------------------------
  free energy    TOTEN  =        -5.88333109 eV

  energy without entropy =       -5.88333109  energy(sigma->0) =       -5.88333109
  exchange ACFDT corr.  =        -0.00000000  see jH, gK, PRB 81, 115126


--------------------------------------------------------------------------------------------------------




--------------------------------------- Iteration      1(  17)  ---------------------------------------


    POTLOK:  cpu time      0.7349: real time      0.7353
    SETDIJ:  cpu time      2.2844: real time      2.2865
    TRIAL :  cpu time      2.2685: real time      2.2725
    CORREC:  cpu time      5.3402: real time      5.3527
    CHARGE:  cpu time      0.0597: real time      0.0597
    --------------------------------------------
      LOOP:  cpu time     10.6922: real time     10.7206

 eigenvalue-minimisations  :     0
 total energy-change (2. order) :-0.3893095E-05  (-0.9788483E-06)
 number of electron      44.0000001 magnetization 
 augmentation part       21.3458835 magnetization 

 DIPCOR: dipole corrections for dipol
 direction  3 min pos     1,
 dipolmoment           0.000000      0.000000      0.020612 electrons x Angstroem
 Tr[quadrupol]     -7418.744563

 energy correction for charged system         0.000000 eV
 dipol+quadrupol energy correction           -0.000004 eV
 added-field ion interaction         -0.049176 eV  (added to PSCEN)


 Free energy of the ion-electron system (eV)
  ---------------------------------------------------
  alpha Z        PSCENC =         1.32825273
  Ewald energy   TEWEN  =      1752.58193421
  -Hartree energ DENC   =     -5725.00119403
  -exchange      EXHF   =        86.32244534
  -V(xc)+E(xc)   XCENC  =       -40.21729315
  PAW double counting   =      4450.42183368    -4294.72275428
  entropy T*S    EENTRO =        -0.00000000
  eigenvalues    EBANDS =      -375.73535513
  atomic energy  EATOM  =      4139.13879565
  ---------------------------------------------------
  free energy    TOTEN  =        -5.88333498 eV

  energy without entropy =       -5.88333498  energy(sigma->0) =       -5.88333498
  exchange ACFDT corr.  =        -0.00000000  see jH, gK, PRB 81, 115126


--------------------------------------------------------------------------------------------------------




--------------------------------------- Iteration      1(  18)  ---------------------------------------


    POTLOK:  cpu time      0.7372: real time      0.7377
    SETDIJ:  cpu time      2.2844: real time      2.2865
    TRIAL :  cpu time      2.2637: real time      2.2715
    CORREC:  cpu time      5.2912: real time      5.2950
    CHARGE:  cpu time      0.0596: real time      0.0596
    --------------------------------------------
      LOOP:  cpu time     10.6400: real time     10.6632

 eigenvalue-minimisations  :     0
 total energy-change (2. order) :-0.1032993E-05  (-0.6449420E-06)
 number of electron      44.0000001 magnetization 
 augmentation part       21.3459098 magnetization 

 DIPCOR: dipole corrections for dipol
 direction  3 min pos     1,
 dipolmoment           0.000000      0.000000      0.020626 electrons x Angstroem
 Tr[quadrupol]     -7418.744506

 energy correction for charged system         0.000000 eV
 dipol+quadrupol energy correction           -0.000004 eV
 added-field ion interaction         -0.049210 eV  (added to PSCEN)


 Free energy of the ion-electron system (eV)
  ---------------------------------------------------
  alpha Z        PSCENC =         1.32816737
  Ewald energy   TEWEN  =      1752.58193421
  -Hartree energ DENC   =     -5725.00436563
  -exchange      EXHF   =        86.32246850
  -V(xc)+E(xc)   XCENC  =       -40.21727519
  PAW double counting   =      4450.49033039    -4294.79160721
  entropy T*S    EENTRO =        -0.00000000
  eigenvalues    EBANDS =      -375.73178409
  atomic energy  EATOM  =      4139.13879565
  ---------------------------------------------------
  free energy    TOTEN  =        -5.88333602 eV

  energy without entropy =       -5.88333602  energy(sigma->0) =       -5.88333602
  exchange ACFDT corr.  =        -0.00000000  see jH, gK, PRB 81, 115126


--------------------------------------------------------------------------------------------------------




--------------------------------------- Iteration      1(  19)  ---------------------------------------


    POTLOK:  cpu time      0.7345: real time      0.7351
    SETDIJ:  cpu time      2.2890: real time      2.2903
    TRIAL :  cpu time      2.2341: real time      2.2372
    CORREC:  cpu time      5.2248: real time      5.2283
    EDDIAG:  cpu time      2.1744: real time      2.1708
    CHARGE:  cpu time      0.0661: real time      0.0661
    --------------------------------------------
      LOOP:  cpu time     12.7272: real time     12.7415

 eigenvalue-minimisations  :     0
 total energy-change (2. order) : 0.7820972E-06  (-0.7516264E-06)
 number of electron      44.0000001 magnetization 
 augmentation part       21.3459620 magnetization 

 DIPCOR: dipole corrections for dipol
 direction  3 min pos     1,
 dipolmoment           0.000000      0.000000      0.020635 electrons x Angstroem
 Tr[quadrupol]     -7418.744545

 energy correction for charged system         0.000000 eV
 dipol+quadrupol energy correction           -0.000004 eV
 added-field ion interaction         -0.049233 eV  (added to PSCEN)


 Free energy of the ion-electron system (eV)
  ---------------------------------------------------
  alpha Z        PSCENC =         1.32811863
  Ewald energy   TEWEN  =      1752.58193421
  -Hartree energ DENC   =     -5725.01077355
  -exchange      EXHF   =        86.32274224
  -V(xc)+E(xc)   XCENC  =       -40.21723687
  PAW double counting   =      4450.51960539    -4294.82107500
  entropy T*S    EENTRO =        -0.00000000
  eigenvalues    EBANDS =      -375.72526577
  atomic energy  EATOM  =      4139.13879565
  ---------------------------------------------------
  free energy    TOTEN  =        -5.88333523 eV

  energy without entropy =       -5.88333523  energy(sigma->0) =       -5.88333523
  exchange ACFDT corr.  =        -0.00000000  see jH, gK, PRB 81, 115126


--------------------------------------------------------------------------------------------------------


  average scaling for gradient   1.3220


 average (electrostatic) potential at core
  the test charge radii are     1.1249
  (the norm of the test charge is              1.0000)
       1 -76.6013       2 -77.3114       3 -77.3131       4 -76.6021
 
 
 
 E-fermi :  -4.3747     XC(G=0):  -0.1878     alpha+bet : -0.0940

 Fermi energy:        -4.3747345308

 k-point     1 :       0.0000    0.0000    0.0000
  band No.  band energies     occupation 
      1     -10.1697      2.00000
      2     -10.1436      2.00000
      3      -9.6885      2.00000
      4      -9.6566      2.00000
      5      -9.5328      2.00000
      6      -9.4239      2.00000
      7      -9.2422      2.00000
      8      -9.0778      2.00000
      9      -8.7722      2.00000
     10      -8.7160      2.00000
     11      -8.4732      2.00000
     12      -8.3642      2.00000
     13      -8.3424      2.00000
     14      -8.3226      2.00000
     15      -8.2106      2.00000
     16      -8.1779      2.00000
     17      -8.1179      2.00000
     18      -8.1125      2.00000
     19      -8.0146      2.00000
     20      -7.7975      2.00000
     21      -6.8777      2.00000
     22      -4.6186      2.00000
     23      -2.9971      0.00000
     24      -1.8074      0.00000
     25      -1.2514      0.00000
     26      -0.5407      0.00000
     27      -0.5263      0.00000
     28      -0.0024      0.00000
     29       0.1178      0.00000
     30       0.1990      0.00000
     31       0.3771      0.00000
     32       0.3826      0.00000
     33       0.3902      0.00000
     34       0.4067      0.00000
     35       0.4580      0.00000
     36       0.4955      0.00000
     37       0.5091      0.00000
     38       0.6788      0.00000
     39       0.6939      0.00000
     40       0.7094      0.00000
     41       0.7113      0.00000
     42       0.7257      0.00000
     43       0.7319      0.00000
     44       0.7601      0.00000
     45       0.7610      0.00000
     46       0.7842      0.00000
     47       0.8513      0.00000
     48       0.8540      0.00000


--------------------------------------------------------------------------------------------------------


 soft charge-density along one line, spin component           1
         0         1         2         3         4         5         6         7         8         9
 total charge-density along one line
 
 pseudopotential strength for first ion, spin component:           1
 -8.806   0.006  -0.001   0.002  -0.000  -8.862   0.006  -0.001
  0.006  -8.750   0.001   0.000  -0.001   0.006  -8.809   0.001
 -0.001   0.001  -8.750   0.002   0.011  -0.001   0.001  -8.809
  0.002   0.000   0.002  -8.766   0.005   0.002   0.000   0.002
 -0.000  -0.001   0.011   0.005  -8.790  -0.000  -0.001   0.010
 -8.862   0.006  -0.001   0.002  -0.000  -8.891   0.006  -0.001
  0.006  -8.809   0.001   0.000  -0.001   0.006  -8.839   0.001
 -0.001   0.001  -8.809   0.002   0.010  -0.001   0.001  -8.839
  0.002   0.000   0.002  -8.824   0.005   0.002   0.000   0.002
 -0.000  -0.001   0.010   0.005  -8.847  -0.000  -0.001   0.010
 -0.000  -0.001  -0.011  -0.003   0.005  -0.000  -0.001  -0.011
 -0.000  -0.001  -0.018  -0.005   0.008  -0.000  -0.001  -0.018
 -0.026   0.005  -0.000   0.000  -0.000  -0.025   0.005  -0.000
  0.000   0.000   0.006  -0.026  -0.000   0.000   0.000   0.005
  0.000   0.000   0.014   0.004  -0.024   0.000   0.000   0.013
 -0.031   0.006  -0.000   0.000  -0.000  -0.030   0.006  -0.000
  0.000   0.000   0.007  -0.030  -0.000   0.000   0.000   0.007
  0.000   0.000   0.016   0.005  -0.027   0.000   0.000   0.015
 total augmentation occupancy for first ion, spin component:           1
  2.060   0.006   0.003   0.004  -0.004  -0.292   0.020  -0.006   0.006   0.003   0.015  -0.004  -0.024   0.001   0.002  -0.011
  0.006   2.095   0.006   0.001  -0.003   0.020  -0.083  -0.006  -0.001   0.004   0.047  -0.012   0.001  -0.000   0.003   0.003
  0.003   0.006   2.254   0.040  -0.168  -0.006  -0.006  -0.270  -0.042   0.209   0.772  -0.211  -0.001  -0.010   0.096   0.000
  0.004   0.001   0.040   2.139  -0.041   0.006  -0.001  -0.042  -0.174   0.054   0.233  -0.061   0.001  -0.007   0.025  -0.000
 -0.004  -0.003  -0.168  -0.041   2.320   0.003   0.004   0.209   0.054  -0.377  -0.432   0.137   0.000   0.008  -0.101  -0.000
 -0.292   0.020  -0.006   0.006   0.003   0.486  -0.043   0.008  -0.015  -0.002  -0.013   0.003   0.078  -0.002  -0.002  -0.008
  0.020  -0.083  -0.006  -0.001   0.004  -0.043   0.070   0.006   0.002  -0.004  -0.039   0.009  -0.008   0.000  -0.004   0.001
 -0.006  -0.006  -0.270  -0.042   0.209   0.008   0.006   0.283   0.044  -0.246  -0.657   0.171   0.001   0.007  -0.117  -0.000
  0.006  -0.001  -0.042  -0.174   0.054  -0.015   0.002   0.044   0.203  -0.066  -0.198   0.050  -0.002   0.034  -0.031   0.000
  0.003   0.004   0.209   0.054  -0.377  -0.002  -0.004  -0.246  -0.066   0.427   0.391  -0.123  -0.000  -0.009   0.125  -0.000
  0.015   0.047   0.772   0.233  -0.432  -0.013  -0.039  -0.657  -0.198   0.391   3.192  -0.702  -0.003  -0.039   0.293   0.000
 -0.004  -0.012  -0.211  -0.061   0.137   0.003   0.009   0.171   0.050  -0.123  -0.702   0.161   0.001   0.009  -0.077  -0.000
 -0.024   0.001  -0.001   0.001   0.000   0.078  -0.008   0.001  -0.002  -0.000  -0.003   0.001   0.014  -0.000  -0.000  -0.002
  0.001  -0.000  -0.010  -0.007   0.008  -0.002   0.000   0.007   0.034  -0.009  -0.039   0.009  -0.000   0.006  -0.005   0.000
  0.002   0.003   0.096   0.025  -0.101  -0.002  -0.004  -0.117  -0.031   0.125   0.293  -0.077  -0.000  -0.005   0.055   0.000
 -0.011   0.003   0.000  -0.000  -0.000  -0.008   0.001  -0.000   0.000  -0.000   0.000  -0.000  -0.002   0.000   0.000   0.000
 -0.000   0.000   0.004  -0.015  -0.001   0.000  -0.000  -0.001  -0.003   0.001   0.003  -0.001   0.000  -0.001   0.000  -0.000
 -0.000  -0.000   0.000   0.000  -0.007   0.000   0.000   0.010   0.003  -0.011  -0.021   0.006   0.000   0.000  -0.005  -0.000


------------------------ aborting loop because EDIFF is reached ----------------------------------------


    FORLOC:  cpu time      0.0146: real time      0.0146
    FORHF :  cpu time      0.7511: real time      0.7631
    FORNL :  cpu time      0.2613: real time      0.2614
    FORCOR:  cpu time      3.0067: real time      3.0093
    OFIELD:  cpu time      0.0002: real time      0.0002
 WARNING: Using user supplied parameters
     VDW_S8 = 1.703
     VDW_SR = 1.261
     because the xc functional is not supported. Required parameters not
     defined in the INCAR file will be replaced with PBE defaults ones.


 ---------------------------------------------------------------------------------------------

         DFTD3 V3.0 Rev 1        
 IVDW         = 11
 DF unknown   
 parameters
 VDW_S6       =    1.0000
 VDW_S8       =    1.7030
 VDW_SR       =    1.2610
 rs18     =    1.0000
 alpha6   =   14.0000
 alpha8   =   16.0000
 k1-k3    =   16.0000    1.3333   -4.0000
 VDW_RADIUS   =   50.2022 A
 VDW_CNRADIUS =   21.1671 A
 Edisp (eV)   -0.10758

 E6    (eV) :    -0.0076
 E8    (eV) :    -0.1000
 % E8        : 92.94
    FORVDW:  cpu time      0.0175: real time      0.0176

 VOLUME and BASIS-vectors are now :
 -----------------------------------------------------------------------------
  energy-cutoff  :      520.00
  volume of cell :     9881.61
      direct lattice vectors                 reciprocal lattice vectors
    21.138852197  0.000000000  0.000000000     0.047306258  0.000000000  0.000000000
     0.000000000 21.138852197  0.000000000     0.000000000  0.047306258  0.000000000
     0.000000000  0.000000000 22.113885220     0.000000000  0.000000000  0.045220457

  length of vectors
    21.138852197 21.138852197 22.113885220     0.047306258  0.047306258  0.045220457


 FORCES acting on ions:
    Electron-Ion                     Ewald-Force                    Non-Local-Force
 -----------------------------------------------------------------------------------------------
   0.480E+03 -.326E+01 -.438E+02   -.474E+03 0.321E+01 0.428E+02   -.606E+01 0.553E-01 0.898E+00
   0.182E+01 0.476E+03 0.159E+02   -.178E+01 -.469E+03 -.158E+02   -.474E-01 -.688E+01 -.142E+00
   -.124E+01 -.472E+03 0.656E+02   0.121E+01 0.465E+03 -.647E+02   0.383E-01 0.682E+01 -.858E+00
   -.481E+03 -.600E+00 -.385E+02   0.475E+03 0.564E+00 0.376E+02   0.607E+01 0.385E-01 0.832E+00
 -----------------------------------------------------------------------------------------------
   -.346E-02 -.522E-01 -.778E+00   -.114E-12 -.568E-13 0.000E+00   0.250E-02 0.378E-01 0.730E+00
 
 
 POSITION                                       TOTAL-FORCE (eV/Angst)
 -----------------------------------------------------------------------------------
      6.03778     10.68115     13.92861        -0.344331      0.005268     -0.027368
      8.40302      9.32878     13.74873        -0.005566     -0.062199      0.030599
      8.40867     12.00204     13.60841         0.002757      0.051279      0.026895
     10.77601     10.66514     13.90267         0.347140      0.005652     -0.030126
 -----------------------------------------------------------------------------------
    total drift:                               -0.000274     -0.006556     -0.000667


--------------------------------------------------------------------------------------------------------



  FREE ENERGIE OF THE ION-ELECTRON SYSTEM (eV)
  ---------------------------------------------------
  free  energy   TOTEN  =        -5.99091315 eV

  energy  without entropy=       -5.99091315  energy(sigma->0) =       -5.99091315
 


--------------------------------------------------------------------------------------------------------


    POTLOK:  cpu time      3.2211: real time      3.2230


--------------------------------------------------------------------------------------------------------


     LOOP+:  cpu time    166.5662: real time    167.0092
    4ORBIT:  cpu time      0.0000: real time      0.0000

 total amount of memory used by VASP MPI-rank0   278088. kBytes
=======================================================================

   base      :      30000. kBytes
   nonlr-proj:       1410. kBytes
   fftplans  :      18387. kBytes
   grid      :      15959. kBytes
   one-center:         15. kBytes
   HF        :         64. kBytes
   wavefun   :        801. kBytes
   fock_wrk  :     211452. kBytes
 
  
  
 General timing and accounting informations for this job:
 ========================================================
  
                  Total CPU time used (sec):      184.431
                            User time (sec):      179.991
                          System time (sec):        4.439
                         Elapsed time (sec):      186.438
  
                   Maximum memory used (kb):     1116024.
                   Average memory used (kb):          N/A
  
                          Minor page faults:       190765
                          Major page faults:            0
                 Voluntary context switches:         6182
