 **********************************************************************
                          MRCC program system
 **********************************************************************
 
                              Written by
     Mihaly Kallay, Peter R. Nagy, David Mester, Laszlo Gyevi-Nagy,
        Jozsef Csoka, P. Bernat Szabo, Zoltan Rolik, Gyula Samu,
     Jozsef Csontos, Bence Hegely, Adam Ganyecz, Istvan Ladjanszki,
       Lorant Szegedy, Bence Ladoczki, Klara Petrov, Mate Farkas,
                    Pal D. Mezei, and Reka A. Horvath
 
        Department of Physical Chemistry and Materials Science
            Budapest University of Technology and Economics
                  Budapest P.O.Box 91, H-1521 Hungary
 
                              www.mrcc.hu
 
                      Release date: March 18, 2022

 ************************ 2023-10-21 21:54:08 *************************
 Executing minp...

 Reading input from MINP...
 
 Input file:
 
calc=PBE0
verbosity=3
mem=220GB
symm=off
unit=angs
scfiguess=small
scfalg=locfit1
ECP=MCDHF-ECP-10
basis=bse_ACVTZ
basis_sm=def2-SVP
dfbasis_scf=def2-QZVPP-RI-JK
dfbasis_cor=bse_ACVTZ_mp2fit
scfalg=locfit1
core=0
unit=angs
geom=xyz
4
Cu4_2
Cu    -0.79550424     2.19091526    -0.08195085
Cu    -1.03012119    -2.19091526    -0.91001768
Cu    -0.43608716    -0.14643675    -0.22475424
Cu     1.03012119     1.32773866     0.91001768

ghost=serialno


 
 
 Checking keyword combinations...
 
 Keywords:
 
 active=none
 agrid=ld0006-ld0590
 agrid_pssp=ld0006-ld0194
 agrid_pssp_sm=ld0006-ld0074
 basis=bse_acvtz
 basis_sm=def2-svp
 basopt=off
 bfbasis=none
 bfgsmem=10
 bfgstol=1.0d-3
 bpcompo=0.985
 bpcompv=0.98
 bpdfo=0.985
 bpocc=0.985
 bppdo=0.985
 bppdv=0.98
 bpedo=0.985
 bpedv=0.98
 calc=scf
 ccmaxit=50
 ccprog=mrcc
 ccsdalg=disk
 ccsdmkl=seq
 ccsdrest=off
 ccsdthreads=2
 cctol=6
 charge=0
 cialg=disk
 ciguess=off
 cmpgrp=auto
 comprest=off
 core=corr
 corembed=off
 csapprox=off
 cvs=off
 dboc=off
 delocsomofact=
 dendec=cholesky
 dens=0
 dfalg=lineq
 dfbasis_cab=none
 dfbasis_cor=bse_acvtz_mp2fit
 dfbasis_scf=def2-qzvpp-ri-jk
 dfbasis_scf_sm=def2-qzvpp-ri-jk
 dfintran=drpa
 dft=pbe0
 dhexc=adc(2)
 diag=david
 docc=
 domrad=10.d0
 drpaalg=fit
 dual=off
 dual_df=off
 ecp=mcdhf-ecp-10
 edisp=off
 edisp_embed=off
 embed=off
 etemp=300
 epert=none
 eps=
 espcharge=off
 excrad=1.0
 excrad_fin=0.100000000D-02
 fitting=coulomb
 fmm=off
 fmmord=8
 freq=off
 gamma=1.d0
 gauss=spher
 geom=xyz
 gopt=off
 ghost=serialno
 gtol=7
 grdens=off
 gridbatch_cos=2000
 grtol=10
 guido_ct=off
 hamilton=dc
 iface=none
 intalg=auto
 itol=10
 laptol=1.d-2
 lccoporder=trffirst
 lcorthr=normal
 lccrest=off
 lmp2dens=on
 lnoepso=0.d0
 lnoepsv=1e-6
 boysalg=jacobi
 localcc=off
 localcorrsymm=off
 locintrf=disk
 mact=
 maxact=off
 maxdim=100
 maxex=0
 maxmicroit=100
 mcscfiguess=hf
 mem=220gb
 mmprog=
 molden=on
 mpitasks=1
 mulmet=0
 mult=
 nacto=0
 nactv=0
 naf_amp=1.d-2
 naf_cor=off
 naf_scf=off
 nafalg=albe
 naftyp=
 nchol=auto
 ndeps=1e-3
 nstate=1
 nsing=0
 nto=off
 ntrip=0
 occ=
 occri=off
 oniom=off
 oniom_eechg=off
 oniom_pcm=off
 oniom_qcorr=off
 optalg=
 optmaxit=50
 optetol=1e-6
 optex=0
 optgtol=1e-4
 optstol=1e-3
 orblocc=off
 orbloce=off
 orbloco=off
 orblocv=off
 orblocguess=cholesky
 osveps=1e-3
 ovirt=off
 ovltol=1e-7
 ovosnorb=80.0
 pcm=off
 popul=off
 pressure=100000
 pssp=off
 ptfreq=0.0
 ptthreads=2
 qro=off
 qscf=off
 qmmm=off
 redcost_exc=off
 redcost_tddft=off
 refdet=none
 rest=0
 rgrid=log3
 rism=off
 rohfcore=semicanonical
 rohftype=standard
 scfalg=locfit1
 scf_conv=difficult
 scfdamp=0.7d0
 scfdamp_mode=1
 scfdamp_end=3
 scfdamp_dampstep=0.d0
 scfdamp_dtol=0.0d0
 scfdamp_maxfact=0.7d0
 scfdamp_minfact=0.7d0
 scfdiis=on
 scfdiis_dtol=0.0d0
 scfdiis_end=50
 scfdiis_start=2
 scfdiis_step=1
 scfdiis_watch=off
 scfdiis_wrange=10
 scfdiis_wlimit=5
 scfdiis_delmax=2
 scfdtol=6
 scfext=10
 scfguessdens=
 scfiguess=small
 scfloc=pm
 scflshift=0.20
 scflshift_end=8
 scflshift_dtol=0.0
 scflshift_gaptol=0.20
 scfmaxit=50
 scftype=
 scftol=6
 scspe=1.d0
 scsph=1.d0
 scsps=1.2d0
 scsps_t=1.2d0
 scspt=0.33333333333333
 scspt_t=0.33333333333333
 scspv=1.d0
 spairtol=1e-4
 sqmprog=
 subminp=top
 symm=0
 talg=occ
 temp=298.15
 test=off
 theodore=off
 tlmo=0.999
 tpao=0.94
 tprint=off
 uncontract=off
 unit=angs
 usedisk=2
 verbosity=3
 wpairtol=0.100000000E-05
 
 Calculating integrals for small-basis SCF...

 ************************ 2023-10-21 21:54:09 *************************
 Executing integ...

 Allocation of 220.0 Gbytes of memory...
 
 
 Number of atoms:                  4
 Charge:                           0
 Number of electrons:             76
 Number of core electrons:        32
 Spin multiplicity:                1
 
                 Cartesian coordinates [bohr]      Atomic mass [AMU]  Z
   1  Cu   -1.50328515    4.14022981   -0.15486466    62.929599      29
   2  Cu   -1.94664693   -4.14022981   -1.71968418    62.929599      29
   3  Cu   -0.82408530   -0.27672535   -0.42472396    62.929599      29
   4  Cu    1.94664693    2.50906243    1.71968418    62.929599      29
 
 This molecule is an asymmetric top.
 This molecule is planar.
 
 Point group: C1  
 Computational point group: C1  
 
 Cartesian coordinates in standard orientation [bohr]
   1  Cu    3.02689208   -2.12575790    0.00003506
   2  Cu   -5.13972763   -0.00030177    0.00006538
   3  Cu   -0.91317667    0.00015074   -0.00013551
   4  Cu    3.02601221    2.12590893    0.00003508
 
 Nuclear repulsion energy [au]:        417.165650803070
 
 
 Basis set information:
 
 Maximum angular momentum: i
 Maximum number of contracted Gaussians:   16
 Maximum number of primitive Gaussians:    19
 Spherical harmonic GTOs are used.
 
 
 Conventional basis set:
 
   1  Cu def2-svp [ 14s 9p 5d 1f | 5s 3p 2d 1f ]
   2  Cu def2-svp [ 14s 9p 5d 1f | 5s 3p 2d 1f ]
   3  Cu def2-svp [ 14s 9p 5d 1f | 5s 3p 2d 1f ]
   4  Cu def2-svp [ 14s 9p 5d 1f | 5s 3p 2d 1f ]
 
 Basis functions:
            1             2             3             4             5             6             7             8             9            10
    0    1Cu1s         1Cu2s         1Cu3s         1Cu4s         1Cu5s         1Cu1pz        1Cu1py        1Cu1px        1Cu2pz        1Cu2py    
    1    1Cu2px        1Cu3pz        1Cu3py        1Cu3px        1Cu1d-2       1Cu1d-1       1Cu1d0        1Cu1d+1       1Cu1d+2       1Cu2d-2   
    2    1Cu2d-1       1Cu2d0        1Cu2d+1       1Cu2d+2       1Cu1f-3       1Cu1f-2       1Cu1f-1       1Cu1f0        1Cu1f+1       1Cu1f+2   
    3    1Cu1f+3       2Cu1s         2Cu2s         2Cu3s         2Cu4s         2Cu5s         2Cu1pz        2Cu1py        2Cu1px        2Cu2pz    
    4    2Cu2py        2Cu2px        2Cu3pz        2Cu3py        2Cu3px        2Cu1d-2       2Cu1d-1       2Cu1d0        2Cu1d+1       2Cu1d+2   
    5    2Cu2d-2       2Cu2d-1       2Cu2d0        2Cu2d+1       2Cu2d+2       2Cu1f-3       2Cu1f-2       2Cu1f-1       2Cu1f0        2Cu1f+1   
    6    2Cu1f+2       2Cu1f+3       3Cu1s         3Cu2s         3Cu3s         3Cu4s         3Cu5s         3Cu1pz        3Cu1py        3Cu1px    
    7    3Cu2pz        3Cu2py        3Cu2px        3Cu3pz        3Cu3py        3Cu3px        3Cu1d-2       3Cu1d-1       3Cu1d0        3Cu1d+1   
    8    3Cu1d+2       3Cu2d-2       3Cu2d-1       3Cu2d0        3Cu2d+1       3Cu2d+2       3Cu1f-3       3Cu1f-2       3Cu1f-1       3Cu1f0    
    9    3Cu1f+1       3Cu1f+2       3Cu1f+3       4Cu1s         4Cu2s         4Cu3s         4Cu4s         4Cu5s         4Cu1pz        4Cu1py    
   10    4Cu1px        4Cu2pz        4Cu2py        4Cu2px        4Cu3pz        4Cu3py        4Cu3px        4Cu1d-2       4Cu1d-1       4Cu1d0    
   11    4Cu1d+1       4Cu1d+2       4Cu2d-2       4Cu2d-1       4Cu2d0        4Cu2d+1       4Cu2d+2       4Cu1f-3       4Cu1f-2       4Cu1f-1   
   12    4Cu1f0        4Cu1f+1       4Cu1f+2       4Cu1f+3   
 
 Maximum number of basis functions per shell:   10
 Total number of basis functions:    124
 
 
 Fitting basis set for the SCF calculation:
 
   1  Cu def2-qzvpp-ri-jk [ 19s 14p 12d 10f 7g 3h 1i | 16s 13p 11d 9f 5g 3h 1i ]
   2  Cu def2-qzvpp-ri-jk [ 19s 14p 12d 10f 7g 3h 1i | 16s 13p 11d 9f 5g 3h 1i ]
   3  Cu def2-qzvpp-ri-jk [ 19s 14p 12d 10f 7g 3h 1i | 16s 13p 11d 9f 5g 3h 1i ]
   4  Cu def2-qzvpp-ri-jk [ 19s 14p 12d 10f 7g 3h 1i | 16s 13p 11d 9f 5g 3h 1i ]
 
 Basis functions:
            1             2             3             4             5             6             7             8             9            10
    0    1Cu1s         1Cu2s         1Cu3s         1Cu4s         1Cu5s         1Cu6s         1Cu7s         1Cu8s         1Cu9s         1Cu10s    
    1    1Cu11s        1Cu12s        1Cu13s        1Cu14s        1Cu15s        1Cu16s        1Cu1pz        1Cu1py        1Cu1px        1Cu2pz    
    2    1Cu2py        1Cu2px        1Cu3pz        1Cu3py        1Cu3px        1Cu4pz        1Cu4py        1Cu4px        1Cu5pz        1Cu5py    
    3    1Cu5px        1Cu6pz        1Cu6py        1Cu6px        1Cu7pz        1Cu7py        1Cu7px        1Cu8pz        1Cu8py        1Cu8px    
    4    1Cu9pz        1Cu9py        1Cu9px        1Cu10pz       1Cu10py       1Cu10px       1Cu11pz       1Cu11py       1Cu11px       1Cu12pz   
    5    1Cu12py       1Cu12px       1Cu13pz       1Cu13py       1Cu13px       1Cu1d-2       1Cu1d-1       1Cu1d0        1Cu1d+1       1Cu1d+2   
    6    1Cu2d-2       1Cu2d-1       1Cu2d0        1Cu2d+1       1Cu2d+2       1Cu3d-2       1Cu3d-1       1Cu3d0        1Cu3d+1       1Cu3d+2   
    7    1Cu4d-2       1Cu4d-1       1Cu4d0        1Cu4d+1       1Cu4d+2       1Cu5d-2       1Cu5d-1       1Cu5d0        1Cu5d+1       1Cu5d+2   
    8    1Cu6d-2       1Cu6d-1       1Cu6d0        1Cu6d+1       1Cu6d+2       1Cu7d-2       1Cu7d-1       1Cu7d0        1Cu7d+1       1Cu7d+2   
    9    1Cu8d-2       1Cu8d-1       1Cu8d0        1Cu8d+1       1Cu8d+2       1Cu9d-2       1Cu9d-1       1Cu9d0        1Cu9d+1       1Cu9d+2   
   10    1Cu10d-2      1Cu10d-1      1Cu10d0       1Cu10d+1      1Cu10d+2      1Cu11d-2      1Cu11d-1      1Cu11d0       1Cu11d+1      1Cu11d+2  
   11    1Cu1f-3       1Cu1f-2       1Cu1f-1       1Cu1f0        1Cu1f+1       1Cu1f+2       1Cu1f+3       1Cu2f-3       1Cu2f-2       1Cu2f-1   
   12    1Cu2f0        1Cu2f+1       1Cu2f+2       1Cu2f+3       1Cu3f-3       1Cu3f-2       1Cu3f-1       1Cu3f0        1Cu3f+1       1Cu3f+2   
   13    1Cu3f+3       1Cu4f-3       1Cu4f-2       1Cu4f-1       1Cu4f0        1Cu4f+1       1Cu4f+2       1Cu4f+3       1Cu5f-3       1Cu5f-2   
   14    1Cu5f-1       1Cu5f0        1Cu5f+1       1Cu5f+2       1Cu5f+3       1Cu6f-3       1Cu6f-2       1Cu6f-1       1Cu6f0        1Cu6f+1   
   15    1Cu6f+2       1Cu6f+3       1Cu7f-3       1Cu7f-2       1Cu7f-1       1Cu7f0        1Cu7f+1       1Cu7f+2       1Cu7f+3       1Cu8f-3   
   16    1Cu8f-2       1Cu8f-1       1Cu8f0        1Cu8f+1       1Cu8f+2       1Cu8f+3       1Cu9f-3       1Cu9f-2       1Cu9f-1       1Cu9f0    
   17    1Cu9f+1       1Cu9f+2       1Cu9f+3       1Cu1g-4       1Cu1g-3       1Cu1g-2       1Cu1g-1       1Cu1g0        1Cu1g+1       1Cu1g+2   
   18    1Cu1g+3       1Cu1g+4       1Cu2g-4       1Cu2g-3       1Cu2g-2       1Cu2g-1       1Cu2g0        1Cu2g+1       1Cu2g+2       1Cu2g+3   
   19    1Cu2g+4       1Cu3g-4       1Cu3g-3       1Cu3g-2       1Cu3g-1       1Cu3g0        1Cu3g+1       1Cu3g+2       1Cu3g+3       1Cu3g+4   
   20    1Cu4g-4       1Cu4g-3       1Cu4g-2       1Cu4g-1       1Cu4g0        1Cu4g+1       1Cu4g+2       1Cu4g+3       1Cu4g+4       1Cu5g-4   
   21    1Cu5g-3       1Cu5g-2       1Cu5g-1       1Cu5g0        1Cu5g+1       1Cu5g+2       1Cu5g+3       1Cu5g+4       1Cu1h-5       1Cu1h-4   
   22    1Cu1h-3       1Cu1h-2       1Cu1h-1       1Cu1h0        1Cu1h+1       1Cu1h+2       1Cu1h+3       1Cu1h+4       1Cu1h+5       1Cu2h-5   
   23    1Cu2h-4       1Cu2h-3       1Cu2h-2       1Cu2h-1       1Cu2h0        1Cu2h+1       1Cu2h+2       1Cu2h+3       1Cu2h+4       1Cu2h+5   
   24    1Cu3h-5       1Cu3h-4       1Cu3h-3       1Cu3h-2       1Cu3h-1       1Cu3h0        1Cu3h+1       1Cu3h+2       1Cu3h+3       1Cu3h+4   
   25    1Cu3h+5       1Cu1i-6       1Cu1i-5       1Cu1i-4       1Cu1i-3       1Cu1i-2       1Cu1i-1       1Cu1i0        1Cu1i+1       1Cu1i+2   
   26    1Cu1i+3       1Cu1i+4       1Cu1i+5       1Cu1i+6       2Cu1s         2Cu2s         2Cu3s         2Cu4s         2Cu5s         2Cu6s     
   27    2Cu7s         2Cu8s         2Cu9s         2Cu10s        2Cu11s        2Cu12s        2Cu13s        2Cu14s        2Cu15s        2Cu16s    
   28    2Cu1pz        2Cu1py        2Cu1px        2Cu2pz        2Cu2py        2Cu2px        2Cu3pz        2Cu3py        2Cu3px        2Cu4pz    
   29    2Cu4py        2Cu4px        2Cu5pz        2Cu5py        2Cu5px        2Cu6pz        2Cu6py        2Cu6px        2Cu7pz        2Cu7py    
   30    2Cu7px        2Cu8pz        2Cu8py        2Cu8px        2Cu9pz        2Cu9py        2Cu9px        2Cu10pz       2Cu10py       2Cu10px   
   31    2Cu11pz       2Cu11py       2Cu11px       2Cu12pz       2Cu12py       2Cu12px       2Cu13pz       2Cu13py       2Cu13px       2Cu1d-2   
   32    2Cu1d-1       2Cu1d0        2Cu1d+1       2Cu1d+2       2Cu2d-2       2Cu2d-1       2Cu2d0        2Cu2d+1       2Cu2d+2       2Cu3d-2   
   33    2Cu3d-1       2Cu3d0        2Cu3d+1       2Cu3d+2       2Cu4d-2       2Cu4d-1       2Cu4d0        2Cu4d+1       2Cu4d+2       2Cu5d-2   
   34    2Cu5d-1       2Cu5d0        2Cu5d+1       2Cu5d+2       2Cu6d-2       2Cu6d-1       2Cu6d0        2Cu6d+1       2Cu6d+2       2Cu7d-2   
   35    2Cu7d-1       2Cu7d0        2Cu7d+1       2Cu7d+2       2Cu8d-2       2Cu8d-1       2Cu8d0        2Cu8d+1       2Cu8d+2       2Cu9d-2   
   36    2Cu9d-1       2Cu9d0        2Cu9d+1       2Cu9d+2       2Cu10d-2      2Cu10d-1      2Cu10d0       2Cu10d+1      2Cu10d+2      2Cu11d-2  
   37    2Cu11d-1      2Cu11d0       2Cu11d+1      2Cu11d+2      2Cu1f-3       2Cu1f-2       2Cu1f-1       2Cu1f0        2Cu1f+1       2Cu1f+2   
   38    2Cu1f+3       2Cu2f-3       2Cu2f-2       2Cu2f-1       2Cu2f0        2Cu2f+1       2Cu2f+2       2Cu2f+3       2Cu3f-3       2Cu3f-2   
   39    2Cu3f-1       2Cu3f0        2Cu3f+1       2Cu3f+2       2Cu3f+3       2Cu4f-3       2Cu4f-2       2Cu4f-1       2Cu4f0        2Cu4f+1   
   40    2Cu4f+2       2Cu4f+3       2Cu5f-3       2Cu5f-2       2Cu5f-1       2Cu5f0        2Cu5f+1       2Cu5f+2       2Cu5f+3       2Cu6f-3   
   41    2Cu6f-2       2Cu6f-1       2Cu6f0        2Cu6f+1       2Cu6f+2       2Cu6f+3       2Cu7f-3       2Cu7f-2       2Cu7f-1       2Cu7f0    
   42    2Cu7f+1       2Cu7f+2       2Cu7f+3       2Cu8f-3       2Cu8f-2       2Cu8f-1       2Cu8f0        2Cu8f+1       2Cu8f+2       2Cu8f+3   
   43    2Cu9f-3       2Cu9f-2       2Cu9f-1       2Cu9f0        2Cu9f+1       2Cu9f+2       2Cu9f+3       2Cu1g-4       2Cu1g-3       2Cu1g-2   
   44    2Cu1g-1       2Cu1g0        2Cu1g+1       2Cu1g+2       2Cu1g+3       2Cu1g+4       2Cu2g-4       2Cu2g-3       2Cu2g-2       2Cu2g-1   
   45    2Cu2g0        2Cu2g+1       2Cu2g+2       2Cu2g+3       2Cu2g+4       2Cu3g-4       2Cu3g-3       2Cu3g-2       2Cu3g-1       2Cu3g0    
   46    2Cu3g+1       2Cu3g+2       2Cu3g+3       2Cu3g+4       2Cu4g-4       2Cu4g-3       2Cu4g-2       2Cu4g-1       2Cu4g0        2Cu4g+1   
   47    2Cu4g+2       2Cu4g+3       2Cu4g+4       2Cu5g-4       2Cu5g-3       2Cu5g-2       2Cu5g-1       2Cu5g0        2Cu5g+1       2Cu5g+2   
   48    2Cu5g+3       2Cu5g+4       2Cu1h-5       2Cu1h-4       2Cu1h-3       2Cu1h-2       2Cu1h-1       2Cu1h0        2Cu1h+1       2Cu1h+2   
   49    2Cu1h+3       2Cu1h+4       2Cu1h+5       2Cu2h-5       2Cu2h-4       2Cu2h-3       2Cu2h-2       2Cu2h-1       2Cu2h0        2Cu2h+1   
   50    2Cu2h+2       2Cu2h+3       2Cu2h+4       2Cu2h+5       2Cu3h-5       2Cu3h-4       2Cu3h-3       2Cu3h-2       2Cu3h-1       2Cu3h0    
   51    2Cu3h+1       2Cu3h+2       2Cu3h+3       2Cu3h+4       2Cu3h+5       2Cu1i-6       2Cu1i-5       2Cu1i-4       2Cu1i-3       2Cu1i-2   
   52    2Cu1i-1       2Cu1i0        2Cu1i+1       2Cu1i+2       2Cu1i+3       2Cu1i+4       2Cu1i+5       2Cu1i+6       3Cu1s         3Cu2s     
   53    3Cu3s         3Cu4s         3Cu5s         3Cu6s         3Cu7s         3Cu8s         3Cu9s         3Cu10s        3Cu11s        3Cu12s    
   54    3Cu13s        3Cu14s        3Cu15s        3Cu16s        3Cu1pz        3Cu1py        3Cu1px        3Cu2pz        3Cu2py        3Cu2px    
   55    3Cu3pz        3Cu3py        3Cu3px        3Cu4pz        3Cu4py        3Cu4px        3Cu5pz        3Cu5py        3Cu5px        3Cu6pz    
   56    3Cu6py        3Cu6px        3Cu7pz        3Cu7py        3Cu7px        3Cu8pz        3Cu8py        3Cu8px        3Cu9pz        3Cu9py    
   57    3Cu9px        3Cu10pz       3Cu10py       3Cu10px       3Cu11pz       3Cu11py       3Cu11px       3Cu12pz       3Cu12py       3Cu12px   
   58    3Cu13pz       3Cu13py       3Cu13px       3Cu1d-2       3Cu1d-1       3Cu1d0        3Cu1d+1       3Cu1d+2       3Cu2d-2       3Cu2d-1   
   59    3Cu2d0        3Cu2d+1       3Cu2d+2       3Cu3d-2       3Cu3d-1       3Cu3d0        3Cu3d+1       3Cu3d+2       3Cu4d-2       3Cu4d-1   
   60    3Cu4d0        3Cu4d+1       3Cu4d+2       3Cu5d-2       3Cu5d-1       3Cu5d0        3Cu5d+1       3Cu5d+2       3Cu6d-2       3Cu6d-1   
   61    3Cu6d0        3Cu6d+1       3Cu6d+2       3Cu7d-2       3Cu7d-1       3Cu7d0        3Cu7d+1       3Cu7d+2       3Cu8d-2       3Cu8d-1   
   62    3Cu8d0        3Cu8d+1       3Cu8d+2       3Cu9d-2       3Cu9d-1       3Cu9d0        3Cu9d+1       3Cu9d+2       3Cu10d-2      3Cu10d-1  
   63    3Cu10d0       3Cu10d+1      3Cu10d+2      3Cu11d-2      3Cu11d-1      3Cu11d0       3Cu11d+1      3Cu11d+2      3Cu1f-3       3Cu1f-2   
   64    3Cu1f-1       3Cu1f0        3Cu1f+1       3Cu1f+2       3Cu1f+3       3Cu2f-3       3Cu2f-2       3Cu2f-1       3Cu2f0        3Cu2f+1   
   65    3Cu2f+2       3Cu2f+3       3Cu3f-3       3Cu3f-2       3Cu3f-1       3Cu3f0        3Cu3f+1       3Cu3f+2       3Cu3f+3       3Cu4f-3   
   66    3Cu4f-2       3Cu4f-1       3Cu4f0        3Cu4f+1       3Cu4f+2       3Cu4f+3       3Cu5f-3       3Cu5f-2       3Cu5f-1       3Cu5f0    
   67    3Cu5f+1       3Cu5f+2       3Cu5f+3       3Cu6f-3       3Cu6f-2       3Cu6f-1       3Cu6f0        3Cu6f+1       3Cu6f+2       3Cu6f+3   
   68    3Cu7f-3       3Cu7f-2       3Cu7f-1       3Cu7f0        3Cu7f+1       3Cu7f+2       3Cu7f+3       3Cu8f-3       3Cu8f-2       3Cu8f-1   
   69    3Cu8f0        3Cu8f+1       3Cu8f+2       3Cu8f+3       3Cu9f-3       3Cu9f-2       3Cu9f-1       3Cu9f0        3Cu9f+1       3Cu9f+2   
   70    3Cu9f+3       3Cu1g-4       3Cu1g-3       3Cu1g-2       3Cu1g-1       3Cu1g0        3Cu1g+1       3Cu1g+2       3Cu1g+3       3Cu1g+4   
   71    3Cu2g-4       3Cu2g-3       3Cu2g-2       3Cu2g-1       3Cu2g0        3Cu2g+1       3Cu2g+2       3Cu2g+3       3Cu2g+4       3Cu3g-4   
   72    3Cu3g-3       3Cu3g-2       3Cu3g-1       3Cu3g0        3Cu3g+1       3Cu3g+2       3Cu3g+3       3Cu3g+4       3Cu4g-4       3Cu4g-3   
   73    3Cu4g-2       3Cu4g-1       3Cu4g0        3Cu4g+1       3Cu4g+2       3Cu4g+3       3Cu4g+4       3Cu5g-4       3Cu5g-3       3Cu5g-2   
   74    3Cu5g-1       3Cu5g0        3Cu5g+1       3Cu5g+2       3Cu5g+3       3Cu5g+4       3Cu1h-5       3Cu1h-4       3Cu1h-3       3Cu1h-2   
   75    3Cu1h-1       3Cu1h0        3Cu1h+1       3Cu1h+2       3Cu1h+3       3Cu1h+4       3Cu1h+5       3Cu2h-5       3Cu2h-4       3Cu2h-3   
   76    3Cu2h-2       3Cu2h-1       3Cu2h0        3Cu2h+1       3Cu2h+2       3Cu2h+3       3Cu2h+4       3Cu2h+5       3Cu3h-5       3Cu3h-4   
   77    3Cu3h-3       3Cu3h-2       3Cu3h-1       3Cu3h0        3Cu3h+1       3Cu3h+2       3Cu3h+3       3Cu3h+4       3Cu3h+5       3Cu1i-6   
   78    3Cu1i-5       3Cu1i-4       3Cu1i-3       3Cu1i-2       3Cu1i-1       3Cu1i0        3Cu1i+1       3Cu1i+2       3Cu1i+3       3Cu1i+4   
   79    3Cu1i+5       3Cu1i+6       4Cu1s         4Cu2s         4Cu3s         4Cu4s         4Cu5s         4Cu6s         4Cu7s         4Cu8s     
   80    4Cu9s         4Cu10s        4Cu11s        4Cu12s        4Cu13s        4Cu14s        4Cu15s        4Cu16s        4Cu1pz        4Cu1py    
   81    4Cu1px        4Cu2pz        4Cu2py        4Cu2px        4Cu3pz        4Cu3py        4Cu3px        4Cu4pz        4Cu4py        4Cu4px    
   82    4Cu5pz        4Cu5py        4Cu5px        4Cu6pz        4Cu6py        4Cu6px        4Cu7pz        4Cu7py        4Cu7px        4Cu8pz    
   83    4Cu8py        4Cu8px        4Cu9pz        4Cu9py        4Cu9px        4Cu10pz       4Cu10py       4Cu10px       4Cu11pz       4Cu11py   
   84    4Cu11px       4Cu12pz       4Cu12py       4Cu12px       4Cu13pz       4Cu13py       4Cu13px       4Cu1d-2       4Cu1d-1       4Cu1d0    
   85    4Cu1d+1       4Cu1d+2       4Cu2d-2       4Cu2d-1       4Cu2d0        4Cu2d+1       4Cu2d+2       4Cu3d-2       4Cu3d-1       4Cu3d0    
   86    4Cu3d+1       4Cu3d+2       4Cu4d-2       4Cu4d-1       4Cu4d0        4Cu4d+1       4Cu4d+2       4Cu5d-2       4Cu5d-1       4Cu5d0    
   87    4Cu5d+1       4Cu5d+2       4Cu6d-2       4Cu6d-1       4Cu6d0        4Cu6d+1       4Cu6d+2       4Cu7d-2       4Cu7d-1       4Cu7d0    
   88    4Cu7d+1       4Cu7d+2       4Cu8d-2       4Cu8d-1       4Cu8d0        4Cu8d+1       4Cu8d+2       4Cu9d-2       4Cu9d-1       4Cu9d0    
   89    4Cu9d+1       4Cu9d+2       4Cu10d-2      4Cu10d-1      4Cu10d0       4Cu10d+1      4Cu10d+2      4Cu11d-2      4Cu11d-1      4Cu11d0   
   90    4Cu11d+1      4Cu11d+2      4Cu1f-3       4Cu1f-2       4Cu1f-1       4Cu1f0        4Cu1f+1       4Cu1f+2       4Cu1f+3       4Cu2f-3   
   91    4Cu2f-2       4Cu2f-1       4Cu2f0        4Cu2f+1       4Cu2f+2       4Cu2f+3       4Cu3f-3       4Cu3f-2       4Cu3f-1       4Cu3f0    
   92    4Cu3f+1       4Cu3f+2       4Cu3f+3       4Cu4f-3       4Cu4f-2       4Cu4f-1       4Cu4f0        4Cu4f+1       4Cu4f+2       4Cu4f+3   
   93    4Cu5f-3       4Cu5f-2       4Cu5f-1       4Cu5f0        4Cu5f+1       4Cu5f+2       4Cu5f+3       4Cu6f-3       4Cu6f-2       4Cu6f-1   
   94    4Cu6f0        4Cu6f+1       4Cu6f+2       4Cu6f+3       4Cu7f-3       4Cu7f-2       4Cu7f-1       4Cu7f0        4Cu7f+1       4Cu7f+2   
   95    4Cu7f+3       4Cu8f-3       4Cu8f-2       4Cu8f-1       4Cu8f0        4Cu8f+1       4Cu8f+2       4Cu8f+3       4Cu9f-3       4Cu9f-2   
   96    4Cu9f-1       4Cu9f0        4Cu9f+1       4Cu9f+2       4Cu9f+3       4Cu1g-4       4Cu1g-3       4Cu1g-2       4Cu1g-1       4Cu1g0    
   97    4Cu1g+1       4Cu1g+2       4Cu1g+3       4Cu1g+4       4Cu2g-4       4Cu2g-3       4Cu2g-2       4Cu2g-1       4Cu2g0        4Cu2g+1   
   98    4Cu2g+2       4Cu2g+3       4Cu2g+4       4Cu3g-4       4Cu3g-3       4Cu3g-2       4Cu3g-1       4Cu3g0        4Cu3g+1       4Cu3g+2   
   99    4Cu3g+3       4Cu3g+4       4Cu4g-4       4Cu4g-3       4Cu4g-2       4Cu4g-1       4Cu4g0        4Cu4g+1       4Cu4g+2       4Cu4g+3   
  100    4Cu4g+4       4Cu5g-4       4Cu5g-3       4Cu5g-2       4Cu5g-1       4Cu5g0        4Cu5g+1       4Cu5g+2       4Cu5g+3       4Cu5g+4   
  101    4Cu1h-5       4Cu1h-4       4Cu1h-3       4Cu1h-2       4Cu1h-1       4Cu1h0        4Cu1h+1       4Cu1h+2       4Cu1h+3       4Cu1h+4   
  102    4Cu1h+5       4Cu2h-5       4Cu2h-4       4Cu2h-3       4Cu2h-2       4Cu2h-1       4Cu2h0        4Cu2h+1       4Cu2h+2       4Cu2h+3   
  103    4Cu2h+4       4Cu2h+5       4Cu3h-5       4Cu3h-4       4Cu3h-3       4Cu3h-2       4Cu3h-1       4Cu3h0        4Cu3h+1       4Cu3h+2   
  104    4Cu3h+3       4Cu3h+4       4Cu3h+5       4Cu1i-6       4Cu1i-5       4Cu1i-4       4Cu1i-3       4Cu1i-2       4Cu1i-1       4Cu1i0    
  105    4Cu1i+1       4Cu1i+2       4Cu1i+3       4Cu1i+4       4Cu1i+5       4Cu1i+6   
 
 Maximum number of basis functions per shell:   63
 Total number of basis functions:   1056
 
 
 Effective core potentials:
 
   1  Cu mcdhf-ecp-10        
   2  Cu mcdhf-ecp-10        
   3  Cu mcdhf-ecp-10        
   4  Cu mcdhf-ecp-10        
 
 Initializing the SAD routines for the initial guess...
 Checking the files required for the initial guess...
 Density files have not been found for the initial guess.
 Generating SCFDENSITIES.Cu.def2-svp.0
 CPU time [min]:     0.115                   Wall time [min]:     0.254
 
 Character table for point group C1:
 
          E  
    A     1
 
 Number of basis functions per irrep:
    A     124
 
 
 Density functional: PBE hybrid functional (PBE0)
 Constructing integration grid for DFT...
 Angular integration grid: adaptive 590-point Lebedev quadrature
 Radial integration grid: Log3 quadrature
 Total number of grid points: 80541       
 CPU time [min]:     0.929                   Wall time [min]:     0.280
 
 Calculation of overlap integrals...
 CPU time [min]:     0.932                   Wall time [min]:     0.281
 
 Calculation of the square root of the overlap matrix...
 Minimum eigenvalue of the overlap matrix: 0.258902E-01
 CPU time [min]:     1.001                   Wall time [min]:     0.285
 
 Calculation of kinetic energy integrals...
 CPU time [min]:     1.002                   Wall time [min]:     0.285
 Calculation of dipole moment integrals...
 CPU time [min]:     1.004                   Wall time [min]:     0.285
 Calculation of nuclear attraction integrals...
 CPU time [min]:     1.006                   Wall time [min]:     0.285
 Calculation of core potential integrals...
 CPU time [min]:     1.138                   Wall time [min]:     0.309
 
 Calculation of prescreening integrals...
 CPU time [min]:     1.442                   Wall time [min]:     0.318
 
 Calculation of two-center Coulomb integrals...
   1% done.
  13% done.
  24% done.
  37% done.
  50% done.
  64% done.
  84% done.
  98% done.
 100% done.
 CPU time [min]:     1.635                   Wall time [min]:     0.324
 
 Cholesky decomposition of the two-center matrix...
 Reciprocal of the condition number:  0.609650E-05
 CPU time [min]:     1.690                   Wall time [min]:     0.325
 
 
 Running small-basis SCF...

 ************************ 2023-10-21 21:54:29 *************************
 Executing scf...

 @scfsetup: integrals calculated directly
            mrcc/integ direct run
 @scfsetup: calculating on full matrices
            not using symmetry adapted basis
 @scfsetup: diis switched on
 @scfsetup: number of steps to extrapolate from  10
 @scfsetup: tolerance in energy deviation    0.100000E-05
            tolerance in density deviation    0.100000E-05
 @scfsetup: maximum number of iterations:  50
 @scfsetup: restricted closed shell hf calc
 @scfsetup: starting scf from superposition of atomic densities
 @scfsetup: occupation set:
            from initial orbitals
 @scfsetup: Parameter-set for SCF acceleration: difficult
 @scfsetup: diis runs from iteration:   2
 @scfsetup: diis runs to iteration:  50
 @scfsetup: diis runs in every iteration
 @scfsetup: diiswatch is disabled                   
 @scfsetup: diis dtol criteria to switch on:      0.0000E+00
           (or the iteration number below is reached)
 @scfsetup: static damping scheme
            iteration step criteria to turn damping off: 3
 @scfsetup: dynamic level shifting
            tolarance in HOMO-LUMO gap:  0.200
            tolarance in density deviation:     0.0000E+00
            iteration step criteria to turn level shifting off: 8
 Allocation of 220.0 Gbytes of memory...
 ======================================================================
 ITERATION STEP   1
 CPU time [min]:     0.023                   Wall time [min]:     0.005
 

 SCF control                  : initial
 Damping factor/level shift   : 0.700/0.200
 DIIS [start/end/frequency]   :   2 / 50 /  1

 Constructing Fock-matrix...
 
 Pipek-Mezey localization...
 Step  Convergence
   1   7.374089358190
   2   3.170981594107
   3   0.052180933834
   4   0.000426170488
   5   0.000003618702
   6   0.000000121734
 CPU time [min]:     0.045                   Wall time [min]:     0.006
 
 Constructing local fitting domains...
 Maximum number of atoms in fitting domains:    4
 Average number of atoms in fitting domains:    4.0
 
 First step of Coulomb + first step of exchange...
 Exchange contribution is evaluated for MOs 1 to 38.
   1% done.
  13% done.
  25% done.
  38% done.
  56% done.
  75% done.
  89% done.
 100% done.
 CPU time [min]:     0.578                   Wall time [min]:     0.021
 
 Fitting and assembly step of exchange...
 CPU time [min]:     0.601                   Wall time [min]:     0.024
 
 Second step of Coulomb...
   1% done.
  13% done.
  25% done.
  38% done.
  56% done.
  75% done.
  89% done.
 100% done.
 CPU time [min]:     0.664                   Wall time [min]:     0.026
 
 Calculating the exchange-correlation matrix...
                  0.7500*PBEX [au]:    -61.386088609780
                  1.0000*PBEC [au]:     -3.792712710078
 Exchange-correlation energy  [au]:    -65.178801319859
 CPU time [min]:     1.054                   Wall time [min]:     0.047
 
 Coulomb energy + HF exchange [au]:   1191.617730487930
 Gradient norm:      3.4655E+00
 RMS of [F,P]:                                         0.07343713695674
 RMS of difference density:                            0.02161428816825
 Gap [au]:  0.00640904
 ALPHA OCC:  38
 BETA  OCC:  38
 
 ***KOHN-SHAM ENERGY IN STEP   1 IS          -772.6643361226670095 [AU]
 ======================================================================
 ITERATION STEP   2
 CPU time [min]:     1.087                   Wall time [min]:     0.048
 

 SCF control                  : diis+damping
 Damping factor/level shift   : 0.700/0.200
 DIIS [start/end/frequency]   :   2 / 50 /  1

 Constructing Fock-matrix...
 
 Pipek-Mezey localization...
 Step  Convergence
   1   9.265849886290
   2   5.514785301758
   3   1.293237852286
   4   0.026258204893
   5   0.015559052409
   6   0.000172141803
   7   0.000003615689
   8   0.000000084562
 CPU time [min]:     1.121                   Wall time [min]:     0.049
 
 Constructing local fitting domains...
 Maximum number of atoms in fitting domains:    4
 Average number of atoms in fitting domains:    4.0
 
 First step of Coulomb + first step of exchange...
 Exchange contribution is evaluated for MOs 1 to 38.
   1% done.
  13% done.
  25% done.
  38% done.
  56% done.
  75% done.
  89% done.
 100% done.
 CPU time [min]:     1.241                   Wall time [min]:     0.052
 
 Fitting and assembly step of exchange...
 CPU time [min]:     1.255                   Wall time [min]:     0.053
 
 Second step of Coulomb...
   1% done.
  13% done.
  25% done.
  38% done.
  56% done.
  75% done.
  89% done.
 100% done.
 CPU time [min]:     1.299                   Wall time [min]:     0.054
 
 Calculating the exchange-correlation matrix...
                  0.7500*PBEX [au]:    -59.348668388169
                  1.0000*PBEC [au]:     -3.709472670449
 Exchange-correlation energy  [au]:    -63.058141058618
 CPU time [min]:     1.581                   Wall time [min]:     0.069
 
 Coulomb energy + HF exchange [au]:   1164.226954271287
 Gradient norm:      7.2524E-01
 DIIS is running in this iteration step.
 RMS of [F,P]:                                         0.05826808024936
 RMS of difference density:                            0.02431624337024
 Gap [au]:  0.00757491
 ALPHA OCC:  38
 BETA  OCC:  38
 
 ***KOHN-SHAM ENERGY IN STEP   2 IS          -776.1930223069268777 [AU]
 
 Step comparison  Energy Drift [au]  DIIS error drift  Gradient drift
        1            3.5287E+00         1.5169E-02       2.7403E+00
        2            7.7619E+02         1.0000E-06       2.7403E+00
 ======================================================================
 ITERATION STEP   3
 CPU time [min]:     1.592                   Wall time [min]:     0.070
 

 SCF control                  : diis+damping
 Damping factor/level shift   : 0.700/0.200
 DIIS [start/end/frequency]   :   2 / 50 /  1

 Constructing Fock-matrix...
 
 Pipek-Mezey localization...
 Step  Convergence
   1   7.137790463141
   2   5.798506615564
   3   0.821456227576
   4   0.107347846197
   5   0.004919390983
   6   0.000365810353
   7   0.000046921222
   8   0.000008334119
   9   0.000001852051
  10   0.000000498261
 CPU time [min]:     1.616                   Wall time [min]:     0.070
 
 Constructing local fitting domains...
 Local fitting domains are unchanged.
 
 First step of Coulomb + first step of exchange...
 Exchange contribution is evaluated for MOs 1 to 38.
   1% done.
  13% done.
  25% done.
  38% done.
  56% done.
  75% done.
  89% done.
 100% done.
 CPU time [min]:     1.734                   Wall time [min]:     0.074
 
 Fitting and assembly step of exchange...
 CPU time [min]:     1.740                   Wall time [min]:     0.074
 
 Second step of Coulomb...
   1% done.
  13% done.
  25% done.
  38% done.
  56% done.
  75% done.
  89% done.
 100% done.
 CPU time [min]:     1.784                   Wall time [min]:     0.075
 
 Calculating the exchange-correlation matrix...
                  0.7500*PBEX [au]:    -56.527476171897
                  1.0000*PBEC [au]:     -3.612418304899
 Exchange-correlation energy  [au]:    -60.139894476796
 CPU time [min]:     2.063                   Wall time [min]:     0.091
 
 Coulomb energy + HF exchange [au]:   1125.950961900273
 Gradient norm:      8.1128E-01
 DIIS is running in this iteration step.
 RMS of [F,P]:                                         0.03831937849921
 RMS of difference density:                            0.00788003308510
 Gap [au]:  0.00210771
 ALPHA OCC:  38
 BETA  OCC:  38
 
 ***KOHN-SHAM ENERGY IN STEP   3 IS          -778.8743238303570706 [AU]
 
 Step comparison  Energy Drift [au]  DIIS error drift  Gradient drift
        2            2.6813E+00         1.9949E-02      -8.6043E-02
 Warning! The gradient goes uphill (with respect to previous step).
 Warning! The gradient goes uphill (with respect to step   2 ).
 ======================================================================
 ITERATION STEP   4
 CPU time [min]:     2.074                   Wall time [min]:     0.091
 

 SCF control                  : diis
 Damping factor/level shift   : 0.000/0.200
 DIIS [start/end/frequency]   :   2 / 50 /  1

 Constructing Fock-matrix...
 Inverse square root: The matrix is not positive definite!
 
 Pipek-Mezey localization...
 Step  Convergence
   1  15.374353659782
   2   9.384453256265
   3   4.705135546659
   4   1.221852524686
   5   0.324561179384
   6   0.000695369252
   7   0.000001135360
   8   0.000000012036
 CPU time [min]:     2.097                   Wall time [min]:     0.092
 
 Constructing local fitting domains...
 Local fitting domains are unchanged.
 
 First step of Coulomb + first step of exchange...
 Exchange contribution is evaluated for MOs 1 to 38.
   1% done.
  13% done.
  25% done.
  38% done.
  56% done.
  75% done.
  89% done.
 100% done.
 CPU time [min]:     2.214                   Wall time [min]:     0.095
 
 Fitting and assembly step of exchange...
 CPU time [min]:     2.221                   Wall time [min]:     0.095
 
 Second step of Coulomb...
   1% done.
  13% done.
  25% done.
  38% done.
  56% done.
  75% done.
  89% done.
 100% done.
 CPU time [min]:     2.265                   Wall time [min]:     0.096
 
 Calculating the exchange-correlation matrix...
                  0.7500*PBEX [au]:    -49.158166469017
                  1.0000*PBEC [au]:     -3.451940117540
 Exchange-correlation energy  [au]:    -52.610106586557
 CPU time [min]:     2.544                   Wall time [min]:     0.112
 
 Coulomb energy + HF exchange [au]:   1126.352567850784
 Gradient norm:      5.2134E-01
 DIIS is running in this iteration step.
 RMS of [F,P]:                                         0.04153633368181
 RMS of difference density:                            0.10553726926802
 Gap [au]:  0.00354951
 ALPHA OCC:  38
 BETA  OCC:  38
 
 ***KOHN-SHAM ENERGY IN STEP   4 IS          -769.8589379501795520 [AU]
 
 Step comparison  Energy Drift [au]  DIIS error drift  Gradient drift
        3           -9.0154E+00        -3.2170E-03       2.8994E-01
 Warning! The energy goes uphill (with respect to previous step).
 Warning! The DIIS error goes uphill (with respect to previous step).
 Warning! The DIIS error goes uphill (with respect to step   3 ).
 ======================================================================
 ITERATION STEP   5
 CPU time [min]:     2.553                   Wall time [min]:     0.112
 

 SCF control                  : diis
 Damping factor/level shift   : 0.000/0.200
 DIIS [start/end/frequency]   :   2 / 50 /  1

 Constructing Fock-matrix...
 Inverse square root: The matrix is not positive definite!
 
 Pipek-Mezey localization...
 Step  Convergence
   1  12.879981260465
   2   6.137519838172
   3   2.307844990179
   4   0.485634262055
   5   0.027680865526
   6   0.000221685452
   7   0.000030054730
   8   0.000004115607
   9   0.000000710214
 CPU time [min]:     2.582                   Wall time [min]:     0.113
 
 Constructing local fitting domains...
 Local fitting domains are unchanged.
 
 First step of Coulomb + first step of exchange...
 Exchange contribution is evaluated for MOs 1 to 38.
   1% done.
  13% done.
  25% done.
  38% done.
  56% done.
  75% done.
  89% done.
 100% done.
 CPU time [min]:     2.701                   Wall time [min]:     0.116
 
 Fitting and assembly step of exchange...
 CPU time [min]:     2.707                   Wall time [min]:     0.116
 
 Second step of Coulomb...
   1% done.
  13% done.
  25% done.
  38% done.
  56% done.
  75% done.
  89% done.
 100% done.
 CPU time [min]:     2.751                   Wall time [min]:     0.117
 
 Calculating the exchange-correlation matrix...
                  0.7500*PBEX [au]:    -49.269725768098
                  1.0000*PBEC [au]:     -3.432089520138
 Exchange-correlation energy  [au]:    -52.701815288236
 CPU time [min]:     3.045                   Wall time [min]:     0.133
 
 Coulomb energy + HF exchange [au]:   1059.109611635622
 Gradient norm:      5.8168E+00
 DIIS is running in this iteration step.
 RMS of [F,P]:                                         0.11550428697846
 RMS of difference density:                            0.10284652296882
 Gap [au]:  0.00399145
 ALPHA OCC:  38
 BETA  OCC:  38
 
 ***KOHN-SHAM ENERGY IN STEP   5 IS          -743.1509214897682796 [AU]
 
 Step comparison  Energy Drift [au]  DIIS error drift  Gradient drift
        4           -2.6708E+01        -7.3968E-02      -5.2955E+00
        3           -3.5723E+01        -7.7185E-02      -5.2955E+00
 Warning! The energy goes uphill (with respect to previous step).
 Warning! The DIIS error goes uphill (with respect to previous step).
 Warning! The DIIS error goes uphill (with respect to step   3 ).
 Warning! The gradient goes uphill (with respect to previous step).
 Warning! The gradient goes uphill (with respect to step   4 ).
 ======================================================================
 ITERATION STEP   6
 CPU time [min]:     3.053                   Wall time [min]:     0.133
 

 SCF control                  : diis
 Damping factor/level shift   : 0.000/0.200
 DIIS [start/end/frequency]   :   2 / 50 /  1

 Constructing Fock-matrix...
 Inverse square root: The matrix is not positive definite!
 
 Pipek-Mezey localization...
 Step  Convergence
   1  15.466481378643
   2   9.213271471701
   3   4.960297280204
   4   3.199570533805
   5   0.566934408658
   6   0.048731601209
   7   0.002226511891
   8   0.000133178648
   9   0.000009061744
  10   0.000000625146
 CPU time [min]:     3.077                   Wall time [min]:     0.134
 
 Constructing local fitting domains...
 Local fitting domains are unchanged.
 
 First step of Coulomb + first step of exchange...
 Exchange contribution is evaluated for MOs 1 to 38.
   1% done.
  13% done.
  25% done.
  38% done.
  56% done.
  75% done.
  89% done.
 100% done.
 CPU time [min]:     3.195                   Wall time [min]:     0.137
 
 Fitting and assembly step of exchange...
 CPU time [min]:     3.201                   Wall time [min]:     0.138
 
 Second step of Coulomb...
   1% done.
  13% done.
  25% done.
  38% done.
  56% done.
  75% done.
  89% done.
 100% done.
 CPU time [min]:     3.246                   Wall time [min]:     0.139
 
 Calculating the exchange-correlation matrix...
                  0.7500*PBEX [au]:    -53.992132501408
                  1.0000*PBEC [au]:     -3.576231351875
 Exchange-correlation energy  [au]:    -57.568363853283
 CPU time [min]:     3.525                   Wall time [min]:     0.154
 
 Coulomb energy + HF exchange [au]:   1105.952709128435
 Gradient norm:      8.4447E-01
 DIIS is running in this iteration step.
 RMS of [F,P]:                                         0.01601709198481
 RMS of difference density:                            0.02673332282805
 Gap [au]:  0.03810416
 ALPHA OCC:  38
 BETA  OCC:  38
 
 ***KOHN-SHAM ENERGY IN STEP   6 IS          -781.2113202885486771 [AU]
 
 Step comparison  Energy Drift [au]  DIIS error drift  Gradient drift
        5            3.8060E+01         9.9487E-02       4.9724E+00
        6            2.3370E+00         2.2302E-02      -3.2313E-01
 Warning! The gradient goes uphill (with respect to step   4 ).
 ======================================================================
 ITERATION STEP   7
 CPU time [min]:     3.534                   Wall time [min]:     0.155
 

 SCF control                  : diis
 Damping factor/level shift   : 0.000/0.200
 DIIS [start/end/frequency]   :   2 / 50 /  1

 Constructing Fock-matrix...
 
 Pipek-Mezey localization...
 Step  Convergence
   1   8.634717845739
   2   6.427742121101
   3   1.243167953671
   4   0.174462940039
   5   0.003179046093
   6   0.000036066569
   7   0.000001617257
   8   0.000000122923
   9   0.000000010332
 CPU time [min]:     3.557                   Wall time [min]:     0.155
 
 Constructing local fitting domains...
 Local fitting domains are unchanged.
 
 First step of Coulomb + first step of exchange...
 Exchange contribution is evaluated for MOs 1 to 38.
   1% done.
  13% done.
  25% done.
  38% done.
  56% done.
  75% done.
  89% done.
 100% done.
 CPU time [min]:     3.675                   Wall time [min]:     0.159
 
 Fitting and assembly step of exchange...
 CPU time [min]:     3.682                   Wall time [min]:     0.159
 
 Second step of Coulomb...
   1% done.
  13% done.
  25% done.
  38% done.
  56% done.
  75% done.
  89% done.
 100% done.
 CPU time [min]:     3.726                   Wall time [min]:     0.160
 
 Calculating the exchange-correlation matrix...
                  0.7500*PBEX [au]:    -52.019992503732
                  1.0000*PBEC [au]:     -3.499389100988
 Exchange-correlation energy  [au]:    -55.519381604720
 CPU time [min]:     4.007                   Wall time [min]:     0.175
 
 Coulomb energy + HF exchange [au]:   1078.066073805448
 Gradient norm:      4.4794E+00
 DIIS is running in this iteration step.
 RMS of [F,P]:                                         0.06375840418254
 RMS of difference density:                            0.01668114960292
 Gap [au]:  0.00631237
 ALPHA OCC:  38
 BETA  OCC:  38
 
 ***KOHN-SHAM ENERGY IN STEP   7 IS          -777.2966839110081310 [AU]
 
 Step comparison  Energy Drift [au]  DIIS error drift  Gradient drift
        6           -3.9146E+00        -4.7741E-02      -3.6349E+00
 Warning! The energy goes uphill (with respect to previous step).
 Warning! The DIIS error goes uphill (with respect to previous step).
 Warning! The DIIS error goes uphill (with respect to step   6 ).
 Warning! The gradient goes uphill (with respect to previous step).
 Warning! The gradient goes uphill (with respect to step   4 ).
 ======================================================================
 ITERATION STEP   8
 CPU time [min]:     4.016                   Wall time [min]:     0.176
 

 SCF control                  : diis
 Damping factor/level shift   : 0.000/0.200
 DIIS [start/end/frequency]   :   2 / 50 /  1

 Constructing Fock-matrix...
 
 Pipek-Mezey localization...
 Step  Convergence
   1  13.573625698118
   2   6.961740680326
   3   3.958875996015
   4   1.457009616415
   5   0.379181409804
   6   0.105300343631
   7   0.003203437693
   8   0.000145867632
   9   0.000006794784
  10   0.000000346131
  11   0.000000017105
  12   0.000000000883
 CPU time [min]:     4.041                   Wall time [min]:     0.176
 
 Constructing local fitting domains...
 Local fitting domains are unchanged.
 
 First step of Coulomb + first step of exchange...
 Exchange contribution is evaluated for MOs 1 to 38.
   1% done.
  13% done.
  25% done.
  38% done.
  56% done.
  75% done.
  89% done.
 100% done.
 CPU time [min]:     4.161                   Wall time [min]:     0.180
 
 Fitting and assembly step of exchange...
 CPU time [min]:     4.167                   Wall time [min]:     0.180
 
 Second step of Coulomb...
   1% done.
  13% done.
  25% done.
  38% done.
  56% done.
  75% done.
  89% done.
 100% done.
 CPU time [min]:     4.211                   Wall time [min]:     0.181
 
 Calculating the exchange-correlation matrix...
                  0.7500*PBEX [au]:    -51.021892474540
                  1.0000*PBEC [au]:     -3.469902827250
 Exchange-correlation energy  [au]:    -54.491795301790
 CPU time [min]:     4.491                   Wall time [min]:     0.197
 
 Coulomb energy + HF exchange [au]:   1066.173536011946
 Gradient norm:      7.4770E+00
 DIIS is running in this iteration step.
 RMS of [F,P]:                                         0.08628328419466
 RMS of difference density:                            0.01219841993721
 Gap [au]:  0.01756708
 ALPHA OCC:  38
 BETA  OCC:  38
 
 ***KOHN-SHAM ENERGY IN STEP   8 IS          -771.5827025150144891 [AU]
 
 Step comparison  Energy Drift [au]  DIIS error drift  Gradient drift
        7           -5.7140E+00        -2.2525E-02      -2.9977E+00
        6           -9.6286E+00        -7.0266E-02      -6.9557E+00
 Warning! The energy goes uphill (with respect to previous step).
 Warning! The DIIS error goes uphill (with respect to previous step).
 Warning! The DIIS error goes uphill (with respect to step   6 ).
 Warning! The gradient goes uphill (with respect to previous step).
 Warning! The gradient goes uphill (with respect to step   4 ).
 ======================================================================
 ITERATION STEP   9
 CPU time [min]:     4.499                   Wall time [min]:     0.197
 

 SCF control                  : diis
 Damping factor/level shift   : 0.000/0.000
 DIIS [start/end/frequency]   :   2 / 50 /  1

 Constructing Fock-matrix...
 
 Pipek-Mezey localization...
 Step  Convergence
   1  15.070155979943
   2   4.345103725836
   3   1.669820082400
   4   0.235814871650
   5   0.014173713276
   6   0.000919159369
   7   0.000106988005
   8   0.000012948309
   9   0.000001742860
  10   0.000000235436
  11   0.000000032047
  12   0.000000004419
  13   0.000000000604
 CPU time [min]:     4.523                   Wall time [min]:     0.198
 
 Constructing local fitting domains...
 Local fitting domains are unchanged.
 
 First step of Coulomb + first step of exchange...
 Exchange contribution is evaluated for MOs 1 to 38.
   1% done.
  13% done.
  25% done.
  38% done.
  56% done.
  75% done.
  89% done.
 100% done.
 CPU time [min]:     4.642                   Wall time [min]:     0.201
 
 Fitting and assembly step of exchange...
 CPU time [min]:     4.648                   Wall time [min]:     0.201
 
 Second step of Coulomb...
   1% done.
  13% done.
  25% done.
  38% done.
  56% done.
  75% done.
  89% done.
 100% done.
 CPU time [min]:     4.692                   Wall time [min]:     0.202
 
 Calculating the exchange-correlation matrix...
                  0.7500*PBEX [au]:    -50.525931179071
                  1.0000*PBEC [au]:     -3.457304587095
 Exchange-correlation energy  [au]:    -53.983235766165
 CPU time [min]:     4.971                   Wall time [min]:     0.218
 
 Coulomb energy + HF exchange [au]:   1061.363864377793
 Gradient norm:      7.5702E+00
 DIIS is running in this iteration step.
 RMS of [F,P]:                                         0.09297782210234
 RMS of difference density:                            0.03432168932164
 Gap [au]:  0.03090862
 ALPHA OCC:  38
 BETA  OCC:  38
 
 ***KOHN-SHAM ENERGY IN STEP   9 IS          -767.1246464953740087 [AU]
 
 Step comparison  Energy Drift [au]  DIIS error drift  Gradient drift
        8           -4.4581E+00        -6.6945E-03      -9.3165E-02
        6           -1.4087E+01        -7.6961E-02      -7.0489E+00
 Warning! The energy goes uphill (with respect to previous step).
 Warning! The DIIS error goes uphill (with respect to previous step).
 Warning! The DIIS error goes uphill (with respect to step   6 ).
 Warning! The gradient goes uphill (with respect to previous step).
 Warning! The gradient goes uphill (with respect to step   4 ).
 ======================================================================
 ITERATION STEP  10
 CPU time [min]:     4.988                   Wall time [min]:     0.218
 

 SCF control                  : diis
 Damping factor/level shift   : 0.000/0.000
 DIIS [start/end/frequency]   :   2 / 50 /  1

 Constructing Fock-matrix...
 Inverse square root: The matrix is not positive definite!
 
 Pipek-Mezey localization...
 Step  Convergence
   1  14.697100984148
   2   8.921067412832
   3   5.607906355995
   4   4.378265148429
   5   2.450691290719
   6   1.773653949547
   7   0.169190306891
   8   0.004355717313
   9   0.000053116536
  10   0.000002507841
  11   0.000000099679
  12   0.000000004636
  13   0.000000000209
  14   0.000000000010
 CPU time [min]:     5.013                   Wall time [min]:     0.219
 
 Constructing local fitting domains...
 Local fitting domains are unchanged.
 
 First step of Coulomb + first step of exchange...
 Exchange contribution is evaluated for MOs 1 to 38.
   1% done.
  13% done.
  25% done.
  38% done.
  56% done.
  75% done.
  89% done.
 100% done.
 CPU time [min]:     5.132                   Wall time [min]:     0.222
 
 Fitting and assembly step of exchange...
 CPU time [min]:     5.138                   Wall time [min]:     0.222
 
 Second step of Coulomb...
   1% done.
  13% done.
  25% done.
  38% done.
  56% done.
  75% done.
  89% done.
 100% done.
 CPU time [min]:     5.183                   Wall time [min]:     0.224
 
 Calculating the exchange-correlation matrix...
                  0.7500*PBEX [au]:    -48.815135327743
                  1.0000*PBEC [au]:     -3.446647926064
 Exchange-correlation energy  [au]:    -52.261783253807
 CPU time [min]:     5.462                   Wall time [min]:     0.239
 
 Coulomb energy + HF exchange [au]:   1055.677694629289
 Gradient norm:      1.0234E+01
 DIIS is running in this iteration step.
 RMS of [F,P]:                                         0.10166353528868
 RMS of difference density:                            0.00882251617485
 Gap [au]:  0.01914252
 ALPHA OCC:  38
 BETA  OCC:  38
 
 ***KOHN-SHAM ENERGY IN STEP  10 IS          -741.6036597860033908 [AU]
 
 Step comparison  Energy Drift [au]  DIIS error drift  Gradient drift
        9           -2.5521E+01        -8.6857E-03      -2.6637E+00
        6           -3.9608E+01        -8.5646E-02      -9.7126E+00
 Warning! The energy goes uphill (with respect to previous step).
 Warning! The DIIS error goes uphill (with respect to previous step).
 Warning! The DIIS error goes uphill (with respect to step   6 ).
 Warning! The gradient goes uphill (with respect to previous step).
 Warning! The gradient goes uphill (with respect to step   4 ).
 ======================================================================
 ITERATION STEP  11
 CPU time [min]:     5.471                   Wall time [min]:     0.239
 

 SCF control                  : diis
 Damping factor/level shift   : 0.000/0.000
 DIIS [start/end/frequency]   :   2 / 50 /  1

 Constructing Fock-matrix...
 
 Pipek-Mezey localization...
 Step  Convergence
   1  11.885374089717
   2   3.801343001801
   3   5.826551479675
   4   3.698755338689
   5   1.720444916993
   6   1.157150787089
   7   0.194933906317
   8   0.007728208188
   9   0.000159723570
  10   0.000003993085
  11   0.000000230936
  12   0.000000042985
  13   0.000000019742
  14   0.000000009798
  15   0.000000004903
  16   0.000000002455
  17   0.000000001229
  18   0.000000000615
  19   0.000000000308
  20   0.000000000154
  21   0.000000000077
  22   0.000000000038
  23   0.000000000019
  24   0.000000000010
 CPU time [min]:     5.501                   Wall time [min]:     0.240
 
 Constructing local fitting domains...
 Local fitting domains are unchanged.
 
 First step of Coulomb + first step of exchange...
 Exchange contribution is evaluated for MOs 1 to 38.
   1% done.
  13% done.
  25% done.
  38% done.
  56% done.
  75% done.
  89% done.
 100% done.
 CPU time [min]:     5.619                   Wall time [min]:     0.243
 
 Fitting and assembly step of exchange...
 CPU time [min]:     5.625                   Wall time [min]:     0.244
 
 Second step of Coulomb...
   1% done.
  13% done.
  25% done.
  38% done.
  56% done.
  75% done.
  89% done.
 100% done.
 CPU time [min]:     5.669                   Wall time [min]:     0.245
 
 Calculating the exchange-correlation matrix...
                  0.7500*PBEX [au]:    -49.006155347474
                  1.0000*PBEC [au]:     -3.441782093593
 Exchange-correlation energy  [au]:    -52.447937441067
 CPU time [min]:     5.949                   Wall time [min]:     0.260
 
 Coulomb energy + HF exchange [au]:   1054.240985145359
 Gradient norm:      1.3725E+01
 DIIS is running in this iteration step.
 RMS of [F,P]:                                         0.11690939775351
 RMS of difference density:                            0.01243075211993
 Gap [au]:  0.05278474
 ALPHA OCC:  38
 BETA  OCC:  38
 
 ***KOHN-SHAM ENERGY IN STEP  11 IS          -746.9559560357981809 [AU]
 
 Step comparison  Energy Drift [au]  DIIS error drift  Gradient drift
       10            5.3523E+00        -1.5246E-02      -3.4915E+00
        6           -3.4255E+01        -1.0089E-01      -1.3204E+01
 Warning! The DIIS error goes uphill (with respect to previous step).
 Warning! The DIIS error goes uphill (with respect to step   6 ).
 Warning! The gradient goes uphill (with respect to previous step).
 Warning! The gradient goes uphill (with respect to step   4 ).
 ======================================================================
 ITERATION STEP  12
 CPU time [min]:     5.957                   Wall time [min]:     0.260
 

 SCF control                  : diis
 Damping factor/level shift   : 0.000/0.000
 DIIS [start/end/frequency]   :   2 / 50 /  1

 Constructing Fock-matrix...
 
 Pipek-Mezey localization...
 Step  Convergence
   1  12.397952395247
   2   5.703139097143
   3   4.269647648400
   4   4.874683855943
   5   1.655708346732
   6   0.283714787201
   7   0.096453473911
   8   0.000195199694
   9   0.000016318130
  10   0.000000051415
  11   0.000000002665
  12   0.000000000150
  13   0.000000000004
  14   0.000000000000
 CPU time [min]:     5.982                   Wall time [min]:     0.261
 
 Constructing local fitting domains...
 Local fitting domains are unchanged.
 
 First step of Coulomb + first step of exchange...
 Exchange contribution is evaluated for MOs 1 to 38.
   1% done.
  13% done.
  25% done.
  38% done.
  56% done.
  75% done.
  89% done.
 100% done.
 CPU time [min]:     6.100                   Wall time [min]:     0.265
 
 Fitting and assembly step of exchange...
 CPU time [min]:     6.107                   Wall time [min]:     0.265
 
 Second step of Coulomb...
   1% done.
  13% done.
  25% done.
  38% done.
  56% done.
  75% done.
  89% done.
 100% done.
 CPU time [min]:     6.151                   Wall time [min]:     0.266
 
 Calculating the exchange-correlation matrix...
                  0.7500*PBEX [au]:    -48.733781397474
                  1.0000*PBEC [au]:     -3.451466376089
 Exchange-correlation energy  [au]:    -52.185247773563
 CPU time [min]:     6.430                   Wall time [min]:     0.281
 
 Coulomb energy + HF exchange [au]:   1056.975846816377
 Gradient norm:      6.9804E+00
 DIIS is running in this iteration step.
 RMS of [F,P]:                                         0.08730740249116
 RMS of difference density:                            0.00292080094079
 Gap [au]:  0.05724833
 ALPHA OCC:  38
 BETA  OCC:  38
 
 ***KOHN-SHAM ENERGY IN STEP  12 IS          -739.6801100622280956 [AU]
 
 Step comparison  Energy Drift [au]  DIIS error drift  Gradient drift
       11           -7.2758E+00         2.9602E-02       6.7450E+00
        6           -4.1531E+01        -7.1290E-02      -6.4590E+00
 Warning! The energy goes uphill (with respect to previous step).
 Warning! The DIIS error goes uphill (with respect to step   6 ).
 Warning! The gradient goes uphill (with respect to step   4 ).
 ======================================================================
 ITERATION STEP  13
 CPU time [min]:     6.439                   Wall time [min]:     0.282
 

 SCF control                  : diis
 Damping factor/level shift   : 0.000/0.000
 DIIS [start/end/frequency]   :   2 / 50 /  1

 Constructing Fock-matrix...
 
 Pipek-Mezey localization...
 Step  Convergence
   1  14.014652729037
   2   6.642544357166
   3   7.668085445153
   4   3.268326174134
   5   1.132816911911
   6   0.280127024638
   7   0.017981211335
   8   0.000013505982
   9   0.000000170708
  10   0.000000014373
  11   0.000000000367
  12   0.000000000017
  13   0.000000000000
 CPU time [min]:     6.464                   Wall time [min]:     0.282
 
 Constructing local fitting domains...
 Local fitting domains are unchanged.
 
 First step of Coulomb + first step of exchange...
 Exchange contribution is evaluated for MOs 1 to 38.
   1% done.
  13% done.
  25% done.
  38% done.
  56% done.
  75% done.
  89% done.
 100% done.
 CPU time [min]:     6.582                   Wall time [min]:     0.286
 
 Fitting and assembly step of exchange...
 CPU time [min]:     6.588                   Wall time [min]:     0.286
 
 Second step of Coulomb...
   1% done.
  13% done.
  25% done.
  38% done.
  56% done.
  75% done.
  89% done.
 100% done.
 CPU time [min]:     6.632                   Wall time [min]:     0.287
 
 Calculating the exchange-correlation matrix...
                  0.7500*PBEX [au]:    -48.743954637033
                  1.0000*PBEC [au]:     -3.453490816044
 Exchange-correlation energy  [au]:    -52.197445453077
 CPU time [min]:     6.911                   Wall time [min]:     0.302
 
 Coulomb energy + HF exchange [au]:   1057.798501989712
 Gradient norm:      5.8706E+00
 DIIS is running in this iteration step.
 RMS of [F,P]:                                         0.08362413570628
 RMS of difference density:                            0.00334746229383
 Gap [au]:  0.06521237
 ALPHA OCC:  38
 BETA  OCC:  38
 
 ***KOHN-SHAM ENERGY IN STEP  13 IS          -738.8586543212400102 [AU]
 
 Step comparison  Energy Drift [au]  DIIS error drift  Gradient drift
       12           -8.2146E-01         3.6833E-03       1.1098E+00
        6           -4.2353E+01        -6.7607E-02      -5.3492E+00
 Warning! The energy goes uphill (with respect to previous step).
 Warning! The DIIS error goes uphill (with respect to step   6 ).
 Warning! The gradient goes uphill (with respect to step   4 ).
 ======================================================================
 ITERATION STEP  14
 CPU time [min]:     6.920                   Wall time [min]:     0.303
 

 SCF control                  : diis
 Damping factor/level shift   : 0.000/0.000
 DIIS [start/end/frequency]   :   2 / 50 /  1

 Constructing Fock-matrix...
 
 Pipek-Mezey localization...
 Step  Convergence
   1  16.102836679586
   2   8.253980989011
   3   8.312078511657
   4   6.093425757274
   5   2.864933409078
   6   0.580598747958
   7   0.018551159024
   8   0.000054087448
   9   0.000000731410
  10   0.000000009796
  11   0.000000000358
  12   0.000000000010
  13   0.000000000000
 CPU time [min]:     6.945                   Wall time [min]:     0.303
 
 Constructing local fitting domains...
 Local fitting domains are unchanged.
 
 First step of Coulomb + first step of exchange...
 Exchange contribution is evaluated for MOs 1 to 38.
   1% done.
  13% done.
  25% done.
  38% done.
  56% done.
  75% done.
  89% done.
 100% done.
 CPU time [min]:     7.063                   Wall time [min]:     0.307
 
 Fitting and assembly step of exchange...
 CPU time [min]:     7.070                   Wall time [min]:     0.307
 
 Second step of Coulomb...
   1% done.
  13% done.
  25% done.
  38% done.
  56% done.
  75% done.
  89% done.
 100% done.
 CPU time [min]:     7.114                   Wall time [min]:     0.308
 
 Calculating the exchange-correlation matrix...
                  0.7500*PBEX [au]:    -48.744177883225
                  1.0000*PBEC [au]:     -3.456392872510
 Exchange-correlation energy  [au]:    -52.200570755735
 CPU time [min]:     7.393                   Wall time [min]:     0.323
 
 Coulomb energy + HF exchange [au]:   1058.582708270907
 Gradient norm:      5.1095E+00
 DIIS is running in this iteration step.
 RMS of [F,P]:                                         0.08124565629850
 RMS of difference density:                            0.00106713231757
 Gap [au]:  0.06195575
 ALPHA OCC:  38
 BETA  OCC:  38
 
 ***KOHN-SHAM ENERGY IN STEP  14 IS          -738.2288832419649225 [AU]
 
 Step comparison  Energy Drift [au]  DIIS error drift  Gradient drift
       13           -6.2977E-01         2.3785E-03       7.6104E-01
        6           -4.2982E+01        -6.5229E-02      -4.5882E+00
 Warning! The energy goes uphill (with respect to previous step).
 Warning! The DIIS error goes uphill (with respect to step   6 ).
 Warning! The gradient goes uphill (with respect to step   4 ).
 ======================================================================
 ITERATION STEP  15
 CPU time [min]:     7.402                   Wall time [min]:     0.324
 

 SCF control                  : diis
 Damping factor/level shift   : 0.000/0.000
 DIIS [start/end/frequency]   :   2 / 50 /  1

 Constructing Fock-matrix...
 
 Pipek-Mezey localization...
 Step  Convergence
   1  16.345636031792
   2   5.909132031296
   3   6.331363859039
   4   4.327063823181
   5   1.731514555675
   6   0.565794565380
   7   0.104127740938
   8   0.000562448406
   9   0.000005197291
  10   0.000000013336
  11   0.000000000339
  12   0.000000000015
  13   0.000000000000
 CPU time [min]:     7.426                   Wall time [min]:     0.324
 
 Constructing local fitting domains...
 Local fitting domains are unchanged.
 
 First step of Coulomb + first step of exchange...
 Exchange contribution is evaluated for MOs 1 to 38.
   1% done.
  13% done.
  25% done.
  38% done.
  56% done.
  75% done.
  89% done.
 100% done.
 CPU time [min]:     7.544                   Wall time [min]:     0.328
 
 Fitting and assembly step of exchange...
 CPU time [min]:     7.551                   Wall time [min]:     0.328
 
 Second step of Coulomb...
   1% done.
  13% done.
  25% done.
  38% done.
  56% done.
  75% done.
  89% done.
 100% done.
 CPU time [min]:     7.595                   Wall time [min]:     0.329
 
 Calculating the exchange-correlation matrix...
                  0.7500*PBEX [au]:    -48.744596538730
                  1.0000*PBEC [au]:     -3.455559026244
 Exchange-correlation energy  [au]:    -52.200155564973
 CPU time [min]:     7.874                   Wall time [min]:     0.345
 
 Coulomb energy + HF exchange [au]:   1058.261421640217
 Gradient norm:      5.2151E+00
 DIIS is running in this iteration step.
 RMS of [F,P]:                                         0.08151879541205
 RMS of difference density:                            0.00145886141486
 Gap [au]:  0.06091185
 ALPHA OCC:  38
 BETA  OCC:  38
 
 ***KOHN-SHAM ENERGY IN STEP  15 IS          -738.3047644097996454 [AU]
 
 Step comparison  Energy Drift [au]  DIIS error drift  Gradient drift
       14            7.5881E-02        -2.7314E-04      -1.0555E-01
        6           -4.2907E+01        -6.5502E-02      -4.6937E+00
 Warning! The DIIS error goes uphill (with respect to previous step).
 Warning! The DIIS error goes uphill (with respect to step   6 ).
 Warning! The gradient goes uphill (with respect to previous step).
 Warning! The gradient goes uphill (with respect to step   4 ).
 ======================================================================
 ITERATION STEP  16
 CPU time [min]:     7.883                   Wall time [min]:     0.345
 

 SCF control                  : diis
 Damping factor/level shift   : 0.000/0.000
 DIIS [start/end/frequency]   :   2 / 50 /  1

 Constructing Fock-matrix...
 
 Pipek-Mezey localization...
 Step  Convergence
   1  15.717636076058
   2   5.494634056251
   3   5.151427271163
   4   2.369124740375
   5   0.710343343110
   6   0.011478879457
   7   0.000141035319
   8   0.000002508602
   9   0.000000096507
  10   0.000000002062
  11   0.000000000125
  12   0.000000000003
  13   0.000000000000
 CPU time [min]:     7.907                   Wall time [min]:     0.345
 
 Constructing local fitting domains...
 Local fitting domains are unchanged.
 
 First step of Coulomb + first step of exchange...
 Exchange contribution is evaluated for MOs 1 to 38.
   1% done.
  13% done.
  25% done.
  38% done.
  56% done.
  75% done.
  89% done.
 100% done.
 CPU time [min]:     8.026                   Wall time [min]:     0.349
 
 Fitting and assembly step of exchange...
 CPU time [min]:     8.032                   Wall time [min]:     0.349
 
 Second step of Coulomb...
   1% done.
  13% done.
  25% done.
  38% done.
  56% done.
  75% done.
  89% done.
 100% done.
 CPU time [min]:     8.076                   Wall time [min]:     0.350
 
 Calculating the exchange-correlation matrix...
                  0.7500*PBEX [au]:    -48.760943721321
                  1.0000*PBEC [au]:     -3.455622955107
 Exchange-correlation energy  [au]:    -52.216566676427
 CPU time [min]:     8.356                   Wall time [min]:     0.366
 
 Coulomb energy + HF exchange [au]:   1058.479870376473
 Gradient norm:      5.5380E+00
 DIIS is running in this iteration step.
 RMS of [F,P]:                                         0.08243698389961
 RMS of difference density:                            0.00199583178895
 Gap [au]:  0.05543495
 ALPHA OCC:  38
 BETA  OCC:  38
 
 ***KOHN-SHAM ENERGY IN STEP  16 IS          -738.5543833363278736 [AU]
 
 Step comparison  Energy Drift [au]  DIIS error drift  Gradient drift
       15            2.4962E-01        -9.1819E-04      -3.2289E-01
        6           -4.2657E+01        -6.6420E-02      -5.0166E+00
 Warning! The DIIS error goes uphill (with respect to previous step).
 Warning! The DIIS error goes uphill (with respect to step   6 ).
 Warning! The gradient goes uphill (with respect to previous step).
 Warning! The gradient goes uphill (with respect to step   4 ).
 ======================================================================
 ITERATION STEP  17
 CPU time [min]:     8.365                   Wall time [min]:     0.366
 

 SCF control                  : diis
 Damping factor/level shift   : 0.000/0.000
 DIIS [start/end/frequency]   :   2 / 50 /  1

 Constructing Fock-matrix...
 
 Pipek-Mezey localization...
 Step  Convergence
   1  14.850528499310
   2   6.674898229774
   3   4.901861398665
   4   4.747913417144
   5   3.100332083311
   6   0.920773080842
   7   0.051467660898
   8   0.005007347521
   9   0.000098156928
  10   0.000004927701
  11   0.000000185981
  12   0.000000009548
  13   0.000000000408
  14   0.000000000020
  15   0.000000000001
 CPU time [min]:     8.390                   Wall time [min]:     0.367
 
 Constructing local fitting domains...
 Local fitting domains are unchanged.
 
 First step of Coulomb + first step of exchange...
 Exchange contribution is evaluated for MOs 1 to 38.
   1% done.
  13% done.
  25% done.
  38% done.
  56% done.
  75% done.
  89% done.
 100% done.
 CPU time [min]:     8.508                   Wall time [min]:     0.370
 
 Fitting and assembly step of exchange...
 CPU time [min]:     8.514                   Wall time [min]:     0.370
 
 Second step of Coulomb...
   1% done.
  13% done.
  25% done.
  38% done.
  56% done.
  75% done.
  89% done.
 100% done.
 CPU time [min]:     8.559                   Wall time [min]:     0.371
 
 Calculating the exchange-correlation matrix...
                  0.7500*PBEX [au]:    -48.752156715303
                  1.0000*PBEC [au]:     -3.453524626175
 Exchange-correlation energy  [au]:    -52.205681341478
 CPU time [min]:     8.838                   Wall time [min]:     0.387
 
 Coulomb energy + HF exchange [au]:   1057.653424807350
 Gradient norm:      6.3795E+00
 DIIS is running in this iteration step.
 RMS of [F,P]:                                         0.08521584981951
 RMS of difference density:                            0.00101088440788
 Gap [au]:  0.05763521
 ALPHA OCC:  38
 BETA  OCC:  38
 
 ***KOHN-SHAM ENERGY IN STEP  17 IS          -739.0931584219417800 [AU]
 
 Step comparison  Energy Drift [au]  DIIS error drift  Gradient drift
       16            5.3878E-01        -2.7789E-03      -8.4150E-01
        6           -4.2118E+01        -6.9199E-02      -5.8581E+00
 Warning! The DIIS error goes uphill (with respect to previous step).
 Warning! The DIIS error goes uphill (with respect to step   6 ).
 Warning! The gradient goes uphill (with respect to previous step).
 Warning! The gradient goes uphill (with respect to step   4 ).
 ======================================================================
 ITERATION STEP  18
 CPU time [min]:     8.877                   Wall time [min]:     0.388
 

 SCF control                  : diis
 Damping factor/level shift   : 0.000/0.000
 DIIS [start/end/frequency]   :   2 / 50 /  1

 Constructing Fock-matrix...
 
 Pipek-Mezey localization...
 Step  Convergence
   1  17.149041574367
   2   8.452728800768
   3   7.584192093022
   4   3.176481043164
   5   2.226406979422
   6   0.156061688306
   7   0.052454097831
   8   0.000024822902
   9   0.000002799764
  10   0.000000013667
  11   0.000000000395
  12   0.000000000007
  13   0.000000000000
 CPU time [min]:     8.902                   Wall time [min]:     0.389
 
 Constructing local fitting domains...
 Local fitting domains are unchanged.
 
 First step of Coulomb + first step of exchange...
 Exchange contribution is evaluated for MOs 1 to 38.
   1% done.
  13% done.
  25% done.
  38% done.
  56% done.
  75% done.
  89% done.
 100% done.
 CPU time [min]:     9.021                   Wall time [min]:     0.392
 
 Fitting and assembly step of exchange...
 CPU time [min]:     9.027                   Wall time [min]:     0.392
 
 Second step of Coulomb...
   1% done.
  13% done.
  25% done.
  38% done.
  56% done.
  75% done.
  89% done.
 100% done.
 CPU time [min]:     9.072                   Wall time [min]:     0.393
 
 Calculating the exchange-correlation matrix...
                  0.7500*PBEX [au]:    -48.758277555031
                  1.0000*PBEC [au]:     -3.454410717714
 Exchange-correlation energy  [au]:    -52.212688272745
 CPU time [min]:     9.351                   Wall time [min]:     0.409
 
 Coulomb energy + HF exchange [au]:   1058.055439132117
 Gradient norm:      5.8865E+00
 DIIS is running in this iteration step.
 RMS of [F,P]:                                         0.08357696471373
 RMS of difference density:                            0.00076024454223
 Gap [au]:  0.05611167
 ALPHA OCC:  38
 BETA  OCC:  38
 
 ***KOHN-SHAM ENERGY IN STEP  18 IS          -738.7956344552069368 [AU]
 
 Step comparison  Energy Drift [au]  DIIS error drift  Gradient drift
       17           -2.9752E-01         1.6389E-03       4.9296E-01
        6           -4.2416E+01        -6.7560E-02      -5.3652E+00
 Warning! The energy goes uphill (with respect to previous step).
 Warning! The DIIS error goes uphill (with respect to step   6 ).
 Warning! The gradient goes uphill (with respect to step   4 ).
 ======================================================================
 ITERATION STEP  19
 CPU time [min]:     9.359                   Wall time [min]:     0.409
 

 SCF control                  : diis
 Damping factor/level shift   : 0.000/0.000
 DIIS [start/end/frequency]   :   2 / 50 /  1

 Constructing Fock-matrix...
 
 Pipek-Mezey localization...
 Step  Convergence
   1  14.721450523334
   2   7.218041980850
   3   6.277835945294
   4   4.248860374791
   5   1.988409254661
   6   0.297531310902
   7   0.002823624980
   8   0.000011043558
   9   0.000000474154
  10   0.000000007669
  11   0.000000000267
  12   0.000000000013
  13   0.000000000000
 CPU time [min]:     9.383                   Wall time [min]:     0.410
 
 Constructing local fitting domains...
 Local fitting domains are unchanged.
 
 First step of Coulomb + first step of exchange...
 Exchange contribution is evaluated for MOs 1 to 38.
   1% done.
  13% done.
  25% done.
  38% done.
  56% done.
  75% done.
  89% done.
 100% done.
 CPU time [min]:     9.502                   Wall time [min]:     0.413
 
 Fitting and assembly step of exchange...
 CPU time [min]:     9.508                   Wall time [min]:     0.413
 
 Second step of Coulomb...
   1% done.
  13% done.
  25% done.
  38% done.
  56% done.
  75% done.
  89% done.
 100% done.
 CPU time [min]:     9.553                   Wall time [min]:     0.414
 
 Calculating the exchange-correlation matrix...
                  0.7500*PBEX [au]:    -48.753795825931
                  1.0000*PBEC [au]:     -3.453782409766
 Exchange-correlation energy  [au]:    -52.207578235697
 CPU time [min]:     9.832                   Wall time [min]:     0.430
 
 Coulomb energy + HF exchange [au]:   1057.771232744630
 Gradient norm:      6.2364E+00
 DIIS is running in this iteration step.
 RMS of [F,P]:                                         0.08475671453969
 RMS of difference density:                            0.00063757325749
 Gap [au]:  0.05727021
 ALPHA OCC:  38
 BETA  OCC:  38
 
 ***KOHN-SHAM ENERGY IN STEP  19 IS          -739.0135652610504167 [AU]
 
 Step comparison  Energy Drift [au]  DIIS error drift  Gradient drift
       18            2.1793E-01        -1.1797E-03      -3.4987E-01
        6           -4.2198E+01        -6.8740E-02      -5.7150E+00
 Warning! The DIIS error goes uphill (with respect to previous step).
 Warning! The DIIS error goes uphill (with respect to step   6 ).
 Warning! The gradient goes uphill (with respect to previous step).
 Warning! The gradient goes uphill (with respect to step   4 ).
 ======================================================================
 ITERATION STEP  20
 CPU time [min]:     9.840                   Wall time [min]:     0.430
 

 SCF control                  : diis
 Damping factor/level shift   : 0.000/0.000
 DIIS [start/end/frequency]   :   2 / 50 /  1

 Constructing Fock-matrix...
 
 Pipek-Mezey localization...
 Step  Convergence
   1  17.418636957287
   2   6.770155592303
   3   5.524480997939
   4   4.978162357337
   5   2.396462175145
   6   0.188613171379
   7   0.004051500265
   8   0.000024940319
   9   0.000000788174
  10   0.000000016676
  11   0.000000000838
  12   0.000000000016
  13   0.000000000001
 CPU time [min]:     9.865                   Wall time [min]:     0.431
 
 Constructing local fitting domains...
 Local fitting domains are unchanged.
 
 First step of Coulomb + first step of exchange...
 Exchange contribution is evaluated for MOs 1 to 38.
   1% done.
  13% done.
  25% done.
  38% done.
  56% done.
  75% done.
  89% done.
 100% done.
 CPU time [min]:     9.983                   Wall time [min]:     0.434
 
 Fitting and assembly step of exchange...
 CPU time [min]:     9.990                   Wall time [min]:     0.434
 
 Second step of Coulomb...
   1% done.
  13% done.
  25% done.
  38% done.
  56% done.
  75% done.
  89% done.
 100% done.
 CPU time [min]:    10.034                   Wall time [min]:     0.435
 
 Calculating the exchange-correlation matrix...
                  0.7500*PBEX [au]:    -48.754549723288
                  1.0000*PBEC [au]:     -3.454155859410
 Exchange-correlation energy  [au]:    -52.208705582698
 CPU time [min]:    10.313                   Wall time [min]:     0.451
 
 Coulomb energy + HF exchange [au]:   1057.878392064173
 Gradient norm:      6.0362E+00
 DIIS is running in this iteration step.
 RMS of [F,P]:                                         0.08400618954149
 RMS of difference density:                            0.00022456396670
 Gap [au]:  0.05732117
 ALPHA OCC:  38
 BETA  OCC:  38
 
 ***KOHN-SHAM ENERGY IN STEP  20 IS          -738.8599682682363436 [AU]
 
 Step comparison  Energy Drift [au]  DIIS error drift  Gradient drift
       19           -1.5360E-01         7.5052E-04       2.0016E-01
        6           -4.2351E+01        -6.7989E-02      -5.5149E+00
 Warning! The energy goes uphill (with respect to previous step).
 Warning! The DIIS error goes uphill (with respect to step   6 ).
 Warning! The gradient goes uphill (with respect to step   4 ).
 ======================================================================
 ITERATION STEP  21
 CPU time [min]:    10.321                   Wall time [min]:     0.451
 

 SCF control                  : diis
 Damping factor/level shift   : 0.000/0.000
 DIIS [start/end/frequency]   :   2 / 50 /  1

 Constructing Fock-matrix...
 
 Pipek-Mezey localization...
 Step  Convergence
   1  16.344665527081
   2   9.183866470086
   3   6.975805503747
   4   6.939834078044
   5   4.244692414167
   6   1.449044001929
   7   0.060431097020
   8   0.001468912832
   9   0.000074061607
  10   0.000003488207
  11   0.000000203757
  12   0.000000010100
  13   0.000000000555
  14   0.000000000028
  15   0.000000000001
  16   0.000000000000
 CPU time [min]:    10.348                   Wall time [min]:     0.452
 
 Constructing local fitting domains...
 Local fitting domains are unchanged.
 
 First step of Coulomb + first step of exchange...
 Exchange contribution is evaluated for MOs 1 to 38.
   1% done.
  13% done.
  25% done.
  38% done.
  56% done.
  75% done.
  89% done.
 100% done.
 CPU time [min]:    10.466                   Wall time [min]:     0.455
 
 Fitting and assembly step of exchange...
 CPU time [min]:    10.472                   Wall time [min]:     0.455
 
 Second step of Coulomb...
   1% done.
  13% done.
  25% done.
  38% done.
  56% done.
  75% done.
  89% done.
 100% done.
 CPU time [min]:    10.516                   Wall time [min]:     0.457
 
 Calculating the exchange-correlation matrix...
                  0.7500*PBEX [au]:    -48.749802253577
                  1.0000*PBEC [au]:     -3.454082593406
 Exchange-correlation energy  [au]:    -52.203884846983
 CPU time [min]:    10.796                   Wall time [min]:     0.472
 
 Coulomb energy + HF exchange [au]:   1057.844935562182
 Gradient norm:      5.9349E+00
 DIIS is running in this iteration step.
 RMS of [F,P]:                                         0.08373121426222
 RMS of difference density:                            0.00051112498711
 Gap [au]:  0.05688648
 ALPHA OCC:  38
 BETA  OCC:  38
 
 ***KOHN-SHAM ENERGY IN STEP  21 IS          -738.8072214779208480 [AU]
 
 Step comparison  Energy Drift [au]  DIIS error drift  Gradient drift
       20           -5.2747E-02         2.7498E-04       1.0133E-01
        6           -4.2404E+01        -6.7714E-02      -5.4135E+00
 Warning! The energy goes uphill (with respect to previous step).
[...]
   31   A         -0.257345      -0.257345
   32   A         -0.254704      -0.254704
   33   A         -0.231438      -0.231438
   34   A         -0.231425      -0.231425
   35   A         -0.226707      -0.226707
   36   A         -0.226468      -0.226468
   37   A         -0.225311      -0.225311
   38   A         -0.184880      -0.184880
 
   39   A         -0.100041      -0.100041
   40   A         -0.063922      -0.063922
   41   A         -0.043967      -0.043967
   42   A         -0.010934      -0.010934
   43   A         -0.006240      -0.006240
   44   A          0.002864       0.002864
   45   A          0.009092       0.009092
   46   A          0.015743       0.015743
   47   A          0.021119       0.021119
   48   A          0.024061       0.024061
   49   A          0.030179       0.030179
   50   A          0.032701       0.032701
   51   A          0.035963       0.035963
   52   A          0.038456       0.038456
   53   A          0.041502       0.041502
   54   A          0.044244       0.044244
   55   A          0.052854       0.052854
   56   A          0.053368       0.053368
   57   A          0.058834       0.058834
   58   A          0.068610       0.068610
   59   A          0.074341       0.074341
   60   A          0.075349       0.075349
   61   A          0.081220       0.081220
   62   A          0.085404       0.085404
   63   A          0.094235       0.094235
   64   A          0.109012       0.109012
   65   A          0.109188       0.109188
   66   A          0.113484       0.113484
   67   A          0.131802       0.131802
   68   A          0.134134       0.134134
   69   A          0.138511       0.138511
   70   A          0.152515       0.152515
   71   A          0.157253       0.157253
   72   A          0.161631       0.161631
   73   A          0.182982       0.182982
   74   A          0.183884       0.183884
   75   A          0.189622       0.189622
   76   A          0.192533       0.192533
   77   A          0.195922       0.195922
   78   A          0.207250       0.207250
   79   A          0.214337       0.214337
   80   A          0.221551       0.221551
   81   A          0.224560       0.224560
   82   A          0.229609       0.229609
   83   A          0.233256       0.233256
   84   A          0.237475       0.237475
   85   A          0.239843       0.239843
   86   A          0.251440       0.251440
   87   A          0.254368       0.254368
   88   A          0.254864       0.254864
   89   A          0.266170       0.266170
   90   A          0.271830       0.271830
   91   A          0.275160       0.275160
   92   A          0.290345       0.290345
   93   A          0.291861       0.291861
   94   A          0.296805       0.296805
   95   A          0.297248       0.297248
   96   A          0.298002       0.298002
   97   A          0.345725       0.345725
   98   A          0.387921       0.387921
   99   A          0.406518       0.406518
  100   A          0.442328       0.442328
  101   A          0.475037       0.475037
  102   A          0.494972       0.494972
  103   A          0.513556       0.513556
  104   A          0.517191       0.517191
  105   A          0.527796       0.527796
  106   A          0.540255       0.540255
  107   A          0.545141       0.545141
  108   A          0.556945       0.556945
  109   A          0.579384       0.579384
  110   A          0.588843       0.588843
  111   A          0.601955       0.601955
  112   A          0.640319       0.640319
  113   A          0.651269       0.651269
  114   A          0.655384       0.655384
  115   A          0.679453       0.679453
  116   A          0.687578       0.687578
  117   A          0.715544       0.715544
  118   A          0.730326       0.730326
  119   A          0.736910       0.736910
  120   A          0.763450       0.763450
  121   A          0.795711       0.795711
  122   A          0.806273       0.806273
  123   A          0.811384       0.811384
  124   A          0.861167       0.861167
  125   A          0.872157       0.872157
  126   A          0.893288       0.893288
  127   A          0.898724       0.898724
  128   A          0.906557       0.906557
  129   A          0.927636       0.927636
  130   A          0.932847       0.932847
  131   A          0.993111       0.993111
  132   A          1.002320       1.002320
  133   A          1.046335       1.046335
  134   A          1.094372       1.094372
  135   A          1.105670       1.105670
  136   A          1.118577       1.118577
  137   A          1.169908       1.169908
  138   A          1.225931       1.225931
  139   A          1.284487       1.284487
  140   A          1.313800       1.313800
  141   A          1.341416       1.341416
  142   A          1.376137       1.376137
  143   A          1.387759       1.387759
  144   A          1.402362       1.402362
  145   A          1.475564       1.475564
  146   A          1.487153       1.487153
  147   A          1.493445       1.493445
  148   A          1.520579       1.520579
  149   A          1.531957       1.531957
  150   A          1.533110       1.533110
  151   A          1.547250       1.547250
  152   A          1.560886       1.560886
  153   A          1.590761       1.590761
  154   A          1.594074       1.594074
  155   A          1.620417       1.620417
  156   A          1.633999       1.633999
  157   A          1.743496       1.743496
  158   A          1.754318       1.754318
  159   A          1.803444       1.803444
  160   A          1.843857       1.843857
  161   A          1.851331       1.851331
  162   A          1.857994       1.857994
  163   A          1.869698       1.869698
  164   A          1.879505       1.879505
  165   A          1.890283       1.890283
  166   A          1.907863       1.907863
  167   A          1.909367       1.909367
  168   A          1.909884       1.909884
  169   A          1.926100       1.926100
  170   A          1.934542       1.934542
  171   A          1.952242       1.952242
  172   A          1.953613       1.953613
  173   A          1.960845       1.960845
  174   A          1.974590       1.974590
  175   A          1.977908       1.977908
  176   A          2.016876       2.016876
  177   A          2.046886       2.046886
  178   A          2.046978       2.046978
  179   A          2.149276       2.149276
  180   A          2.153993       2.153993
  181   A          2.170422       2.170422
  182   A          2.214083       2.214083
  183   A          2.274472       2.274472
  184   A          2.275879       2.275879
  185   A          2.516589       2.516589
  186   A          2.528071       2.528071
  187   A          2.917439       2.917439
  188   A          3.443163       3.443163
  189   A          3.652847       3.652847
  190   A          3.694801       3.694801
  191   A          3.708440       3.708440
  192   A          3.718576       3.718576
  193   A          3.742424       3.742424
  194   A          3.756565       3.756565
  195   A          3.767677       3.767677
  196   A          3.773346       3.773346
  197   A          3.785885       3.785885
  198   A          3.813224       3.813224
  199   A          3.846738       3.846738
  200   A          4.009485       4.009485
  201   A          4.056965       4.056965
  202   A          4.341503       4.341503
  203   A          4.365155       4.365155
  204   A          4.385656       4.385656
  205   A          4.417021       4.417021
  206   A          4.418132       4.418132
  207   A          4.427368       4.427368
  208   A          4.446691       4.446691
  209   A          4.453288       4.453288
  210   A          4.456309       4.456309
  211   A          4.457875       4.457875
  212   A          4.466845       4.466845
  213   A          4.467228       4.467228
  214   A          4.481045       4.481045
  215   A          4.502791       4.502791
  216   A          4.506943       4.506943
  217   A          4.508186       4.508186
  218   A          4.561280       4.561280
  219   A          4.595649       4.595649
  220   A          4.606417       4.606417
  221   A          4.653633       4.653633
  222   A          4.703516       4.703516
  223   A          4.709631       4.709631
  224   A          4.721658       4.721658
  225   A          4.738044       4.738044
  226   A          4.769199       4.769199
  227   A          4.776358       4.776358
  228   A          4.840633       4.840633
  229   A          4.881679       4.881679
  230   A          4.922598       4.922598
  231   A          4.941991       4.941991
  232   A          5.085140       5.085140
  233   A          5.483647       5.483647
  234   A          5.497988       5.497988
  235   A          5.520104       5.520104
  236   A          5.520454       5.520454
  237   A          5.525893       5.525893
  238   A          5.556523       5.556523
  239   A          5.585075       5.585075
  240   A          5.614839       5.614839
  241   A          5.617672       5.617672
  242   A          5.632984       5.632984
  243   A          5.638192       5.638192
  244   A          5.642426       5.642426
  245   A          5.649671       5.649671
  246   A          5.679428       5.679428
  247   A          5.696645       5.696645
  248   A          5.708285       5.708285
  249   A          5.714746       5.714746
  250   A          5.740671       5.740671
  251   A          5.789402       5.789402
  252   A          5.789533       5.789533
  253   A          5.798750       5.798750
  254   A          5.801637       5.801637
  255   A          5.802239       5.802239
  256   A          5.803555       5.803555
  257   A          5.804719       5.804719
  258   A          5.806336       5.806336
  259   A          5.808086       5.808086
  260   A          5.808962       5.808962
  261   A          5.817402       5.817402
  262   A          5.820006       5.820006
  263   A          5.830787       5.830787
  264   A          5.832044       5.832044
  265   A          5.832771       5.832771
  266   A          5.852467       5.852467
  267   A          5.852729       5.852729
  268   A          5.854580       5.854580
  269   A          5.855880       5.855880
  270   A          5.855884       5.855884
  271   A          5.858096       5.858096
  272   A          5.864056       5.864056
  273   A          5.864597       5.864597
  274   A          5.864838       5.864838
  275   A          5.877599       5.877599
  276   A          5.904098       5.904098
  277   A          5.912179       5.912179
  278   A          5.920737       5.920737
  279   A          5.939396       5.939396
  280   A          6.021376       6.021376
  281   A          6.027217       6.027217
  282   A          6.078061       6.078061
  283   A          6.079460       6.079460
  284   A          6.081161       6.081161
  285   A          6.474722       6.474722
  286   A          6.549315       6.549315
  287   A          6.902289       6.902289
  288   A          7.015032       7.015032
  289   A         11.631500      11.631500
  290   A         11.662915      11.662915
  291   A         11.680712      11.680712
  292   A         11.682760      11.682760
  293   A         11.683577      11.683577
  294   A         11.709447      11.709447
  295   A         11.715305      11.715305
  296   A         11.719343      11.719343
  297   A         11.719642      11.719642
  298   A         11.719798      11.719798
  299   A         11.741815      11.741815
  300   A         11.745144      11.745144
  301   A         11.747934      11.747934
  302   A         11.756872      11.756872
  303   A         11.820327      11.820327
  304   A         11.831475      11.831475
  305   A         11.858072      11.858072
  306   A         11.864490      11.864490
  307   A         11.867845      11.867845
  308   A         11.881326      11.881326
  309   A         11.881469      11.881469
  310   A         11.907052      11.907052
  311   A         11.954473      11.954473
  312   A         11.961809      11.961809
  313   A         11.965807      11.965807
  314   A         12.001730      12.001730
  315   A         12.056997      12.056997
  316   A         12.100789      12.100789
  317   A         14.177382      14.177382
  318   A         14.231823      14.231823
  319   A         14.233334      14.233334
  320   A         14.258489      14.258489
  321   A         14.299191      14.299191
  322   A         14.301177      14.301177
  323   A         14.335840      14.335840
  324   A         14.363025      14.363025
  325   A         14.554084      14.554084
  326   A         14.575662      14.575662
  327   A         14.642349      14.642349
  328   A         14.948461      14.948461
  329   A         15.796211      15.796211
  330   A         15.800486      15.800486
  331   A         15.818185      15.818185
  332   A         15.829614      15.829614
  333   A         15.830008      15.830008
  334   A         15.846283      15.846283
  335   A         15.848321      15.848321
  336   A         15.880149      15.880149
  337   A         15.891106      15.891106
  338   A         15.891738      15.891738
  339   A         15.903176      15.903176
  340   A         15.907516      15.907516
  341   A         15.919355      15.919355
  342   A         15.931047      15.931047
  343   A         15.972032      15.972032
  344   A         15.974065      15.974065
  345   A         15.974868      15.974868
  346   A         15.992651      15.992651
  347   A         16.041339      16.041339
  348   A         16.046985      16.046985
  349   A         16.083795      16.083795
  350   A         16.086565      16.086565
  351   A         16.088292      16.088292
  352   A         16.091217      16.091217
  353   A         16.091813      16.091813
  354   A         16.091831      16.091831
  355   A         16.092446      16.092446
  356   A         16.094214      16.094214
  357   A         16.099130      16.099130
  358   A         16.099992      16.099992
  359   A         16.101845      16.101845
  360   A         16.108537      16.108537
  361   A         16.111571      16.111571
  362   A         16.113426      16.113426
  363   A         16.118871      16.118871
  364   A         16.119739      16.119739
  365   A         16.123555      16.123555
  366   A         16.136356      16.136356
  367   A         16.141512      16.141512
  368   A         16.142722      16.142722
  369   A         16.142723      16.142723
  370   A         16.145053      16.145053
  371   A         16.145191      16.145191
  372   A         16.145218      16.145218
  373   A         16.147467      16.147467
  374   A         16.148085      16.148085
  375   A         16.151060      16.151060
  376   A         16.196076      16.196076
  377   A         16.197353      16.197353
  378   A         16.205944      16.205944
  379   A         16.217245      16.217245
  380   A         16.244725      16.244725
  381   A         16.311130      16.311130
  382   A         16.316813      16.316813
  383   A         16.480277      16.480277
  384   A         16.661644      16.661644
  385   A         16.679669      16.679669
  386   A         17.062607      17.062607
  387   A         17.447009      17.447009
  388   A         17.513282      17.513282
  389   A         31.817733      31.817733
  390   A         31.837869      31.837869
  391   A         31.850497      31.850497
  392   A         31.851263      31.851263
  393   A         31.851928      31.851928
  394   A         31.865405      31.865405
  395   A         31.875294      31.875294
  396   A         31.880340      31.880340
  397   A         31.887928      31.887928
  398   A         31.888245      31.888245
  399   A         31.898303      31.898303
  400   A         31.898719      31.898719
  401   A         31.905911      31.905911
  402   A         31.906610      31.906610
  403   A         31.952060      31.952060
  404   A         31.962195      31.962195
  405   A         31.974505      31.974505
  406   A         31.977485      31.977485
  407   A         31.986040      31.986040
  408   A         31.987198      31.987198
  409   A         31.991848      31.991848
  410   A         32.014348      32.014348
  411   A         32.045524      32.045524
  412   A         32.048208      32.048208
  413   A         32.062726      32.062726
  414   A         32.079248      32.079248
  415   A         32.129099      32.129099
  416   A         32.141075      32.141075
  417   A         39.251570      39.251570
  418   A         39.273502      39.273502
  419   A         39.273764      39.273764
  420   A         39.280966      39.280966
  421   A         39.281374      39.281374
  422   A         39.305850      39.305850
  423   A         39.321704      39.321704
  424   A         39.327434      39.327434
  425   A         39.339237      39.339237
  426   A         39.356150      39.356150
  427   A         39.359923      39.359923
  428   A         39.360908      39.360908
  429   A         39.398412      39.398412
  430   A         39.405539      39.405539
  431   A         39.448674      39.448674
  432   A         39.456852      39.456852
  433   A         39.564900      39.564900
  434   A         39.687490      39.687490
  435   A         39.787992      39.787992
  436   A         39.889387      39.889387
  437   A         41.028773      41.028773
  438   A         41.029237      41.029237
  439   A         41.032595      41.032595
  440   A         41.032731      41.032731
  441   A         41.035428      41.035428
  442   A         41.035457      41.035457
  443   A         41.035464      41.035464
  444   A         41.035787      41.035787
  445   A         41.036734      41.036734
  446   A         41.039615      41.039615
  447   A         41.039654      41.039654
  448   A         41.040248      41.040248
  449   A         41.041052      41.041052
  450   A         41.044428      41.044428
  451   A         41.051821      41.051821
  452   A         41.051823      41.051823
  453   A         41.051883      41.051883
  454   A         41.052739      41.052739
  455   A         41.056239      41.056239
  456   A         41.063261      41.063261
  457   A         41.068239      41.068239
  458   A         41.075204      41.075204
  459   A         41.079516      41.079516
  460   A         41.080240      41.080240
  461   A         41.086310      41.086310
  462   A         41.086394      41.086394
  463   A         41.087442      41.087442
  464   A         41.087529      41.087529
  465   A         41.087653      41.087653
  466   A         41.087684      41.087684
  467   A         41.106125      41.106125
  468   A         41.109068      41.109068
  469   A         41.117080      41.117080
  470   A         41.130414      41.130414
  471   A         41.204027      41.204027
  472   A         41.246611      41.246611
  473   A         61.456912      61.456912
  474   A         61.522072      61.522072
  475   A         61.533272      61.533272
  476   A         61.558012      61.558012
  477   A         61.606300      61.606300
  478   A         61.607697      61.607697
  479   A         61.651893      61.651893
  480   A         61.673881      61.673881
  481   A         62.024718      62.024718
  482   A         62.042817      62.042817
  483   A         62.304357      62.304357
  484   A         62.735922      62.735922
  485   A        100.685009     100.685009
  486   A        100.830686     100.830686
  487   A        101.133191     101.133191
  488   A        101.469255     101.469255
 
 RETURNING FROM SCF ALGORITHM
 ======================================================================
 
 ************************ 2023-10-21 21:58:49 *************************
                      Normal termination of mrcc.
 **********************************************************************
