 **********************************************************************
                          MRCC program system
 **********************************************************************
 
                              Written by
     Mihaly Kallay, Peter R. Nagy, David Mester, Laszlo Gyevi-Nagy,
        Jozsef Csoka, P. Bernat Szabo, Zoltan Rolik, Gyula Samu,
     Jozsef Csontos, Bence Hegely, Adam Ganyecz, Istvan Ladjanszki,
       Lorant Szegedy, Bence Ladoczki, Klara Petrov, Mate Farkas,
                    Pal D. Mezei, and Reka A. Horvath
 
        Department of Physical Chemistry and Materials Science
            Budapest University of Technology and Economics
                  Budapest P.O.Box 91, H-1521 Hungary
 
                              www.mrcc.hu
 
                      Release date: March 18, 2022

 ************************ 2022-11-12 14:07:45 *************************
 Executing minp...

 Reading input from MINP...
 
 Input file:
 
calc=FNO-CCSD(T)
scftyp=uhf
verbosity=3
mem=150GB
unit=angs
scfiguess=small
scfalg=locfit1
lcorthr=tight
ccmaxit=400
ccsdalg=dfdirect
ccsdthreads=4
ccsdmkl=thr
ptthreads=4
lnoepsv=1e-5
naf_cor=1e-2
ECP=MCDHF-ECP-10
basis=bse_ACVDZ
basis_sm=def2-SVP
dfbasis_scf=def2-QZVPP-RI-JK
dfbasis_cor=bse_ACVDZ_mp2fit
mult=2
core=0
unit=angs
geom=xyz
4
Cu4
Cu     1.16717276     0.38905498     1.07801886
Cu     0.02179923    -0.12973513    -1.17783523
Cu    -0.42856473    -1.13463765     1.17783523
Cu    -1.16717276     1.13463765     0.18733212

ghost=serialno
2,3,4
 
 
 Checking keyword combinations...
 
 Keywords:
 
 active=none
 agrid=ld0006-ld0590
 agrid_pssp=ld0006-ld0194
 agrid_pssp_sm=ld0006-ld0074
 basis=bse_acvdz
 basis_sm=def2-svp
 basopt=off
 bfbasis=none
 bfgsmem=10
 bfgstol=1.0d-3
 bpcompo=0.985
 bpcompv=0.98
 bpdfo=0.985
 bpocc=0.985
 bppdo=0.985
 bppdv=0.98
 bpedo=0.985
 bpedv=0.98
 calc=ccsd(t)
 ccmaxit=400
 ccprog=ccsd
 ccsdalg=dfdirect
 ccsdmkl=thr
 ccsdrest=trf
 ccsdthreads=4
 cctol=6
 charge=0
 cialg=auto
 ciguess=off
 cmpgrp=auto
 comprest=off
 core=corr
 corembed=off
 csapprox=off
 cvs=off
 dboc=off
 delocsomofact=
 dendec=cholesky
 dens=0
 dfalg=lineq
 dfbasis_cab=none
 dfbasis_cor=bse_acvdz_mp2fit
 dfbasis_scf=def2-qzvpp-ri-jk
 dfbasis_scf_sm=def2-qzvpp-ri-jk
 dfintran=drpa
 dft=off
 dhexc=adc(2)
 diag=david
 docc=
 domrad=10.d0
 drpaalg=fit
 dual=off
 dual_df=off
 ecp=mcdhf-ecp-10
 edisp=off
 edisp_embed=off
 embed=off
 etemp=300
 epert=none
 eps=
 espcharge=off
 excrad=1.0
 excrad_fin=0.100000000D-02
 fitting=coulomb
 fmm=off
 fmmord=8
 freq=off
 gamma=1.d0
 gauss=spher
 geom=xyz
 gopt=off
 ghost=serialno
 gtol=7
 grdens=off
 gridbatch_cos=2000
 grtol=10
 guido_ct=off
 hamilton=dc
 iface=none
 intalg=auto
 itol=10
 laptol=1.d-3
 lccoporder=trffirst
 lcorthr=tight
 lccrest=off
 lmp2dens=on
 lnoepso=0.d0
 lnoepsv=1e-5
 boysalg=jacobi
 localcc=off
 localcorrsymm=off
 locintrf=disk
 mact=
 maxact=off
 maxdim=100
 maxex=0
 maxmicroit=100
 mcscfiguess=hf
 mem=150gb
 mmprog=
 molden=on
 mpitasks=1
 mulmet=0
 mult=2
 nacto=0
 nactv=0
 naf_amp=1.d-2
 naf_cor=1e-2
 naf_scf=off
 nafalg=albe
 naftyp=
 nchol=auto
 ndeps=1e-3
 nstate=1
 nsing=0
 nto=off
 ntrip=0
 occ=
 occri=off
 oniom=off
 oniom_eechg=off
 oniom_pcm=off
 oniom_qcorr=off
 optalg=
 optmaxit=50
 optetol=1e-6
 optex=0
 optgtol=1e-4
 optstol=1e-3
 orblocc=off
 orbloce=off
 orbloco=off
 orblocv=off
 orblocguess=cholesky
 osveps=1e-4
 ovirt=ppl
 ovltol=1e-7
 ovosnorb=80.0
 pcm=off
 popul=off
 pressure=100000
 pssp=off
 ptfreq=0.0
 ptthreads=4
 qro=off
 qscf=off
 qmmm=off
 redcost_exc=off
 redcost_tddft=off
 refdet=none
 rest=0
 rgrid=log3
 rism=off
 rohfcore=semicanonical
 rohftype=semicanonical
 scfalg=locfit1
 scf_conv=difficult
 scfdamp=0.0d0
 scfdamp_mode=off
 scfdamp_end=50
 scfdamp_dampstep=0.d0
 scfdamp_dtol=0.0d0
 scfdamp_maxfact=0.0d0
 scfdamp_minfact=0.0d0
 scfdiis=on
 scfdiis_dtol=0.0d0
 scfdiis_end=50
 scfdiis_start=2
 scfdiis_step=1
 scfdiis_watch=off
 scfdiis_wrange=10
 scfdiis_wlimit=5
 scfdiis_delmax=2
 scfdtol=7
 scfext=10
 scfguessdens=
 scfiguess=small
 scfloc=pm
 scflshift=0.20
 scflshift_end=8
 scflshift_dtol=0.0
 scflshift_gaptol=0.20
 scfmaxit=50
 scftype=uhf
 scftol=6
 scspe=1.d0
 scsph=1.d0
 scsps=1.2d0
 scsps_t=1.2d0
 scspt=0.33333333333333
 scspt_t=0.33333333333333
 scspv=1.d0
 spairtol=1e-5
 sqmprog=
 subminp=top
 symm=
 talg=occ
 temp=298.15
 test=off
 theodore=off
 tlmo=0.999
 tpao=0.94
 tprint=off
 uncontract=off
 unit=angs
 usedisk=2
 verbosity=3
 wpairtol=0.100000000E-06
 
 Calculating integrals for small-basis SCF...

 ************************ 2022-11-12 14:07:46 *************************
 Executing integ...

 Allocation of 150.0 Gbytes of memory...
 
 
 Number of atoms:                  4
 Charge:                           0
 Number of electrons:             19
 Number of core electrons:         8
 Spin multiplicity:                2
 
                 Cartesian coordinates [bohr]      Atomic mass [AMU]  Z
   1  Cu    2.20563686    0.73520736    2.03716040    62.929599      29
   2  Cu    0.04119457   -0.24516386   -2.22578601     0.000000       0
   3  Cu   -0.80986997   -2.14415441    2.22578601     0.000000       0
   4  Cu   -2.20563686    2.14415441    0.35400640     0.000000       0
 
 This molecule is an asymmetric top.
 
 Point group: C1  
 Computational point group: C1  
 
 Cartesian coordinates in standard orientation [bohr]
   1  Cu   -0.87184961    0.12565739   -0.01013965
   2  Cu    3.44827388    1.06284607    2.05791756
   3  Cu    1.73578122   -3.12922552    0.14981012
   4  Cu    3.53444102    0.80980556   -2.10633121
 
 Nuclear repulsion energy [au]:          0.000000000000
 
 
 Basis set information:
 
 Maximum angular momentum: i
 Maximum number of contracted Gaussians:   16
 Maximum number of primitive Gaussians:    19
 Spherical harmonic GTOs are used.
 
 
 Conventional basis set:
 
   1  Cu def2-svp [ 14s 9p 5d 1f | 5s 3p 2d 1f ]
   2  Cu def2-svp [ 14s 9p 5d 1f | 5s 3p 2d 1f ]
   3  Cu def2-svp [ 14s 9p 5d 1f | 5s 3p 2d 1f ]
   4  Cu def2-svp [ 14s 9p 5d 1f | 5s 3p 2d 1f ]
 
 Basis functions:
            1             2             3             4             5             6             7             8             9            10
    0    1Cu1s         1Cu2s         1Cu3s         1Cu4s         1Cu5s         1Cu1pz        1Cu1py        1Cu1px        1Cu2pz        1Cu2py    
    1    1Cu2px        1Cu3pz        1Cu3py        1Cu3px        1Cu1d-2       1Cu1d-1       1Cu1d0        1Cu1d+1       1Cu1d+2       1Cu2d-2   
    2    1Cu2d-1       1Cu2d0        1Cu2d+1       1Cu2d+2       1Cu1f-3       1Cu1f-2       1Cu1f-1       1Cu1f0        1Cu1f+1       1Cu1f+2   
    3    1Cu1f+3       2Cu1s         2Cu2s         2Cu3s         2Cu4s         2Cu5s         2Cu1pz        2Cu1py        2Cu1px        2Cu2pz    
    4    2Cu2py        2Cu2px        2Cu3pz        2Cu3py        2Cu3px        2Cu1d-2       2Cu1d-1       2Cu1d0        2Cu1d+1       2Cu1d+2   
    5    2Cu2d-2       2Cu2d-1       2Cu2d0        2Cu2d+1       2Cu2d+2       2Cu1f-3       2Cu1f-2       2Cu1f-1       2Cu1f0        2Cu1f+1   
    6    2Cu1f+2       2Cu1f+3       3Cu1s         3Cu2s         3Cu3s         3Cu4s         3Cu5s         3Cu1pz        3Cu1py        3Cu1px    
    7    3Cu2pz        3Cu2py        3Cu2px        3Cu3pz        3Cu3py        3Cu3px        3Cu1d-2       3Cu1d-1       3Cu1d0        3Cu1d+1   
    8    3Cu1d+2       3Cu2d-2       3Cu2d-1       3Cu2d0        3Cu2d+1       3Cu2d+2       3Cu1f-3       3Cu1f-2       3Cu1f-1       3Cu1f0    
    9    3Cu1f+1       3Cu1f+2       3Cu1f+3       4Cu1s         4Cu2s         4Cu3s         4Cu4s         4Cu5s         4Cu1pz        4Cu1py    
   10    4Cu1px        4Cu2pz        4Cu2py        4Cu2px        4Cu3pz        4Cu3py        4Cu3px        4Cu1d-2       4Cu1d-1       4Cu1d0    
   11    4Cu1d+1       4Cu1d+2       4Cu2d-2       4Cu2d-1       4Cu2d0        4Cu2d+1       4Cu2d+2       4Cu1f-3       4Cu1f-2       4Cu1f-1   
   12    4Cu1f0        4Cu1f+1       4Cu1f+2       4Cu1f+3   
 
 Maximum number of basis functions per shell:   10
 Total number of basis functions:    124
 
 
 Fitting basis set for the SCF calculation:
 
   1  Cu def2-qzvpp-ri-jk [ 19s 14p 12d 10f 7g 3h 1i | 16s 13p 11d 9f 5g 3h 1i ]
   2  Cu def2-qzvpp-ri-jk [ 19s 14p 12d 10f 7g 3h 1i | 16s 13p 11d 9f 5g 3h 1i ]
   3  Cu def2-qzvpp-ri-jk [ 19s 14p 12d 10f 7g 3h 1i | 16s 13p 11d 9f 5g 3h 1i ]
   4  Cu def2-qzvpp-ri-jk [ 19s 14p 12d 10f 7g 3h 1i | 16s 13p 11d 9f 5g 3h 1i ]
 
 Basis functions:
            1             2             3             4             5             6             7             8             9            10
    0    1Cu1s         1Cu2s         1Cu3s         1Cu4s         1Cu5s         1Cu6s         1Cu7s         1Cu8s         1Cu9s         1Cu10s    
    1    1Cu11s        1Cu12s        1Cu13s        1Cu14s        1Cu15s        1Cu16s        1Cu1pz        1Cu1py        1Cu1px        1Cu2pz    
    2    1Cu2py        1Cu2px        1Cu3pz        1Cu3py        1Cu3px        1Cu4pz        1Cu4py        1Cu4px        1Cu5pz        1Cu5py    
    3    1Cu5px        1Cu6pz        1Cu6py        1Cu6px        1Cu7pz        1Cu7py        1Cu7px        1Cu8pz        1Cu8py        1Cu8px    
    4    1Cu9pz        1Cu9py        1Cu9px        1Cu10pz       1Cu10py       1Cu10px       1Cu11pz       1Cu11py       1Cu11px       1Cu12pz   
    5    1Cu12py       1Cu12px       1Cu13pz       1Cu13py       1Cu13px       1Cu1d-2       1Cu1d-1       1Cu1d0        1Cu1d+1       1Cu1d+2   
    6    1Cu2d-2       1Cu2d-1       1Cu2d0        1Cu2d+1       1Cu2d+2       1Cu3d-2       1Cu3d-1       1Cu3d0        1Cu3d+1       1Cu3d+2   
    7    1Cu4d-2       1Cu4d-1       1Cu4d0        1Cu4d+1       1Cu4d+2       1Cu5d-2       1Cu5d-1       1Cu5d0        1Cu5d+1       1Cu5d+2   
    8    1Cu6d-2       1Cu6d-1       1Cu6d0        1Cu6d+1       1Cu6d+2       1Cu7d-2       1Cu7d-1       1Cu7d0        1Cu7d+1       1Cu7d+2   
    9    1Cu8d-2       1Cu8d-1       1Cu8d0        1Cu8d+1       1Cu8d+2       1Cu9d-2       1Cu9d-1       1Cu9d0        1Cu9d+1       1Cu9d+2   
   10    1Cu10d-2      1Cu10d-1      1Cu10d0       1Cu10d+1      1Cu10d+2      1Cu11d-2      1Cu11d-1      1Cu11d0       1Cu11d+1      1Cu11d+2  
   11    1Cu1f-3       1Cu1f-2       1Cu1f-1       1Cu1f0        1Cu1f+1       1Cu1f+2       1Cu1f+3       1Cu2f-3       1Cu2f-2       1Cu2f-1   
   12    1Cu2f0        1Cu2f+1       1Cu2f+2       1Cu2f+3       1Cu3f-3       1Cu3f-2       1Cu3f-1       1Cu3f0        1Cu3f+1       1Cu3f+2   
   13    1Cu3f+3       1Cu4f-3       1Cu4f-2       1Cu4f-1       1Cu4f0        1Cu4f+1       1Cu4f+2       1Cu4f+3       1Cu5f-3       1Cu5f-2   
   14    1Cu5f-1       1Cu5f0        1Cu5f+1       1Cu5f+2       1Cu5f+3       1Cu6f-3       1Cu6f-2       1Cu6f-1       1Cu6f0        1Cu6f+1   
   15    1Cu6f+2       1Cu6f+3       1Cu7f-3       1Cu7f-2       1Cu7f-1       1Cu7f0        1Cu7f+1       1Cu7f+2       1Cu7f+3       1Cu8f-3   
   16    1Cu8f-2       1Cu8f-1       1Cu8f0        1Cu8f+1       1Cu8f+2       1Cu8f+3       1Cu9f-3       1Cu9f-2       1Cu9f-1       1Cu9f0    
   17    1Cu9f+1       1Cu9f+2       1Cu9f+3       1Cu1g-4       1Cu1g-3       1Cu1g-2       1Cu1g-1       1Cu1g0        1Cu1g+1       1Cu1g+2   
   18    1Cu1g+3       1Cu1g+4       1Cu2g-4       1Cu2g-3       1Cu2g-2       1Cu2g-1       1Cu2g0        1Cu2g+1       1Cu2g+2       1Cu2g+3   
   19    1Cu2g+4       1Cu3g-4       1Cu3g-3       1Cu3g-2       1Cu3g-1       1Cu3g0        1Cu3g+1       1Cu3g+2       1Cu3g+3       1Cu3g+4   
   20    1Cu4g-4       1Cu4g-3       1Cu4g-2       1Cu4g-1       1Cu4g0        1Cu4g+1       1Cu4g+2       1Cu4g+3       1Cu4g+4       1Cu5g-4   
   21    1Cu5g-3       1Cu5g-2       1Cu5g-1       1Cu5g0        1Cu5g+1       1Cu5g+2       1Cu5g+3       1Cu5g+4       1Cu1h-5       1Cu1h-4   
   22    1Cu1h-3       1Cu1h-2       1Cu1h-1       1Cu1h0        1Cu1h+1       1Cu1h+2       1Cu1h+3       1Cu1h+4       1Cu1h+5       1Cu2h-5   
   23    1Cu2h-4       1Cu2h-3       1Cu2h-2       1Cu2h-1       1Cu2h0        1Cu2h+1       1Cu2h+2       1Cu2h+3       1Cu2h+4       1Cu2h+5   
   24    1Cu3h-5       1Cu3h-4       1Cu3h-3       1Cu3h-2       1Cu3h-1       1Cu3h0        1Cu3h+1       1Cu3h+2       1Cu3h+3       1Cu3h+4   
   25    1Cu3h+5       1Cu1i-6       1Cu1i-5       1Cu1i-4       1Cu1i-3       1Cu1i-2       1Cu1i-1       1Cu1i0        1Cu1i+1       1Cu1i+2   
   26    1Cu1i+3       1Cu1i+4       1Cu1i+5       1Cu1i+6       2Cu1s         2Cu2s         2Cu3s         2Cu4s         2Cu5s         2Cu6s     
   27    2Cu7s         2Cu8s         2Cu9s         2Cu10s        2Cu11s        2Cu12s        2Cu13s        2Cu14s        2Cu15s        2Cu16s    
   28    2Cu1pz        2Cu1py        2Cu1px        2Cu2pz        2Cu2py        2Cu2px        2Cu3pz        2Cu3py        2Cu3px        2Cu4pz    
   29    2Cu4py        2Cu4px        2Cu5pz        2Cu5py        2Cu5px        2Cu6pz        2Cu6py        2Cu6px        2Cu7pz        2Cu7py    
   30    2Cu7px        2Cu8pz        2Cu8py        2Cu8px        2Cu9pz        2Cu9py        2Cu9px        2Cu10pz       2Cu10py       2Cu10px   
   31    2Cu11pz       2Cu11py       2Cu11px       2Cu12pz       2Cu12py       2Cu12px       2Cu13pz       2Cu13py       2Cu13px       2Cu1d-2   
   32    2Cu1d-1       2Cu1d0        2Cu1d+1       2Cu1d+2       2Cu2d-2       2Cu2d-1       2Cu2d0        2Cu2d+1       2Cu2d+2       2Cu3d-2   
   33    2Cu3d-1       2Cu3d0        2Cu3d+1       2Cu3d+2       2Cu4d-2       2Cu4d-1       2Cu4d0        2Cu4d+1       2Cu4d+2       2Cu5d-2   
   34    2Cu5d-1       2Cu5d0        2Cu5d+1       2Cu5d+2       2Cu6d-2       2Cu6d-1       2Cu6d0        2Cu6d+1       2Cu6d+2       2Cu7d-2   
   35    2Cu7d-1       2Cu7d0        2Cu7d+1       2Cu7d+2       2Cu8d-2       2Cu8d-1       2Cu8d0        2Cu8d+1       2Cu8d+2       2Cu9d-2   
   36    2Cu9d-1       2Cu9d0        2Cu9d+1       2Cu9d+2       2Cu10d-2      2Cu10d-1      2Cu10d0       2Cu10d+1      2Cu10d+2      2Cu11d-2  
   37    2Cu11d-1      2Cu11d0       2Cu11d+1      2Cu11d+2      2Cu1f-3       2Cu1f-2       2Cu1f-1       2Cu1f0        2Cu1f+1       2Cu1f+2   
   38    2Cu1f+3       2Cu2f-3       2Cu2f-2       2Cu2f-1       2Cu2f0        2Cu2f+1       2Cu2f+2       2Cu2f+3       2Cu3f-3       2Cu3f-2   
   39    2Cu3f-1       2Cu3f0        2Cu3f+1       2Cu3f+2       2Cu3f+3       2Cu4f-3       2Cu4f-2       2Cu4f-1       2Cu4f0        2Cu4f+1   
   40    2Cu4f+2       2Cu4f+3       2Cu5f-3       2Cu5f-2       2Cu5f-1       2Cu5f0        2Cu5f+1       2Cu5f+2       2Cu5f+3       2Cu6f-3   
   41    2Cu6f-2       2Cu6f-1       2Cu6f0        2Cu6f+1       2Cu6f+2       2Cu6f+3       2Cu7f-3       2Cu7f-2       2Cu7f-1       2Cu7f0    
   42    2Cu7f+1       2Cu7f+2       2Cu7f+3       2Cu8f-3       2Cu8f-2       2Cu8f-1       2Cu8f0        2Cu8f+1       2Cu8f+2       2Cu8f+3   
   43    2Cu9f-3       2Cu9f-2       2Cu9f-1       2Cu9f0        2Cu9f+1       2Cu9f+2       2Cu9f+3       2Cu1g-4       2Cu1g-3       2Cu1g-2   
   44    2Cu1g-1       2Cu1g0        2Cu1g+1       2Cu1g+2       2Cu1g+3       2Cu1g+4       2Cu2g-4       2Cu2g-3       2Cu2g-2       2Cu2g-1   
   45    2Cu2g0        2Cu2g+1       2Cu2g+2       2Cu2g+3       2Cu2g+4       2Cu3g-4       2Cu3g-3       2Cu3g-2       2Cu3g-1       2Cu3g0    
   46    2Cu3g+1       2Cu3g+2       2Cu3g+3       2Cu3g+4       2Cu4g-4       2Cu4g-3       2Cu4g-2       2Cu4g-1       2Cu4g0        2Cu4g+1   
   47    2Cu4g+2       2Cu4g+3       2Cu4g+4       2Cu5g-4       2Cu5g-3       2Cu5g-2       2Cu5g-1       2Cu5g0        2Cu5g+1       2Cu5g+2   
   48    2Cu5g+3       2Cu5g+4       2Cu1h-5       2Cu1h-4       2Cu1h-3       2Cu1h-2       2Cu1h-1       2Cu1h0        2Cu1h+1       2Cu1h+2   
   49    2Cu1h+3       2Cu1h+4       2Cu1h+5       2Cu2h-5       2Cu2h-4       2Cu2h-3       2Cu2h-2       2Cu2h-1       2Cu2h0        2Cu2h+1   
   50    2Cu2h+2       2Cu2h+3       2Cu2h+4       2Cu2h+5       2Cu3h-5       2Cu3h-4       2Cu3h-3       2Cu3h-2       2Cu3h-1       2Cu3h0    
   51    2Cu3h+1       2Cu3h+2       2Cu3h+3       2Cu3h+4       2Cu3h+5       2Cu1i-6       2Cu1i-5       2Cu1i-4       2Cu1i-3       2Cu1i-2   
   52    2Cu1i-1       2Cu1i0        2Cu1i+1       2Cu1i+2       2Cu1i+3       2Cu1i+4       2Cu1i+5       2Cu1i+6       3Cu1s         3Cu2s     
   53    3Cu3s         3Cu4s         3Cu5s         3Cu6s         3Cu7s         3Cu8s         3Cu9s         3Cu10s        3Cu11s        3Cu12s    
   54    3Cu13s        3Cu14s        3Cu15s        3Cu16s        3Cu1pz        3Cu1py        3Cu1px        3Cu2pz        3Cu2py        3Cu2px    
   55    3Cu3pz        3Cu3py        3Cu3px        3Cu4pz        3Cu4py        3Cu4px        3Cu5pz        3Cu5py        3Cu5px        3Cu6pz    
   56    3Cu6py        3Cu6px        3Cu7pz        3Cu7py        3Cu7px        3Cu8pz        3Cu8py        3Cu8px        3Cu9pz        3Cu9py    
   57    3Cu9px        3Cu10pz       3Cu10py       3Cu10px       3Cu11pz       3Cu11py       3Cu11px       3Cu12pz       3Cu12py       3Cu12px   
   58    3Cu13pz       3Cu13py       3Cu13px       3Cu1d-2       3Cu1d-1       3Cu1d0        3Cu1d+1       3Cu1d+2       3Cu2d-2       3Cu2d-1   
   59    3Cu2d0        3Cu2d+1       3Cu2d+2       3Cu3d-2       3Cu3d-1       3Cu3d0        3Cu3d+1       3Cu3d+2       3Cu4d-2       3Cu4d-1   
   60    3Cu4d0        3Cu4d+1       3Cu4d+2       3Cu5d-2       3Cu5d-1       3Cu5d0        3Cu5d+1       3Cu5d+2       3Cu6d-2       3Cu6d-1   
   61    3Cu6d0        3Cu6d+1       3Cu6d+2       3Cu7d-2       3Cu7d-1       3Cu7d0        3Cu7d+1       3Cu7d+2       3Cu8d-2       3Cu8d-1   
   62    3Cu8d0        3Cu8d+1       3Cu8d+2       3Cu9d-2       3Cu9d-1       3Cu9d0        3Cu9d+1       3Cu9d+2       3Cu10d-2      3Cu10d-1  
   63    3Cu10d0       3Cu10d+1      3Cu10d+2      3Cu11d-2      3Cu11d-1      3Cu11d0       3Cu11d+1      3Cu11d+2      3Cu1f-3       3Cu1f-2   
   64    3Cu1f-1       3Cu1f0        3Cu1f+1       3Cu1f+2       3Cu1f+3       3Cu2f-3       3Cu2f-2       3Cu2f-1       3Cu2f0        3Cu2f+1   
   65    3Cu2f+2       3Cu2f+3       3Cu3f-3       3Cu3f-2       3Cu3f-1       3Cu3f0        3Cu3f+1       3Cu3f+2       3Cu3f+3       3Cu4f-3   
   66    3Cu4f-2       3Cu4f-1       3Cu4f0        3Cu4f+1       3Cu4f+2       3Cu4f+3       3Cu5f-3       3Cu5f-2       3Cu5f-1       3Cu5f0    
   67    3Cu5f+1       3Cu5f+2       3Cu5f+3       3Cu6f-3       3Cu6f-2       3Cu6f-1       3Cu6f0        3Cu6f+1       3Cu6f+2       3Cu6f+3   
   68    3Cu7f-3       3Cu7f-2       3Cu7f-1       3Cu7f0        3Cu7f+1       3Cu7f+2       3Cu7f+3       3Cu8f-3       3Cu8f-2       3Cu8f-1   
   69    3Cu8f0        3Cu8f+1       3Cu8f+2       3Cu8f+3       3Cu9f-3       3Cu9f-2       3Cu9f-1       3Cu9f0        3Cu9f+1       3Cu9f+2   
   70    3Cu9f+3       3Cu1g-4       3Cu1g-3       3Cu1g-2       3Cu1g-1       3Cu1g0        3Cu1g+1       3Cu1g+2       3Cu1g+3       3Cu1g+4   
   71    3Cu2g-4       3Cu2g-3       3Cu2g-2       3Cu2g-1       3Cu2g0        3Cu2g+1       3Cu2g+2       3Cu2g+3       3Cu2g+4       3Cu3g-4   
   72    3Cu3g-3       3Cu3g-2       3Cu3g-1       3Cu3g0        3Cu3g+1       3Cu3g+2       3Cu3g+3       3Cu3g+4       3Cu4g-4       3Cu4g-3   
   73    3Cu4g-2       3Cu4g-1       3Cu4g0        3Cu4g+1       3Cu4g+2       3Cu4g+3       3Cu4g+4       3Cu5g-4       3Cu5g-3       3Cu5g-2   
   74    3Cu5g-1       3Cu5g0        3Cu5g+1       3Cu5g+2       3Cu5g+3       3Cu5g+4       3Cu1h-5       3Cu1h-4       3Cu1h-3       3Cu1h-2   
   75    3Cu1h-1       3Cu1h0        3Cu1h+1       3Cu1h+2       3Cu1h+3       3Cu1h+4       3Cu1h+5       3Cu2h-5       3Cu2h-4       3Cu2h-3   
   76    3Cu2h-2       3Cu2h-1       3Cu2h0        3Cu2h+1       3Cu2h+2       3Cu2h+3       3Cu2h+4       3Cu2h+5       3Cu3h-5       3Cu3h-4   
   77    3Cu3h-3       3Cu3h-2       3Cu3h-1       3Cu3h0        3Cu3h+1       3Cu3h+2       3Cu3h+3       3Cu3h+4       3Cu3h+5       3Cu1i-6   
   78    3Cu1i-5       3Cu1i-4       3Cu1i-3       3Cu1i-2       3Cu1i-1       3Cu1i0        3Cu1i+1       3Cu1i+2       3Cu1i+3       3Cu1i+4   
   79    3Cu1i+5       3Cu1i+6       4Cu1s         4Cu2s         4Cu3s         4Cu4s         4Cu5s         4Cu6s         4Cu7s         4Cu8s     
   80    4Cu9s         4Cu10s        4Cu11s        4Cu12s        4Cu13s        4Cu14s        4Cu15s        4Cu16s        4Cu1pz        4Cu1py    
   81    4Cu1px        4Cu2pz        4Cu2py        4Cu2px        4Cu3pz        4Cu3py        4Cu3px        4Cu4pz        4Cu4py        4Cu4px    
   82    4Cu5pz        4Cu5py        4Cu5px        4Cu6pz        4Cu6py        4Cu6px        4Cu7pz        4Cu7py        4Cu7px        4Cu8pz    
   83    4Cu8py        4Cu8px        4Cu9pz        4Cu9py        4Cu9px        4Cu10pz       4Cu10py       4Cu10px       4Cu11pz       4Cu11py   
   84    4Cu11px       4Cu12pz       4Cu12py       4Cu12px       4Cu13pz       4Cu13py       4Cu13px       4Cu1d-2       4Cu1d-1       4Cu1d0    
   85    4Cu1d+1       4Cu1d+2       4Cu2d-2       4Cu2d-1       4Cu2d0        4Cu2d+1       4Cu2d+2       4Cu3d-2       4Cu3d-1       4Cu3d0    
   86    4Cu3d+1       4Cu3d+2       4Cu4d-2       4Cu4d-1       4Cu4d0        4Cu4d+1       4Cu4d+2       4Cu5d-2       4Cu5d-1       4Cu5d0    
   87    4Cu5d+1       4Cu5d+2       4Cu6d-2       4Cu6d-1       4Cu6d0        4Cu6d+1       4Cu6d+2       4Cu7d-2       4Cu7d-1       4Cu7d0    
   88    4Cu7d+1       4Cu7d+2       4Cu8d-2       4Cu8d-1       4Cu8d0        4Cu8d+1       4Cu8d+2       4Cu9d-2       4Cu9d-1       4Cu9d0    
   89    4Cu9d+1       4Cu9d+2       4Cu10d-2      4Cu10d-1      4Cu10d0       4Cu10d+1      4Cu10d+2      4Cu11d-2      4Cu11d-1      4Cu11d0   
   90    4Cu11d+1      4Cu11d+2      4Cu1f-3       4Cu1f-2       4Cu1f-1       4Cu1f0        4Cu1f+1       4Cu1f+2       4Cu1f+3       4Cu2f-3   
   91    4Cu2f-2       4Cu2f-1       4Cu2f0        4Cu2f+1       4Cu2f+2       4Cu2f+3       4Cu3f-3       4Cu3f-2       4Cu3f-1       4Cu3f0    
   92    4Cu3f+1       4Cu3f+2       4Cu3f+3       4Cu4f-3       4Cu4f-2       4Cu4f-1       4Cu4f0        4Cu4f+1       4Cu4f+2       4Cu4f+3   
   93    4Cu5f-3       4Cu5f-2       4Cu5f-1       4Cu5f0        4Cu5f+1       4Cu5f+2       4Cu5f+3       4Cu6f-3       4Cu6f-2       4Cu6f-1   
   94    4Cu6f0        4Cu6f+1       4Cu6f+2       4Cu6f+3       4Cu7f-3       4Cu7f-2       4Cu7f-1       4Cu7f0        4Cu7f+1       4Cu7f+2   
   95    4Cu7f+3       4Cu8f-3       4Cu8f-2       4Cu8f-1       4Cu8f0        4Cu8f+1       4Cu8f+2       4Cu8f+3       4Cu9f-3       4Cu9f-2   
   96    4Cu9f-1       4Cu9f0        4Cu9f+1       4Cu9f+2       4Cu9f+3       4Cu1g-4       4Cu1g-3       4Cu1g-2       4Cu1g-1       4Cu1g0    
   97    4Cu1g+1       4Cu1g+2       4Cu1g+3       4Cu1g+4       4Cu2g-4       4Cu2g-3       4Cu2g-2       4Cu2g-1       4Cu2g0        4Cu2g+1   
   98    4Cu2g+2       4Cu2g+3       4Cu2g+4       4Cu3g-4       4Cu3g-3       4Cu3g-2       4Cu3g-1       4Cu3g0        4Cu3g+1       4Cu3g+2   
   99    4Cu3g+3       4Cu3g+4       4Cu4g-4       4Cu4g-3       4Cu4g-2       4Cu4g-1       4Cu4g0        4Cu4g+1       4Cu4g+2       4Cu4g+3   
  100    4Cu4g+4       4Cu5g-4       4Cu5g-3       4Cu5g-2       4Cu5g-1       4Cu5g0        4Cu5g+1       4Cu5g+2       4Cu5g+3       4Cu5g+4   
  101    4Cu1h-5       4Cu1h-4       4Cu1h-3       4Cu1h-2       4Cu1h-1       4Cu1h0        4Cu1h+1       4Cu1h+2       4Cu1h+3       4Cu1h+4   
  102    4Cu1h+5       4Cu2h-5       4Cu2h-4       4Cu2h-3       4Cu2h-2       4Cu2h-1       4Cu2h0        4Cu2h+1       4Cu2h+2       4Cu2h+3   
  103    4Cu2h+4       4Cu2h+5       4Cu3h-5       4Cu3h-4       4Cu3h-3       4Cu3h-2       4Cu3h-1       4Cu3h0        4Cu3h+1       4Cu3h+2   
  104    4Cu3h+3       4Cu3h+4       4Cu3h+5       4Cu1i-6       4Cu1i-5       4Cu1i-4       4Cu1i-3       4Cu1i-2       4Cu1i-1       4Cu1i0    
  105    4Cu1i+1       4Cu1i+2       4Cu1i+3       4Cu1i+4       4Cu1i+5       4Cu1i+6   
 
 Maximum number of basis functions per shell:   63
 Total number of basis functions:   1056
 
 
 Effective core potentials:
 
   1  Cu mcdhf-ecp-10        
 
 Initializing the SAD routines for the initial guess...
 Checking the files required for the initial guess...
 Atomic density files have been found for the atoms with the following serial numbers:
  
 Atomic density files have not been found for the atoms with the following serial numbers:
  1
 Generating SCFDENSITIES.Cu.def2-svp.0
 CPU time [min]:     0.081                   Wall time [min]:     0.167
 
 Character table for point group C1:
 
          E  
    A     1
 
 Number of basis functions per irrep:
    A     124
 
 
 Calculation of overlap integrals...
 CPU time [min]:     0.083                   Wall time [min]:     0.168
 
 Calculation of the square root of the overlap matrix...
 Minimum eigenvalue of the overlap matrix: 0.319798E-01
 CPU time [min]:     0.093                   Wall time [min]:     0.168
 
 Calculation of kinetic energy integrals...
 CPU time [min]:     0.094                   Wall time [min]:     0.168
 Calculation of dipole moment integrals...
 CPU time [min]:     0.094                   Wall time [min]:     0.168
 Calculation of nuclear attraction integrals...
 CPU time [min]:     0.097                   Wall time [min]:     0.168
 Calculation of core potential integrals...
 CPU time [min]:     0.171                   Wall time [min]:     0.186
 
 Calculation of prescreening integrals...
 CPU time [min]:     0.380                   Wall time [min]:     0.196
 
 Calculation of two-center Coulomb integrals...
   1% done.
  13% done.
  24% done.
  37% done.
  50% done.
  64% done.
  84% done.
  98% done.
 100% done.
 CPU time [min]:     0.392                   Wall time [min]:     0.196
 
 Cholesky decomposition of the two-center matrix...
 Reciprocal of the condition number:  0.335673E-05
 CPU time [min]:     0.423                   Wall time [min]:     0.197
 
 
 Running small-basis SCF...

 ************************ 2022-11-12 14:07:57 *************************
 Executing scf...

 @scfsetup: integrals calculated directly
            mrcc/integ direct run
 @scfsetup: calculating on full matrices
            not using symmetry adapted basis
 @scfsetup: diis switched on
 @scfsetup: number of steps to extrapolate from  10
 @scfsetup: tolerance in energy deviation    0.100000E-05
            tolerance in density deviation    0.100000E-06
 @scfsetup: maximum number of iterations:  50
 @scfsetup: unrestricted hf calc
 @scfsetup: starting scf from superposition of atomic densities
 @scfsetup: occupation set:
            from initial orbitals
 @scfsetup: Parameter-set for SCF acceleration: difficult
 @scfsetup: diis runs from iteration:   2
 @scfsetup: diis runs to iteration:  50
 @scfsetup: diis runs in every iteration
 @scfsetup: diiswatch is disabled                   
 @scfsetup: diis dtol criteria to switch on:      0.0000E+00
           (or the iteration number below is reached)
 @scfsetup: damping is turned off.
 @scfsetup: dynamic level shifting
            tolarance in HOMO-LUMO gap:  0.200
            tolarance in density deviation:     0.0000E+00
            iteration step criteria to turn level shifting off: 8
 Allocation of 150.0 Gbytes of memory...
 ======================================================================
 ITERATION STEP   1
 CPU time [min]:     0.029                   Wall time [min]:     0.006
 

 SCF control                  : initial
 Damping factor/level shift   : 0.000/0.200
 DIIS [start/end/frequency]   :   2 / 50 /  1

 Constructing alpha Fock-matrix...
 
 Pipek-Mezey localization...
 Step  Convergence
   1   0.012264419620
   2   0.000000115018
 CPU time [min]:     0.045                   Wall time [min]:     0.007
 
 Constructing local fitting domains...
 Maximum number of atoms in fitting domains:    4
 Average number of atoms in fitting domains:    4.0
 
 First step of Coulomb + first step of exchange...
 Exchange contribution is evaluated for MOs 1 to 10.
   1% done.
  13% done.
  25% done.
  38% done.
  56% done.
  75% done.
  89% done.
 100% done.
 CPU time [min]:     0.125                   Wall time [min]:     0.011
 
 Fitting and assembly step of exchange...
 CPU time [min]:     0.129                   Wall time [min]:     0.011
 
 Constructing beta Fock-matrix...
 
 Pipek-Mezey localization...
 Step  Convergence
   1   0.000000000000
 CPU time [min]:     0.140                   Wall time [min]:     0.011
 
 Constructing local fitting domains...
 Maximum number of atoms in fitting domains:    4
 Average number of atoms in fitting domains:    4.0
 
 Second step of Coulomb + first step of exchange...
 Exchange contribution is evaluated for MOs 1 to 9.
   1% done.
  13% done.
  25% done.
  38% done.
  56% done.
  75% done.
  89% done.
 100% done.
 CPU time [min]:     0.202                   Wall time [min]:     0.014
 
 Fitting and assembly step of exchange...
 CPU time [min]:     0.204                   Wall time [min]:     0.014
 
 Gradient norm:      2.3534E+00
 RMS of alpha [F,P] :                                  0.01714382043116
 RMS of beta  [F,P] :                                  0.01710391763700
 RMS of alpha difference density:                      0.10799230003146
 RMS of beta  difference density:                      0.08962241535827
 Gap [au]:  0.01782228
 ALPHA OCC:  10
 BETA  OCC:   9
 
 ***HARTREE-FOCK ENERGY IN STEP   1 IS       -192.2291505232309987 [AU]
 ======================================================================
 ITERATION STEP   2
 CPU time [min]:     0.212                   Wall time [min]:     0.014
 

 SCF control                  : diis
 Damping factor/level shift   : 0.000/0.200
 DIIS [start/end/frequency]   :   2 / 50 /  1

 Constructing alpha Fock-matrix...
 Inverse square root: The matrix is not positive definite!
 
 Pipek-Mezey localization...
 Step  Convergence
   1   2.060208481411
   2   0.262322649263
   3   0.030850610709
   4   0.000022817670
   5   0.000000042488
 CPU time [min]:     0.228                   Wall time [min]:     0.015
 
 Constructing local fitting domains...
 Maximum number of atoms in fitting domains:    4
 Average number of atoms in fitting domains:    4.0
 
 First step of Coulomb + first step of exchange...
 Exchange contribution is evaluated for MOs 1 to 10.
   1% done.
  13% done.
  25% done.
  38% done.
  56% done.
  75% done.
  89% done.
 100% done.
 CPU time [min]:     0.298                   Wall time [min]:     0.018
 
 Fitting and assembly step of exchange...
 CPU time [min]:     0.300                   Wall time [min]:     0.018
 
 Constructing beta Fock-matrix...
 Inverse square root: The matrix is not positive definite!
 
 Pipek-Mezey localization...
 Step  Convergence
   1   1.232067631696
   2   0.137677907826
   3   0.001717511977
   4   0.000025755866
   5   0.000000006929
 CPU time [min]:     0.311                   Wall time [min]:     0.019
 
 Constructing local fitting domains...
 Maximum number of atoms in fitting domains:    4
 Average number of atoms in fitting domains:    4.0
 
 Second step of Coulomb + first step of exchange...
 Exchange contribution is evaluated for MOs 1 to 9.
   1% done.
  13% done.
  25% done.
  38% done.
  56% done.
  75% done.
  89% done.
 100% done.
 CPU time [min]:     0.384                   Wall time [min]:     0.022
 
 Fitting and assembly step of exchange...
 CPU time [min]:     0.386                   Wall time [min]:     0.022
 
 Gradient norm:      4.8290E+00
 DIIS is running in this iteration step.
 RMS of alpha [F,P] :                                  0.04932734277073
 RMS of beta  [F,P] :                                  0.04462815933847
 RMS of alpha difference density:                      0.11584623205217
 RMS of beta  difference density:                      0.09035468934135
 Gap [au]:  0.36294272
 ALPHA OCC:  10
 BETA  OCC:   9
 
 ***HARTREE-FOCK ENERGY IN STEP   2 IS       -157.4077056395022112 [AU]
 
 Step comparison  Energy Drift [au]  DIIS error drift  Gradient drift
        1           -3.4821E+01        -4.2303E-02      -2.4757E+00
        2            1.5741E+02         1.0000E-07      -2.4757E+00
 Warning! The energy goes uphill (with respect to previous step).
 Warning! The gradient goes uphill (with respect to previous step).
 Warning! The gradient goes uphill (with respect to step   1 ).
 ======================================================================
 ITERATION STEP   3
 CPU time [min]:     0.409                   Wall time [min]:     0.023
 

 SCF control                  : diis
 Damping factor/level shift   : 0.000/0.000
 DIIS [start/end/frequency]   :   2 / 50 /  1

 Constructing alpha Fock-matrix...
 Inverse square root: The matrix is not positive definite!
 
 Pipek-Mezey localization...
 Step  Convergence
   1   0.029657948126
   2   0.000000026919
 CPU time [min]:     0.425                   Wall time [min]:     0.024
 
 Constructing local fitting domains...
 Local fitting domains are unchanged.
 
 First step of Coulomb + first step of exchange...
 Exchange contribution is evaluated for MOs 1 to 10.
   1% done.
  13% done.
  25% done.
  38% done.
  56% done.
  75% done.
  89% done.
 100% done.
 CPU time [min]:     0.495                   Wall time [min]:     0.027
 
 Fitting and assembly step of exchange...
 CPU time [min]:     0.497                   Wall time [min]:     0.027
 
 Constructing beta Fock-matrix...
 Inverse square root: The matrix is not positive definite!
 
 Pipek-Mezey localization...
 Step  Convergence
   1   0.000000000000
 CPU time [min]:     0.508                   Wall time [min]:     0.027
 
 Constructing local fitting domains...
 Local fitting domains are unchanged.
 
 Second step of Coulomb + first step of exchange...
 Exchange contribution is evaluated for MOs 1 to 9.
   1% done.
  13% done.
  25% done.
  38% done.
  56% done.
  75% done.
  89% done.
 100% done.
 CPU time [min]:     0.577                   Wall time [min]:     0.030
 
 Fitting and assembly step of exchange...
 CPU time [min]:     0.578                   Wall time [min]:     0.030
 
 Gradient norm:      4.1996E+00
 DIIS is running in this iteration step.
 RMS of alpha [F,P] :                                  0.03227893677048
 RMS of beta  [F,P] :                                  0.03162909795764
 RMS of alpha difference density:                      0.01858448614522
 RMS of beta  difference density:                      0.00746416673850
 Gap [au]:  0.46376137
 ALPHA OCC:  10
 BETA  OCC:   9
 
 ***HARTREE-FOCK ENERGY IN STEP   3 IS       -189.5233224534640044 [AU]
 
 Step comparison  Energy Drift [au]  DIIS error drift  Gradient drift
        2            3.2116E+01         2.1327E-02       6.2945E-01
 Warning! The gradient goes uphill (with respect to step   1 ).
 ======================================================================
 ITERATION STEP   4
 CPU time [min]:     0.587                   Wall time [min]:     0.031
 

 SCF control                  : diis
 Damping factor/level shift   : 0.000/0.000
 DIIS [start/end/frequency]   :   2 / 50 /  1

 Constructing alpha Fock-matrix...
 
 Pipek-Mezey localization...
 Step  Convergence
   1   0.012303973790
   2   0.009953643492
   3   0.000000000011
 CPU time [min]:     0.603                   Wall time [min]:     0.031
 
 Constructing local fitting domains...
 Local fitting domains are unchanged.
 
 First step of Coulomb + first step of exchange...
 Exchange contribution is evaluated for MOs 1 to 10.
   1% done.
  13% done.
  25% done.
  38% done.
  56% done.
  75% done.
  89% done.
 100% done.
 CPU time [min]:     0.673                   Wall time [min]:     0.034
 
 Fitting and assembly step of exchange...
 CPU time [min]:     0.674                   Wall time [min]:     0.034
 
 Constructing beta Fock-matrix...
 
 Pipek-Mezey localization...
 Step  Convergence
   1   0.000000000000
 CPU time [min]:     0.685                   Wall time [min]:     0.035
 
 Constructing local fitting domains...
 Local fitting domains are unchanged.
 
 Second step of Coulomb + first step of exchange...
 Exchange contribution is evaluated for MOs 1 to 9.
   1% done.
  13% done.
  25% done.
  38% done.
  56% done.
  75% done.
  89% done.
 100% done.
 CPU time [min]:     0.754                   Wall time [min]:     0.038
 
 Fitting and assembly step of exchange...
 CPU time [min]:     0.756                   Wall time [min]:     0.038
 
 Gradient norm:      1.6834E+00
 DIIS is running in this iteration step.
 RMS of alpha [F,P] :                                  0.01776232401546
 RMS of beta  [F,P] :                                  0.01754099948737
 RMS of alpha difference density:                      0.01395991861006
 RMS of beta  difference density:                      0.00518481000194
 Gap [au]:  0.42214001
 ALPHA OCC:  10
 BETA  OCC:   9
 
 ***HARTREE-FOCK ENERGY IN STEP   4 IS       -192.5386608308295138 [AU]
 
 Step comparison  Energy Drift [au]  DIIS error drift  Gradient drift
        3            3.0153E+00         2.0228E-02       2.5162E+00
 ======================================================================
 ITERATION STEP   5
 CPU time [min]:     0.765                   Wall time [min]:     0.038
 

 SCF control                  : diis
 Damping factor/level shift   : 0.000/0.000
 DIIS [start/end/frequency]   :   2 / 50 /  1

 Constructing alpha Fock-matrix...
 
 Pipek-Mezey localization...
 Step  Convergence
   1   0.011694900864
   2   0.009946226244
   3   0.000000000030
 CPU time [min]:     0.781                   Wall time [min]:     0.039
 
 Constructing local fitting domains...
 Local fitting domains are unchanged.
 
 First step of Coulomb + first step of exchange...
 Exchange contribution is evaluated for MOs 1 to 10.
   1% done.
  13% done.
  25% done.
  38% done.
  56% done.
  75% done.
  89% done.
 100% done.
 CPU time [min]:     0.850                   Wall time [min]:     0.042
 
 Fitting and assembly step of exchange...
 CPU time [min]:     0.851                   Wall time [min]:     0.042
 
 Constructing beta Fock-matrix...
 
 Pipek-Mezey localization...
 Step  Convergence
   1   0.000000000000
 CPU time [min]:     0.863                   Wall time [min]:     0.043
 
 Constructing local fitting domains...
 Local fitting domains are unchanged.
 
 Second step of Coulomb + first step of exchange...
 Exchange contribution is evaluated for MOs 1 to 9.
   1% done.
  13% done.
  25% done.
  38% done.
  56% done.
  75% done.
  89% done.
 100% done.
 CPU time [min]:     0.932                   Wall time [min]:     0.045
 
 Fitting and assembly step of exchange...
 CPU time [min]:     0.934                   Wall time [min]:     0.045
 
 Gradient norm:      6.6744E-01
 DIIS is running in this iteration step.
 RMS of alpha [F,P] :                                  0.00555282508487
 RMS of beta  [F,P] :                                  0.00529337374254
 RMS of alpha difference density:                      0.01053206972565
 RMS of beta  difference density:                      0.00192481061941
 Gap [au]:  0.27674460
 ALPHA OCC:  10
 BETA  OCC:   9
 
 ***HARTREE-FOCK ENERGY IN STEP   5 IS       -194.1008286461805028 [AU]
 
 Step comparison  Energy Drift [au]  DIIS error drift  Gradient drift
        4            1.5622E+00         1.7292E-02       1.0159E+00
 ======================================================================
 ITERATION STEP   6
 CPU time [min]:     0.942                   Wall time [min]:     0.046
 

 SCF control                  : diis
 Damping factor/level shift   : 0.000/0.000
 DIIS [start/end/frequency]   :   2 / 50 /  1

 Constructing alpha Fock-matrix...
 
 Pipek-Mezey localization...
 Step  Convergence
   1   0.000976195880
   2   0.000000016855
 CPU time [min]:     0.958                   Wall time [min]:     0.047
 
 Constructing local fitting domains...
 Local fitting domains are unchanged.
 
 First step of Coulomb + first step of exchange...
 Exchange contribution is evaluated for MOs 1 to 10.
   1% done.
  13% done.
  25% done.
  38% done.
  56% done.
  75% done.
  89% done.
 100% done.
 CPU time [min]:     1.027                   Wall time [min]:     0.050
 
 Fitting and assembly step of exchange...
 CPU time [min]:     1.029                   Wall time [min]:     0.050
 
 Constructing beta Fock-matrix...
 
 Pipek-Mezey localization...
 Step  Convergence
   1   0.000000000000
 CPU time [min]:     1.040                   Wall time [min]:     0.050
 
 Constructing local fitting domains...
 Local fitting domains are unchanged.
 
 Second step of Coulomb + first step of exchange...
 Exchange contribution is evaluated for MOs 1 to 9.
   1% done.
  13% done.
  25% done.
  38% done.
  56% done.
  75% done.
  89% done.
 100% done.
 CPU time [min]:     1.109                   Wall time [min]:     0.053
 
 Fitting and assembly step of exchange...
 CPU time [min]:     1.111                   Wall time [min]:     0.053
 
 Gradient norm:      8.8433E-02
 DIIS is running in this iteration step.
 RMS of alpha [F,P] :                                  0.00051283662794
 RMS of beta  [F,P] :                                  0.00034947271413
 RMS of alpha difference density:                      0.00271882057100
 RMS of beta  difference density:                      0.00024612106534
 Gap [au]:  0.27931301
 ALPHA OCC:  10
 BETA  OCC:   9
 
 ***HARTREE-FOCK ENERGY IN STEP   6 IS       -194.2545824840623254 [AU]
 
 Step comparison  Energy Drift [au]  DIIS error drift  Gradient drift
        5            1.5375E-01         7.0510E-03       5.7900E-01
 ======================================================================
 ITERATION STEP   7
 CPU time [min]:     1.120                   Wall time [min]:     0.054
 

 SCF control                  : diis
 Damping factor/level shift   : 0.000/0.000
 DIIS [start/end/frequency]   :   2 / 50 /  1

 Constructing alpha Fock-matrix...
 
 Pipek-Mezey localization...
 Step  Convergence
   1   0.010121435112
   2   0.009952842684
   3   0.000000000075
 CPU time [min]:     1.136                   Wall time [min]:     0.054
 
 Constructing local fitting domains...
 Local fitting domains are unchanged.
 
 First step of Coulomb + first step of exchange...
 Exchange contribution is evaluated for MOs 1 to 10.
   1% done.
  13% done.
  25% done.
  38% done.
  56% done.
  75% done.
  89% done.
 100% done.
 CPU time [min]:     1.205                   Wall time [min]:     0.057
 
 Fitting and assembly step of exchange...
 CPU time [min]:     1.207                   Wall time [min]:     0.057
 
 Constructing beta Fock-matrix...
 
 Pipek-Mezey localization...
 Step  Convergence
   1   0.000000000000
 CPU time [min]:     1.218                   Wall time [min]:     0.058
 
 Constructing local fitting domains...
 Local fitting domains are unchanged.
 
 Second step of Coulomb + first step of exchange...
 Exchange contribution is evaluated for MOs 1 to 9.
   1% done.
  13% done.
  25% done.
  38% done.
  56% done.
  75% done.
  89% done.
 100% done.
 CPU time [min]:     1.287                   Wall time [min]:     0.061
 
 Fitting and assembly step of exchange...
 CPU time [min]:     1.288                   Wall time [min]:     0.061
 
 Gradient norm:      3.2411E-02
 DIIS is running in this iteration step.
 RMS of alpha [F,P] :                                  0.00014721842729
 RMS of beta  [F,P] :                                  0.00009350380925
 RMS of alpha difference density:                      0.00098883503241
 RMS of beta  difference density:                      0.00004000103650
 Gap [au]:  0.27584800
 ALPHA OCC:  10
 BETA  OCC:   9
 
 ***HARTREE-FOCK ENERGY IN STEP   7 IS       -194.2584327918027611 [AU]
 
 Step comparison  Energy Drift [au]  DIIS error drift  Gradient drift
        6            3.8503E-03         4.4619E-04       5.6022E-02
 ======================================================================
 ITERATION STEP   8
 CPU time [min]:     1.297                   Wall time [min]:     0.061
 

 SCF control                  : diis
 Damping factor/level shift   : 0.000/0.000
 DIIS [start/end/frequency]   :   2 / 50 /  1

 Constructing alpha Fock-matrix...
 
 Pipek-Mezey localization...
 Step  Convergence
   1   0.126317517119
   2   0.010485840180
   3   0.000001077093
   4   0.000000000018
 CPU time [min]:     1.313                   Wall time [min]:     0.062
 
 Constructing local fitting domains...
 Local fitting domains are unchanged.
 
 First step of Coulomb + first step of exchange...
 Exchange contribution is evaluated for MOs 1 to 10.
   1% done.
  13% done.
  25% done.
  38% done.
  56% done.
  75% done.
  89% done.
 100% done.
 CPU time [min]:     1.382                   Wall time [min]:     0.065
 
 Fitting and assembly step of exchange...
 CPU time [min]:     1.384                   Wall time [min]:     0.065
 
 Constructing beta Fock-matrix...
 
 Pipek-Mezey localization...
 Step  Convergence
   1   0.000000000000
 CPU time [min]:     1.395                   Wall time [min]:     0.066
 
 Constructing local fitting domains...
 Local fitting domains are unchanged.
 
 Second step of Coulomb + first step of exchange...
 Exchange contribution is evaluated for MOs 1 to 9.
   1% done.
  13% done.
  25% done.
  38% done.
  56% done.
  75% done.
  89% done.
 100% done.
 CPU time [min]:     1.464                   Wall time [min]:     0.068
 
 Fitting and assembly step of exchange...
 CPU time [min]:     1.466                   Wall time [min]:     0.068
 
 Gradient norm:      8.6931E-03
 DIIS is running in this iteration step.
 RMS of alpha [F,P] :                                  0.00004368542408
 RMS of beta  [F,P] :                                  0.00004400118657
 RMS of alpha difference density:                      0.00029939619599
 RMS of beta  difference density:                      0.00003412110656
 Gap [au]:  0.27421923
 ALPHA OCC:  10
 BETA  OCC:   9
 
 ***HARTREE-FOCK ENERGY IN STEP   8 IS       -194.2589585720397167 [AU]
 
 Step comparison  Energy Drift [au]  DIIS error drift  Gradient drift
        7            5.2578E-04         1.1240E-04       2.3718E-02
 ======================================================================
 ITERATION STEP   9
 CPU time [min]:     1.474                   Wall time [min]:     0.069
 

 SCF control                  : diis
 Damping factor/level shift   : 0.000/0.000
 DIIS [start/end/frequency]   :   2 / 50 /  1

 Constructing alpha Fock-matrix...
 
 Pipek-Mezey localization...
 Step  Convergence
   1   1.389575613008
   2   1.541721516604
   3   0.281993551841
   4   0.313498911437
   5   0.055654652888
   6   0.040326455774
   7   0.010853717529
   8   0.053999256560
   9   0.054007466617
  10   0.001612803080
  11   0.000276054689
  12   0.000118530044
  13   0.000001653966
  14   0.000001886089
  15   0.000000201903
  16   0.000000087357
  17   0.000000010164
  18   0.000000000273
  19   0.000000000030
  20   0.000000000001
  21   0.000000000001
  22   0.000000000003
  23   0.000000000002
  24   0.000000000000
 CPU time [min]:     1.491                   Wall time [min]:     0.070
 
 Constructing local fitting domains...
 Local fitting domains are unchanged.
 
 First step of Coulomb + first step of exchange...
 Exchange contribution is evaluated for MOs 1 to 10.
   1% done.
  13% done.
  25% done.
  38% done.
  56% done.
  75% done.
  89% done.
 100% done.
 CPU time [min]:     1.561                   Wall time [min]:     0.073
 
 Fitting and assembly step of exchange...
 CPU time [min]:     1.562                   Wall time [min]:     0.073
 
 Constructing beta Fock-matrix...
 
 Pipek-Mezey localization...
 Step  Convergence
   1   2.283530513327
   2   0.706920997441
   3   0.442900189937
   4   0.016768479539
   5   0.000258813673
   6   0.000010165569
   7   0.000000810559
   8   0.000000038163
   9   0.000000000975
  10   0.000000000036
  11   0.000000000001
  12   0.000000000000
 CPU time [min]:     1.574                   Wall time [min]:     0.073
 
 Constructing local fitting domains...
 Local fitting domains are unchanged.
 
 Second step of Coulomb + first step of exchange...
 Exchange contribution is evaluated for MOs 1 to 9.
   1% done.
  13% done.
  25% done.
  38% done.
  56% done.
  75% done.
  89% done.
 100% done.
 CPU time [min]:     1.642                   Wall time [min]:     0.076
 
 Fitting and assembly step of exchange...
 CPU time [min]:     1.644                   Wall time [min]:     0.076
 
 Gradient norm:      1.9337E-03
 DIIS is running in this iteration step.
 RMS of alpha [F,P] :                                  0.00000887996843
 RMS of beta  [F,P] :                                  0.00001438573549
 RMS of alpha difference density:                      0.00004128145334
 RMS of beta  difference density:                      0.00002438910527
 Gap [au]:  0.27385787
 ALPHA OCC:  10
 BETA  OCC:   9
 
 ***HARTREE-FOCK ENERGY IN STEP   9 IS       -194.2590123524640546 [AU]
 
 Step comparison  Energy Drift [au]  DIIS error drift  Gradient drift
        8            5.3780E-05         4.5098E-05       6.7594E-03
 ======================================================================
 ITERATION STEP  10
 CPU time [min]:     1.653                   Wall time [min]:     0.077
 

 SCF control                  : diis
 Damping factor/level shift   : 0.000/0.000
 DIIS [start/end/frequency]   :   2 / 50 /  1

 Constructing alpha Fock-matrix...
 
 Pipek-Mezey localization...
 Step  Convergence
   1   0.059989722030
   2   1.178310130163
   3   0.434785357876
   4   1.656492815437
   5   1.652876520401
   6   0.871937700027
   7   0.043039242352
   8   0.493208930645
   9   0.001264184356
  10   0.000062493418
  11   0.000005506530
  12   0.000000532736
  13   0.000000034190
  14   0.000000004242
  15   0.000000000333
  16   0.000000000084
  17   0.000000000013
  18   0.000000000003
  19   0.000000000001
 CPU time [min]:     1.669                   Wall time [min]:     0.078
 
 Constructing local fitting domains...
 Local fitting domains are unchanged.
 
 First step of Coulomb + first step of exchange...
 Exchange contribution is evaluated for MOs 1 to 10.
   1% done.
  13% done.
  25% done.
  38% done.
  56% done.
  75% done.
  89% done.
 100% done.
 CPU time [min]:     1.739                   Wall time [min]:     0.080
 
 Fitting and assembly step of exchange...
 CPU time [min]:     1.740                   Wall time [min]:     0.080
 
 Constructing beta Fock-matrix...
 
 Pipek-Mezey localization...
 Step  Convergence
   1   0.040343933676
   2   0.031430861181
   3   0.001051559779
   4   0.000018582626
   5   0.000008475943
   6   0.000006938094
   7   0.000000191762
   8   0.000000007605
   9   0.000000000339
  10   0.000000000020
  11   0.000000000001
  12   0.000000000000
 CPU time [min]:     1.751                   Wall time [min]:     0.081
 
 Constructing local fitting domains...
 Local fitting domains are unchanged.
 
 Second step of Coulomb + first step of exchange...
 Exchange contribution is evaluated for MOs 1 to 9.
   1% done.
  13% done.
  25% done.
  38% done.
  56% done.
  75% done.
  89% done.
 100% done.
 CPU time [min]:     1.820                   Wall time [min]:     0.084
 
 Fitting and assembly step of exchange...
 CPU time [min]:     1.822                   Wall time [min]:     0.084
 
 Gradient norm:      7.8662E-04
 DIIS is running in this iteration step.
 RMS of alpha [F,P] :                                  0.00000533548082
 RMS of beta  [F,P] :                                  0.00000489074318
 RMS of alpha difference density:                      0.00002592853026
 RMS of beta  difference density:                      0.00001753181301
 Gap [au]:  0.27401323
 ALPHA OCC:  10
 BETA  OCC:   9
 
 ***HARTREE-FOCK ENERGY IN STEP  10 IS       -194.2590181581458069 [AU]
 
 Step comparison  Energy Drift [au]  DIIS error drift  Gradient drift
        9            5.8057E-06         9.6678E-06       1.1470E-03
 ======================================================================
 ITERATION STEP  11
 CPU time [min]:     1.831                   Wall time [min]:     0.084
 

 SCF control                  : diis
 Damping factor/level shift   : 0.000/0.000
 DIIS [start/end/frequency]   :   2 / 50 /  1

 Constructing alpha Fock-matrix...
 
 Pipek-Mezey localization...
 Step  Convergence
   1   0.124788016027
   2   2.059669678678
   3   1.223181853909
   4   0.549003853704
   5   0.313385794490
   6   0.227321980534
   7   0.007719479794
   8   0.002626920020
   9   0.000170084504
  10   0.000094599229
  11   0.000012757375
  12   0.000009214627
  13   0.000000381411
  14   0.000000071725
  15   0.000000068154
  16   0.000000046795
  17   0.000000000946
  18   0.000000000382
  19   0.000000000025
  20   0.000000000006
  21   0.000000000001
  22   0.000000000000
 CPU time [min]:     1.847                   Wall time [min]:     0.085
 
 Constructing local fitting domains...
 Local fitting domains are unchanged.
 
 First step of Coulomb + first step of exchange...
 Exchange contribution is evaluated for MOs 1 to 10.
   1% done.
  13% done.
  25% done.
  38% done.
  56% done.
  75% done.
  89% done.
 100% done.
 CPU time [min]:     1.917                   Wall time [min]:     0.088
 
 Fitting and assembly step of exchange...
 CPU time [min]:     1.919                   Wall time [min]:     0.088
 
 Constructing beta Fock-matrix...
 
 Pipek-Mezey localization...
 Step  Convergence
   1   0.040662954171
   2   0.033892480263
   3   0.000900213094
   4   0.000021600569
   5   0.000001064211
   6   0.000000034947
   7   0.000000029222
   8   0.000000016309
   9   0.000000000829
  10   0.000000000045
  11   0.000000000003
  12   0.000000000000
 CPU time [min]:     1.935                   Wall time [min]:     0.089
 
 Constructing local fitting domains...
 Local fitting domains are unchanged.
 
 Second step of Coulomb + first step of exchange...
 Exchange contribution is evaluated for MOs 1 to 9.
   1% done.
  13% done.
  25% done.
  38% done.
  56% done.
  75% done.
  89% done.
 100% done.
 CPU time [min]:     2.010                   Wall time [min]:     0.092
 
 Fitting and assembly step of exchange...
 CPU time [min]:     2.011                   Wall time [min]:     0.092
 
 Gradient norm:      2.8149E-04
 DIIS is running in this iteration step.
 RMS of alpha [F,P] :                                  0.00000172875968
 RMS of beta  [F,P] :                                  0.00000252955566
 RMS of alpha difference density:                      0.00000793792909
 RMS of beta  difference density:                      0.00000749252668
 Gap [au]:  0.27402505
 ALPHA OCC:  10
 BETA  OCC:   9
 
 ***HARTREE-FOCK ENERGY IN STEP  11 IS       -194.2590194811523645 [AU]
 
 Step comparison  Energy Drift [au]  DIIS error drift  Gradient drift
       10            1.3230E-06         4.1740E-06       5.0513E-04
 ======================================================================
 ITERATION STEP  12
 CPU time [min]:     2.020                   Wall time [min]:     0.093
 

 SCF control                  : diis
 Damping factor/level shift   : 0.000/0.000
 DIIS [start/end/frequency]   :   2 / 50 /  1

 Constructing alpha Fock-matrix...
 
 Pipek-Mezey localization...
 Step  Convergence
   1   0.124879888706
   2   0.924871178997
   3   0.595263466073
   4   0.232409656710
   5   0.043641480534
   6   0.001302013942
   7   0.000352540810
   8   0.000106232460
   9   0.000092871013
  10   0.000018775991
  11   0.000000506922
  12   0.000000492602
  13   0.000000181175
  14   0.000000003470
  15   0.000000003081
  16   0.000000001136
  17   0.000000000372
  18   0.000000000012
  19   0.000000000002
  20   0.000000000001
 CPU time [min]:     2.037                   Wall time [min]:     0.093
 
 Constructing local fitting domains...
 Local fitting domains are unchanged.
 
 First step of Coulomb + first step of exchange...
 Exchange contribution is evaluated for MOs 1 to 10.
   1% done.
  13% done.
  25% done.
  38% done.
  56% done.
  75% done.
  89% done.
 100% done.
 CPU time [min]:     2.106                   Wall time [min]:     0.096
 
 Fitting and assembly step of exchange...
 CPU time [min]:     2.108                   Wall time [min]:     0.096
 
 Constructing beta Fock-matrix...
 
 Pipek-Mezey localization...
 Step  Convergence
   1   0.065631767556
   2   0.057190763822
   3   0.009414993049
   4   0.006939458154
   5   0.000159579484
   6   0.000008674096
   7   0.000000632084
   8   0.000000022912
   9   0.000000000590
  10   0.000000000031
  11   0.000000000001
  12   0.000000000000
 CPU time [min]:     2.119                   Wall time [min]:     0.097
 
 Constructing local fitting domains...
 Local fitting domains are unchanged.
 
 Second step of Coulomb + first step of exchange...
 Exchange contribution is evaluated for MOs 1 to 9.
   1% done.
  13% done.
  25% done.
  38% done.
  56% done.
  75% done.
  89% done.
 100% done.
 CPU time [min]:     2.188                   Wall time [min]:     0.100
 
 Fitting and assembly step of exchange...
 CPU time [min]:     2.190                   Wall time [min]:     0.100
 
 Gradient norm:      1.4092E-04
 DIIS is running in this iteration step.
 RMS of alpha [F,P] :                                  0.00000075446756
 RMS of beta  [F,P] :                                  0.00000075707917
 RMS of alpha difference density:                      0.00000234700826
 RMS of beta  difference density:                      0.00000450301541
 Gap [au]:  0.27405746
 ALPHA OCC:  10
 BETA  OCC:   9
 
 ***HARTREE-FOCK ENERGY IN STEP  12 IS       -194.2590196512906005 [AU]
 
 Step comparison  Energy Drift [au]  DIIS error drift  Gradient drift
       11            1.7014E-07         1.9950E-06       1.4057E-04
 ======================================================================
 ITERATION STEP  13
 CPU time [min]:     2.199                   Wall time [min]:     0.100
 

 SCF control                  : diis
 Damping factor/level shift   : 0.000/0.000
 DIIS [start/end/frequency]   :   2 / 50 /  1

 Constructing alpha Fock-matrix...
 
 Pipek-Mezey localization...
 Step  Convergence
   1   0.103247028079
   2   0.750456051236
   3   0.449268557646
   4   0.296289709031
   5   0.027398154703
   6   0.002016048029
   7   0.000396494404
   8   0.000036095588
   9   0.000009645450
  10   0.000001980832
  11   0.000000347251
  12   0.000000188140
  13   0.000000121485
  14   0.000000103236
  15   0.000000000749
  16   0.000000000459
  17   0.000000000052
  18   0.000000000013
  19   0.000000000009
  20   0.000000000061
  21   0.000000000036
  22   0.000000000000
 CPU time [min]:     2.216                   Wall time [min]:     0.101
 
 Constructing local fitting domains...
 Local fitting domains are unchanged.
 
 First step of Coulomb + first step of exchange...
 Exchange contribution is evaluated for MOs 1 to 10.
   1% done.
  13% done.
  25% done.
  38% done.
  56% done.
  75% done.
  89% done.
 100% done.
 CPU time [min]:     2.286                   Wall time [min]:     0.104
 
 Fitting and assembly step of exchange...
 CPU time [min]:     2.288                   Wall time [min]:     0.104
 
 Constructing beta Fock-matrix...
 
 Pipek-Mezey localization...
 Step  Convergence
   1   0.087558301986
   2   0.542635511435
   3   0.380217107244
   4   0.033303898854
   5   0.002390881116
   6   0.000056748011
   7   0.000000899574
   8   0.000000041137
   9   0.000000004879
  10   0.000000004275
  11   0.000000000118
  12   0.000000000003
  13   0.000000000000
 CPU time [min]:     2.299                   Wall time [min]:     0.105
 
 Constructing local fitting domains...
 Local fitting domains are unchanged.
 
 Second step of Coulomb + first step of exchange...
 Exchange contribution is evaluated for MOs 1 to 9.
   1% done.
  13% done.
  25% done.
  38% done.
  56% done.
  75% done.
  89% done.
 100% done.
 CPU time [min]:     2.368                   Wall time [min]:     0.108
 
 Fitting and assembly step of exchange...
 CPU time [min]:     2.370                   Wall time [min]:     0.108
 
 Gradient norm:      4.9978E-05
 DIIS is running in this iteration step.
 RMS of alpha [F,P] :                                  0.00000015387646
 RMS of beta  [F,P] :                                  0.00000024883292
 RMS of alpha difference density:                      0.00000044814603
 RMS of beta  difference density:                      0.00000114236290
 Gap [au]:  0.27404131
 ALPHA OCC:  10
 BETA  OCC:   9
 
 ***HARTREE-FOCK ENERGY IN STEP  13 IS       -194.2590196804683842 [AU]
 
 Step comparison  Energy Drift [au]  DIIS error drift  Gradient drift
       12            2.9178E-08         7.7626E-07       9.0939E-05
 ======================================================================
 ITERATION STEP  14
 CPU time [min]:     2.378                   Wall time [min]:     0.108
 

 SCF control                  : diis
 Damping factor/level shift   : 0.000/0.000
 DIIS [start/end/frequency]   :   2 / 50 /  1

 Constructing alpha Fock-matrix...
 
 Pipek-Mezey localization...
 Step  Convergence
   1   0.117624765748
   2   1.582682016553
   3   1.292802392760
   4   0.388352187162
   5   0.040513981312
   6   0.001613333088
   7   0.000550372429
   8   0.000032733910
   9   0.000003951954
  10   0.000001211282
  11   0.000000300862
  12   0.000000045121
  13   0.000000012502
  14   0.000000005231
  15   0.000000005926
  16   0.000000000116
  17   0.000000000028
  18   0.000000000005
  19   0.000000000001
 CPU time [min]:     2.395                   Wall time [min]:     0.109
 
 Constructing local fitting domains...
 Local fitting domains are unchanged.
 
 First step of Coulomb + first step of exchange...
 Exchange contribution is evaluated for MOs 1 to 10.
   1% done.
  13% done.
  25% done.
  38% done.
  56% done.
  75% done.
  89% done.
 100% done.
 CPU time [min]:     2.465                   Wall time [min]:     0.112
 
 Fitting and assembly step of exchange...
 CPU time [min]:     2.466                   Wall time [min]:     0.112
 
 Constructing beta Fock-matrix...
 
 Pipek-Mezey localization...
 Step  Convergence
   1   0.117913166187
   2   0.111163946986
   3   0.003316428460
   4   0.000097956524
   5   0.000003008639
   6   0.000000151923
   7   0.000000023730
   8   0.000000001459
   9   0.000000000098
  10   0.000000000009
  11   0.000000000001
 CPU time [min]:     2.478                   Wall time [min]:     0.112
 
 Constructing local fitting domains...
 Local fitting domains are unchanged.
 
 Second step of Coulomb + first step of exchange...
 Exchange contribution is evaluated for MOs 1 to 9.
   1% done.
  13% done.
  25% done.
  38% done.
  56% done.
  75% done.
  89% done.
 100% done.
 CPU time [min]:     2.546                   Wall time [min]:     0.115
 
 Fitting and assembly step of exchange...
 CPU time [min]:     2.548                   Wall time [min]:     0.115
 
 Gradient norm:      2.2078E-05
 DIIS is running in this iteration step.
 RMS of alpha [F,P] :                                  0.00000008876811
 RMS of beta  [F,P] :                                  0.00000012365970
 RMS of alpha difference density:                      0.00000046408858
 RMS of beta  difference density:                      0.00000075097986
 Gap [au]:  0.27404483
 ALPHA OCC:  10
 BETA  OCC:   9
 
 ***HARTREE-FOCK ENERGY IN STEP  14 IS       -194.2590196830131504 [AU]
 
 Step comparison  Energy Drift [au]  DIIS error drift  Gradient drift
       13            2.5448E-09         1.4035E-07       2.7900E-05
 ======================================================================
 ITERATION STEP  15
 CPU time [min]:     2.557                   Wall time [min]:     0.116
 

 SCF control                  : diis
 Damping factor/level shift   : 0.000/0.000
 DIIS [start/end/frequency]   :   2 / 50 /  1

 Constructing alpha Fock-matrix...
 
 Pipek-Mezey localization...
 Step  Convergence
   1   0.100007292283
   2   0.818399429491
   3   0.361736064248
   4   0.101732188179
   5   0.003558791047
   6   0.000544146931
   7   0.000029456838
   8   0.000002028918
   9   0.000000408633
  10   0.000000084062
  11   0.000000021766
  12   0.000000004796
  13   0.000000001043
  14   0.000000000226
  15   0.000000000049
  16   0.000000000011
  17   0.000000000010
  18   0.000000004605
  19   0.000000004491
  20   0.000000000015
  21   0.000000000001
 CPU time [min]:     2.573                   Wall time [min]:     0.117
 
 Constructing local fitting domains...
 Local fitting domains are unchanged.
 
 First step of Coulomb + first step of exchange...
 Exchange contribution is evaluated for MOs 1 to 10.
   1% done.
  13% done.
  25% done.
  38% done.
  56% done.
  75% done.
  89% done.
 100% done.
 CPU time [min]:     2.643                   Wall time [min]:     0.120
 
 Fitting and assembly step of exchange...
 CPU time [min]:     2.645                   Wall time [min]:     0.120
 
 Constructing beta Fock-matrix...
 
 Pipek-Mezey localization...
 Step  Convergence
   1   0.079451051253
   2   0.091419386293
   3   0.003373056035
   4   0.000078942604
   5   0.000002845622
   6   0.000000181635
   7   0.000000008285
   8   0.000000000851
   9   0.000000000045
  10   0.000000000005
  11   0.000000000000
 CPU time [min]:     2.656                   Wall time [min]:     0.120
 
 Constructing local fitting domains...
 Local fitting domains are unchanged.
 
 Second step of Coulomb + first step of exchange...
 Exchange contribution is evaluated for MOs 1 to 9.
   1% done.
  13% done.
  25% done.
  38% done.
  56% done.
  75% done.
  89% done.
 100% done.
 CPU time [min]:     2.726                   Wall time [min]:     0.123
 
 Fitting and assembly step of exchange...
 CPU time [min]:     2.727                   Wall time [min]:     0.123
 
 Gradient norm:      5.0333E-06
 DIIS is running in this iteration step.
 RMS of alpha [F,P] :                                  0.00000002280774
 RMS of beta  [F,P] :                                  0.00000003641230
 RMS of alpha difference density:                      0.00000013239519
 RMS of beta  difference density:                      0.00000021753789
 Gap [au]:  0.27404122
 ALPHA OCC:  10
 BETA  OCC:   9
 
 ***HARTREE-FOCK ENERGY IN STEP  15 IS       -194.2590196838238512 [AU]
 
 Step comparison  Energy Drift [au]  DIIS error drift  Gradient drift
       14            8.1070E-10         1.0926E-07       1.7045E-05
 ======================================================================
 ITERATION STEP  16
 CPU time [min]:     2.737                   Wall time [min]:     0.124
 

 SCF control                  : diis
 Damping factor/level shift   : 0.000/0.000
 DIIS [start/end/frequency]   :   2 / 50 /  1

 Constructing alpha Fock-matrix...
 
 Pipek-Mezey localization...
 Step  Convergence
   1   0.112809858044
   2   0.444580322501
   3   0.485611425367
   4   0.085915496154
   5   0.003245511407
   6   0.000496063740
   7   0.000143571633
   8   0.000014327155
   9   0.000002996057
  10   0.000000699446
  11   0.000000150780
  12   0.000000033031
  13   0.000000007477
  14   0.000000001512
  15   0.000000000339
  16   0.000000000071
  17   0.000000000016
  18   0.000000000004
  19   0.000000000001
 CPU time [min]:     2.754                   Wall time [min]:     0.124
 
 Constructing local fitting domains...
 Local fitting domains are unchanged.
 
 First step of Coulomb + first step of exchange...
 Exchange contribution is evaluated for MOs 1 to 10.
   1% done.
  13% done.
  25% done.
  38% done.
  56% done.
  75% done.
  89% done.
 100% done.
 CPU time [min]:     2.823                   Wall time [min]:     0.127
 
 Fitting and assembly step of exchange...
 CPU time [min]:     2.825                   Wall time [min]:     0.127
 
 Constructing beta Fock-matrix...
 
 Pipek-Mezey localization...
 Step  Convergence
   1   0.099272949137
   2   0.105104541892
   3   0.002031248999
   4   0.000094996281
   5   0.000007404313
   6   0.000000488256
   7   0.000000020096
   8   0.000000003214
   9   0.000000000244
  10   0.000000000021
  11   0.000000000001
  12   0.000000000000
 CPU time [min]:     2.836                   Wall time [min]:     0.128
 
 Constructing local fitting domains...
 Local fitting domains are unchanged.
 
 Second step of Coulomb + first step of exchange...
 Exchange contribution is evaluated for MOs 1 to 9.
   1% done.
  13% done.
  25% done.
  38% done.
  56% done.
  75% done.
  89% done.
 100% done.
 CPU time [min]:     2.905                   Wall time [min]:     0.131
 
 Fitting and assembly step of exchange...
 CPU time [min]:     2.907                   Wall time [min]:     0.131
 
 Gradient norm:      1.0849E-06
 DIIS is running in this iteration step.
 RMS of alpha [F,P] :                                  0.00000000858681
 RMS of beta  [F,P] :                                  0.00000000821531
 RMS of alpha difference density:                      0.00000003379147
 RMS of beta  difference density:                      0.00000003650583
 Gap [au]:  0.27404223
 ALPHA OCC:  10
 BETA  OCC:   9
 
 ***HARTREE-FOCK ENERGY IN STEP  16 IS       -194.2590196838887096 [AU]
 
 Step comparison  Energy Drift [au]  DIIS error drift  Gradient drift
       15            6.4858E-11         3.1082E-08       3.9484E-06
 ======================================================================
 
 SUCCESS...
 THE SCF ITERATION HAS CONVERGED!
 
                   A   
 FINAL ALPHA OCC:  10
 FINAL BETA  OCC:   9
 
 ***FINAL HARTREE-FOCK ENERGY:       -194.2590196838887096 [AU]
 
 Expectation value of S^2:  0.7511
 Average multiplicity:      2.0011
 
 Orbital energies [au]:
      Irrep         Alpha          Beta
    1   A         -4.981165      -4.977600
    2   A         -3.196140      -3.199233
    3   A         -3.196114      -3.199192
    4   A         -3.195720      -3.199177
    5   A         -0.467532      -0.468187
    6   A         -0.467094      -0.467910
    7   A         -0.466563      -0.467840
    8   A         -0.465074      -0.466673
    9   A         -0.464651      -0.466576
 
   10   A         -0.235898       0.013034
 
   11   A          0.038144       0.056403
   12   A          0.048272       0.063146
   13   A          0.052954       0.065449
   14   A          0.106302       0.143737
   15   A          0.196175       0.230264
   16   A          0.213058       0.245048
   17   A          0.220339       0.252894
   18   A          0.284827       0.309729
   19   A          0.286702       0.316487
   20   A          0.323511       0.348394
   21   A          0.360604       0.370262
   22   A          0.383770       0.394032
   23   A          0.412619       0.420314
   24   A          0.507146       0.517664
   25   A          0.510788       0.522608
   26   A          0.538237       0.542539
   27   A          0.653610       0.665629
   28   A          0.679622       0.692956
   29   A          0.695626       0.701329
   30   A          1.106901       1.117248
   31   A          1.171924       1.181479
   32   A          1.181587       1.194100
   33   A          1.190380       1.195036
   34   A          1.257735       1.265189
   35   A          1.295759       1.303519
   36   A          1.347427       1.355183
   37   A          1.353609       1.359986
   38   A          1.399718       1.406900
   39   A          1.437788       1.444363
   40   A          1.487292       1.493695
   41   A          1.493239       1.499734
   42   A          1.535018       1.541165
   43   A          1.623012       1.628493
   44   A          1.666014       1.671979
   45   A          1.784087       1.790226
   46   A          1.787928       1.791906
   47   A          1.823686       1.831077
   48   A          1.988992       1.990928
   49   A          2.011900       2.019270
   50   A          2.790188       2.792298
   51   A          2.959730       2.962198
   52   A          2.982877       2.984284
   53   A          5.912254       5.913442
   54   A          5.914522       5.915526
   55   A          5.957711       5.958463
   56   A          5.975179       5.975992
   57   A          5.980534       5.981883
   58   A          6.007390       6.008227
   59   A          6.074635       6.075763
   60   A          6.157996       6.158700
   61   A          6.191144       6.192062
   62   A          6.315776       6.314460
   63   A          6.315806       6.314482
   64   A          6.316474       6.314944
   65   A          6.318114       6.316601
   66   A          6.319649       6.318050
   67   A          6.324493       6.322921
   68   A          6.340754       6.339202
   69   A         10.036274      10.037128
   70   A         10.036293      10.037168
   71   A         10.036793      10.037598
   72   A         10.037041      10.037818
   73   A         10.038938      10.039578
   74   A         10.040159      10.040798
   75   A         10.043391      10.043867
   76   A         10.043668      10.044141
   77   A         10.044105      10.044505
   78   A         10.044235      10.044631
   79   A         10.044384      10.044753
   80   A         10.044447      10.044898
   81   A         10.044643      10.045062
   82   A         10.044850      10.045239
   83   A         10.045643      10.046014
   84   A         10.046197      10.046562
   85   A         10.046231      10.046568
   86   A         10.047237      10.047551
   87   A         10.048043      10.048418
   88   A         10.049571      10.050164
   89   A         10.061304      10.061654
   90   A         13.514521      13.515032
   91   A         13.580335      13.580779
   92   A         13.595457      13.596059
   93   A         13.606396      13.607035
   94   A         13.689368      13.690099
   95   A         13.708980      13.709408
   96   A         13.722440      13.723025
   97   A         13.753316      13.753861
   98   A         13.808878      13.809413
   99   A         13.841468      13.841877
  100   A         13.938397      13.938858
  101   A         14.001361      14.002182
  102   A         14.064276      14.064952
  103   A         14.100486      14.100982
  104   A         14.333109      14.333446
  105   A         25.707064      25.707371
  106   A         25.867493      25.867711
  107   A         25.876223      25.876580
  108   A         85.477419      85.477547
  109   A         85.479817      85.479947
  110   A         85.539184      85.539272
  111   A         85.566989      85.567085
  112   A         85.579079      85.579239
  113   A         85.617339      85.617443
  114   A         85.702176      85.702308
  115   A         85.823846      85.823933
  116   A         85.871898      85.872032
  117   A        100.347767     100.348877
  118   A        108.890387     108.889394
  119   A        108.928485     108.927478
  120   A        109.205490     109.204403
  121   A        315.989257     315.989486
  122   A        473.288228     473.288257
  123   A        473.503565     473.503585
  124   A        473.515002     473.515036
 
 RETURNING FROM SCF ALGORITHM
 ======================================================================

 ************************ 2022-11-12 14:08:06 *************************
 Executing integ...

 Allocation of 150.0 Gbytes of memory...
 
 
 Number of atoms:                  4
 Charge:                           0
 Number of electrons:             19
 Number of core electrons:         8
 Spin multiplicity:                2
 
                 Cartesian coordinates [bohr]      Atomic mass [AMU]  Z
   1  Cu    2.20563686    0.73520736    2.03716040    62.929599      29
   2  Cu    0.04119457   -0.24516386   -2.22578601     0.000000       0
   3  Cu   -0.80986997   -2.14415441    2.22578601     0.000000       0
   4  Cu   -2.20563686    2.14415441    0.35400640     0.000000       0
 
 This molecule is an asymmetric top.
 
 Point group: C1  
 Computational point group: C1  
 
 Cartesian coordinates in standard orientation [bohr]
   1  Cu   -0.87184961    0.12565739   -0.01013965
   2  Cu    3.44827388    1.06284607    2.05791756
   3  Cu    1.73578122   -3.12922552    0.14981012
   4  Cu    3.53444102    0.80980556   -2.10633121
 
 Nuclear repulsion energy [au]:          0.000000000000
 
 
 Basis set information:
 
 Maximum angular momentum: i
 Maximum number of contracted Gaussians:   16
 Maximum number of primitive Gaussians:    19
 Spherical harmonic GTOs are used.
 
 
 Conventional basis set:
 
   1  Cu bse_acvdz [ 10s 9p 8d 3f | 6s 6p 5d 3f ]
   2  Cu bse_acvdz [ 10s 9p 8d 3f | 6s 6p 5d 3f ]
   3  Cu bse_acvdz [ 10s 9p 8d 3f | 6s 6p 5d 3f ]
   4  Cu bse_acvdz [ 10s 9p 8d 3f | 6s 6p 5d 3f ]
 
 Basis functions:
            1             2             3             4             5             6             7             8             9            10
    0    1Cu1s         1Cu2s         1Cu3s         1Cu4s         1Cu5s         1Cu6s         1Cu1pz        1Cu1py        1Cu1px        1Cu2pz    
    1    1Cu2py        1Cu2px        1Cu3pz        1Cu3py        1Cu3px        1Cu4pz        1Cu4py        1Cu4px        1Cu5pz        1Cu5py    
    2    1Cu5px        1Cu6pz        1Cu6py        1Cu6px        1Cu1d-2       1Cu1d-1       1Cu1d0        1Cu1d+1       1Cu1d+2       1Cu2d-2   
    3    1Cu2d-1       1Cu2d0        1Cu2d+1       1Cu2d+2       1Cu3d-2       1Cu3d-1       1Cu3d0        1Cu3d+1       1Cu3d+2       1Cu4d-2   
    4    1Cu4d-1       1Cu4d0        1Cu4d+1       1Cu4d+2       1Cu5d-2       1Cu5d-1       1Cu5d0        1Cu5d+1       1Cu5d+2       1Cu1f-3   
    5    1Cu1f-2       1Cu1f-1       1Cu1f0        1Cu1f+1       1Cu1f+2       1Cu1f+3       1Cu2f-3       1Cu2f-2       1Cu2f-1       1Cu2f0    
    6    1Cu2f+1       1Cu2f+2       1Cu2f+3       1Cu3f-3       1Cu3f-2       1Cu3f-1       1Cu3f0        1Cu3f+1       1Cu3f+2       1Cu3f+3   
    7    2Cu1s         2Cu2s         2Cu3s         2Cu4s         2Cu5s         2Cu6s         2Cu1pz        2Cu1py        2Cu1px        2Cu2pz    
    8    2Cu2py        2Cu2px        2Cu3pz        2Cu3py        2Cu3px        2Cu4pz        2Cu4py        2Cu4px        2Cu5pz        2Cu5py    
    9    2Cu5px        2Cu6pz        2Cu6py        2Cu6px        2Cu1d-2       2Cu1d-1       2Cu1d0        2Cu1d+1       2Cu1d+2       2Cu2d-2   
   10    2Cu2d-1       2Cu2d0        2Cu2d+1       2Cu2d+2       2Cu3d-2       2Cu3d-1       2Cu3d0        2Cu3d+1       2Cu3d+2       2Cu4d-2   
   11    2Cu4d-1       2Cu4d0        2Cu4d+1       2Cu4d+2       2Cu5d-2       2Cu5d-1       2Cu5d0        2Cu5d+1       2Cu5d+2       2Cu1f-3   
   12    2Cu1f-2       2Cu1f-1       2Cu1f0        2Cu1f+1       2Cu1f+2       2Cu1f+3       2Cu2f-3       2Cu2f-2       2Cu2f-1       2Cu2f0    
   13    2Cu2f+1       2Cu2f+2       2Cu2f+3       2Cu3f-3       2Cu3f-2       2Cu3f-1       2Cu3f0        2Cu3f+1       2Cu3f+2       2Cu3f+3   
   14    3Cu1s         3Cu2s         3Cu3s         3Cu4s         3Cu5s         3Cu6s         3Cu1pz        3Cu1py        3Cu1px        3Cu2pz    
   15    3Cu2py        3Cu2px        3Cu3pz        3Cu3py        3Cu3px        3Cu4pz        3Cu4py        3Cu4px        3Cu5pz        3Cu5py    
   16    3Cu5px        3Cu6pz        3Cu6py        3Cu6px        3Cu1d-2       3Cu1d-1       3Cu1d0        3Cu1d+1       3Cu1d+2       3Cu2d-2   
   17    3Cu2d-1       3Cu2d0        3Cu2d+1       3Cu2d+2       3Cu3d-2       3Cu3d-1       3Cu3d0        3Cu3d+1       3Cu3d+2       3Cu4d-2   
   18    3Cu4d-1       3Cu4d0        3Cu4d+1       3Cu4d+2       3Cu5d-2       3Cu5d-1       3Cu5d0        3Cu5d+1       3Cu5d+2       3Cu1f-3   
   19    3Cu1f-2       3Cu1f-1       3Cu1f0        3Cu1f+1       3Cu1f+2       3Cu1f+3       3Cu2f-3       3Cu2f-2       3Cu2f-1       3Cu2f0    
[...]
   52    3Cu9pz        3Cu9py        3Cu9px        3Cu10pz       3Cu10py       3Cu10px       3Cu1d-2       3Cu1d-1       3Cu1d0        3Cu1d+1   
   53    3Cu1d+2       3Cu2d-2       3Cu2d-1       3Cu2d0        3Cu2d+1       3Cu2d+2       3Cu3d-2       3Cu3d-1       3Cu3d0        3Cu3d+1   
   54    3Cu3d+2       3Cu4d-2       3Cu4d-1       3Cu4d0        3Cu4d+1       3Cu4d+2       3Cu5d-2       3Cu5d-1       3Cu5d0        3Cu5d+1   
   55    3Cu5d+2       3Cu6d-2       3Cu6d-1       3Cu6d0        3Cu6d+1       3Cu6d+2       3Cu7d-2       3Cu7d-1       3Cu7d0        3Cu7d+1   
   56    3Cu7d+2       3Cu8d-2       3Cu8d-1       3Cu8d0        3Cu8d+1       3Cu8d+2       3Cu1f-3       3Cu1f-2       3Cu1f-1       3Cu1f0    
   57    3Cu1f+1       3Cu1f+2       3Cu1f+3       3Cu2f-3       3Cu2f-2       3Cu2f-1       3Cu2f0        3Cu2f+1       3Cu2f+2       3Cu2f+3   
   58    3Cu3f-3       3Cu3f-2       3Cu3f-1       3Cu3f0        3Cu3f+1       3Cu3f+2       3Cu3f+3       3Cu4f-3       3Cu4f-2       3Cu4f-1   
   59    3Cu4f0        3Cu4f+1       3Cu4f+2       3Cu4f+3       3Cu5f-3       3Cu5f-2       3Cu5f-1       3Cu5f0        3Cu5f+1       3Cu5f+2   
   60    3Cu5f+3       3Cu6f-3       3Cu6f-2       3Cu6f-1       3Cu6f0        3Cu6f+1       3Cu6f+2       3Cu6f+3       3Cu7f-3       3Cu7f-2   
   61    3Cu7f-1       3Cu7f0        3Cu7f+1       3Cu7f+2       3Cu7f+3       3Cu8f-3       3Cu8f-2       3Cu8f-1       3Cu8f0        3Cu8f+1   
   62    3Cu8f+2       3Cu8f+3       3Cu1g-4       3Cu1g-3       3Cu1g-2       3Cu1g-1       3Cu1g0        3Cu1g+1       3Cu1g+2       3Cu1g+3   
   63    3Cu1g+4       3Cu2g-4       3Cu2g-3       3Cu2g-2       3Cu2g-1       3Cu2g0        3Cu2g+1       3Cu2g+2       3Cu2g+3       3Cu2g+4   
   64    3Cu3g-4       3Cu3g-3       3Cu3g-2       3Cu3g-1       3Cu3g0        3Cu3g+1       3Cu3g+2       3Cu3g+3       3Cu3g+4       3Cu4g-4   
   65    3Cu4g-3       3Cu4g-2       3Cu4g-1       3Cu4g0        3Cu4g+1       3Cu4g+2       3Cu4g+3       3Cu4g+4       3Cu5g-4       3Cu5g-3   
   66    3Cu5g-2       3Cu5g-1       3Cu5g0        3Cu5g+1       3Cu5g+2       3Cu5g+3       3Cu5g+4       3Cu6g-4       3Cu6g-3       3Cu6g-2   
   67    3Cu6g-1       3Cu6g0        3Cu6g+1       3Cu6g+2       3Cu6g+3       3Cu6g+4       3Cu7g-4       3Cu7g-3       3Cu7g-2       3Cu7g-1   
   68    3Cu7g0        3Cu7g+1       3Cu7g+2       3Cu7g+3       3Cu7g+4       3Cu1h-5       3Cu1h-4       3Cu1h-3       3Cu1h-2       3Cu1h-1   
   69    3Cu1h0        3Cu1h+1       3Cu1h+2       3Cu1h+3       3Cu1h+4       3Cu1h+5       3Cu2h-5       3Cu2h-4       3Cu2h-3       3Cu2h-2   
   70    3Cu2h-1       3Cu2h0        3Cu2h+1       3Cu2h+2       3Cu2h+3       3Cu2h+4       3Cu2h+5       3Cu3h-5       3Cu3h-4       3Cu3h-3   
   71    3Cu3h-2       3Cu3h-1       3Cu3h0        3Cu3h+1       3Cu3h+2       3Cu3h+3       3Cu3h+4       3Cu3h+5       3Cu4h-5       3Cu4h-4   
   72    3Cu4h-3       3Cu4h-2       3Cu4h-1       3Cu4h0        3Cu4h+1       3Cu4h+2       3Cu4h+3       3Cu4h+4       3Cu4h+5       4Cu1s     
   73    4Cu2s         4Cu3s         4Cu4s         4Cu5s         4Cu6s         4Cu7s         4Cu8s         4Cu9s         4Cu10s        4Cu1pz    
   74    4Cu1py        4Cu1px        4Cu2pz        4Cu2py        4Cu2px        4Cu3pz        4Cu3py        4Cu3px        4Cu4pz        4Cu4py    
   75    4Cu4px        4Cu5pz        4Cu5py        4Cu5px        4Cu6pz        4Cu6py        4Cu6px        4Cu7pz        4Cu7py        4Cu7px    
   76    4Cu8pz        4Cu8py        4Cu8px        4Cu9pz        4Cu9py        4Cu9px        4Cu10pz       4Cu10py       4Cu10px       4Cu1d-2   
   77    4Cu1d-1       4Cu1d0        4Cu1d+1       4Cu1d+2       4Cu2d-2       4Cu2d-1       4Cu2d0        4Cu2d+1       4Cu2d+2       4Cu3d-2   
   78    4Cu3d-1       4Cu3d0        4Cu3d+1       4Cu3d+2       4Cu4d-2       4Cu4d-1       4Cu4d0        4Cu4d+1       4Cu4d+2       4Cu5d-2   
   79    4Cu5d-1       4Cu5d0        4Cu5d+1       4Cu5d+2       4Cu6d-2       4Cu6d-1       4Cu6d0        4Cu6d+1       4Cu6d+2       4Cu7d-2   
   80    4Cu7d-1       4Cu7d0        4Cu7d+1       4Cu7d+2       4Cu8d-2       4Cu8d-1       4Cu8d0        4Cu8d+1       4Cu8d+2       4Cu1f-3   
   81    4Cu1f-2       4Cu1f-1       4Cu1f0        4Cu1f+1       4Cu1f+2       4Cu1f+3       4Cu2f-3       4Cu2f-2       4Cu2f-1       4Cu2f0    
   82    4Cu2f+1       4Cu2f+2       4Cu2f+3       4Cu3f-3       4Cu3f-2       4Cu3f-1       4Cu3f0        4Cu3f+1       4Cu3f+2       4Cu3f+3   
   83    4Cu4f-3       4Cu4f-2       4Cu4f-1       4Cu4f0        4Cu4f+1       4Cu4f+2       4Cu4f+3       4Cu5f-3       4Cu5f-2       4Cu5f-1   
   84    4Cu5f0        4Cu5f+1       4Cu5f+2       4Cu5f+3       4Cu6f-3       4Cu6f-2       4Cu6f-1       4Cu6f0        4Cu6f+1       4Cu6f+2   
   85    4Cu6f+3       4Cu7f-3       4Cu7f-2       4Cu7f-1       4Cu7f0        4Cu7f+1       4Cu7f+2       4Cu7f+3       4Cu8f-3       4Cu8f-2   
   86    4Cu8f-1       4Cu8f0        4Cu8f+1       4Cu8f+2       4Cu8f+3       4Cu1g-4       4Cu1g-3       4Cu1g-2       4Cu1g-1       4Cu1g0    
   87    4Cu1g+1       4Cu1g+2       4Cu1g+3       4Cu1g+4       4Cu2g-4       4Cu2g-3       4Cu2g-2       4Cu2g-1       4Cu2g0        4Cu2g+1   
   88    4Cu2g+2       4Cu2g+3       4Cu2g+4       4Cu3g-4       4Cu3g-3       4Cu3g-2       4Cu3g-1       4Cu3g0        4Cu3g+1       4Cu3g+2   
   89    4Cu3g+3       4Cu3g+4       4Cu4g-4       4Cu4g-3       4Cu4g-2       4Cu4g-1       4Cu4g0        4Cu4g+1       4Cu4g+2       4Cu4g+3   
   90    4Cu4g+4       4Cu5g-4       4Cu5g-3       4Cu5g-2       4Cu5g-1       4Cu5g0        4Cu5g+1       4Cu5g+2       4Cu5g+3       4Cu5g+4   
   91    4Cu6g-4       4Cu6g-3       4Cu6g-2       4Cu6g-1       4Cu6g0        4Cu6g+1       4Cu6g+2       4Cu6g+3       4Cu6g+4       4Cu7g-4   
   92    4Cu7g-3       4Cu7g-2       4Cu7g-1       4Cu7g0        4Cu7g+1       4Cu7g+2       4Cu7g+3       4Cu7g+4       4Cu1h-5       4Cu1h-4   
   93    4Cu1h-3       4Cu1h-2       4Cu1h-1       4Cu1h0        4Cu1h+1       4Cu1h+2       4Cu1h+3       4Cu1h+4       4Cu1h+5       4Cu2h-5   
   94    4Cu2h-4       4Cu2h-3       4Cu2h-2       4Cu2h-1       4Cu2h0        4Cu2h+1       4Cu2h+2       4Cu2h+3       4Cu2h+4       4Cu2h+5   
   95    4Cu3h-5       4Cu3h-4       4Cu3h-3       4Cu3h-2       4Cu3h-1       4Cu3h0        4Cu3h+1       4Cu3h+2       4Cu3h+3       4Cu3h+4   
   96    4Cu3h+5       4Cu4h-5       4Cu4h-4       4Cu4h-3       4Cu4h-2       4Cu4h-1       4Cu4h0        4Cu4h+1       4Cu4h+2       4Cu4h+3   
   97    4Cu4h+4       4Cu4h+5   
 
 Maximum number of basis functions per shell:   63
 Total number of basis functions:    972
 
 
 Old basis set for SCF restart
 
   1  Cu def2-svp [ 14s 9p 5d 1f | 5s 3p 2d 1f ]
   2  Cu def2-svp [ 14s 9p 5d 1f | 5s 3p 2d 1f ]
   3  Cu def2-svp [ 14s 9p 5d 1f | 5s 3p 2d 1f ]
   4  Cu def2-svp [ 14s 9p 5d 1f | 5s 3p 2d 1f ]
 
 Basis functions:
            1             2             3             4             5             6             7             8             9            10
    0    1Cu1s         1Cu2s         1Cu3s         1Cu4s         1Cu5s         1Cu1pz        1Cu1py        1Cu1px        1Cu2pz        1Cu2py    
    1    1Cu2px        1Cu3pz        1Cu3py        1Cu3px        1Cu1d-2       1Cu1d-1       1Cu1d0        1Cu1d+1       1Cu1d+2       1Cu2d-2   
    2    1Cu2d-1       1Cu2d0        1Cu2d+1       1Cu2d+2       1Cu1f-3       1Cu1f-2       1Cu1f-1       1Cu1f0        1Cu1f+1       1Cu1f+2   
    3    1Cu1f+3       2Cu1s         2Cu2s         2Cu3s         2Cu4s         2Cu5s         2Cu1pz        2Cu1py        2Cu1px        2Cu2pz    
    4    2Cu2py        2Cu2px        2Cu3pz        2Cu3py        2Cu3px        2Cu1d-2       2Cu1d-1       2Cu1d0        2Cu1d+1       2Cu1d+2   
    5    2Cu2d-2       2Cu2d-1       2Cu2d0        2Cu2d+1       2Cu2d+2       2Cu1f-3       2Cu1f-2       2Cu1f-1       2Cu1f0        2Cu1f+1   
    6    2Cu1f+2       2Cu1f+3       3Cu1s         3Cu2s         3Cu3s         3Cu4s         3Cu5s         3Cu1pz        3Cu1py        3Cu1px    
    7    3Cu2pz        3Cu2py        3Cu2px        3Cu3pz        3Cu3py        3Cu3px        3Cu1d-2       3Cu1d-1       3Cu1d0        3Cu1d+1   
    8    3Cu1d+2       3Cu2d-2       3Cu2d-1       3Cu2d0        3Cu2d+1       3Cu2d+2       3Cu1f-3       3Cu1f-2       3Cu1f-1       3Cu1f0    
    9    3Cu1f+1       3Cu1f+2       3Cu1f+3       4Cu1s         4Cu2s         4Cu3s         4Cu4s         4Cu5s         4Cu1pz        4Cu1py    
   10    4Cu1px        4Cu2pz        4Cu2py        4Cu2px        4Cu3pz        4Cu3py        4Cu3px        4Cu1d-2       4Cu1d-1       4Cu1d0    
   11    4Cu1d+1       4Cu1d+2       4Cu2d-2       4Cu2d-1       4Cu2d0        4Cu2d+1       4Cu2d+2       4Cu1f-3       4Cu1f-2       4Cu1f-1   
   12    4Cu1f0        4Cu1f+1       4Cu1f+2       4Cu1f+3   
 
 Maximum number of basis functions per shell:   63
 Total number of basis functions:    124
 
 
 Effective core potentials:
 
   1  Cu mcdhf-ecp-10        
 
 Calculation of prescreening integrals...
 CPU time [min]:     0.918                   Wall time [min]:     0.044
 
 Calculation of two-center Coulomb integrals...
   1% done.
  15% done.
  26% done.
  41% done.
  56% done.
  69% done.
  91% done.
 100% done.
 CPU time [min]:     0.931                   Wall time [min]:     0.045
 
 Cholesky decomposition of the inverse of the two-center matrix...
 CPU time [min]:     0.949                   Wall time [min]:     0.046
 
 Calculation of three-center Coulomb integrals...
   1% done.
  18% done.
  34% done.
  46% done.
  60% done.
  86% done.
 100% done.
 CPU time [min]:     1.367                   Wall time [min]:     0.093

 ************************ 2022-11-12 14:08:29 *************************
 Executing drpa...

 Three-index integral transformation
 
 Allocation of 150.0 Gbytes of memory...

 Alpha-alpha contribution
 Minimal memory requirement for (ai|P) and (ij|P) integrals:       25.0 MB

 Calculating (ai|P) and (ij|P) integrals...
 Number of integral batches:    1
 Occupied indices per batch:   10
 
 Transforming integrals of batch 1...
 CPU time [min]:     0.584                   Wall time [min]:     0.036


 Beta-beta and alpha-beta contribution
 Minimal memory requirement for (ai|P) and (ij|P) integrals:       56.6 MB

 Calculating (ai|P) and (ij|P) integrals...
 Number of integral batches:    1
 Occupied indices per batch:    9
 
 Transforming integrals of batch 1...
 CPU time [min]:     2.021                   Wall time [min]:     0.150



 Alpha-alpha contribution

 Constructing MP2 natural orbitals...

 Threshold for individual occupations:     5.0000E-06
 Corresponding cummulative occupation threshold:  0.99979162  0.99972201
 Total number of virtual orbitals:     270
 Number of virtual natural orbitals:    63  (23.33%)
 
 Transforming (ai|P) integrals to the NO basis...
 Number of integral batches:    1
 Occupied indices per batch:   10
 
 Transforming integrals of batch 1 to the NO basis...
 CPU time [min]:     2.064                   Wall time [min]:     0.151

 Calculating (ab|P) integrals...
 Minimal memory requirement for (ab|P) integrals:       14.2 MB
 Number of integral batches:    1
 Virtual indices per batch:    63

 Transforming integrals of batch 1...
 CPU time [min]:     2.187                   Wall time [min]:     0.197


 Beta-beta and alpha-beta contribution

 Constructing MP2 natural orbitals...

 Threshold for individual occupations:     5.0000E-06
 Corresponding cummulative occupation threshold:  0.99976480  0.99968719
 Total number of virtual orbitals:     271
 Number of virtual natural orbitals:    63  (23.25%)
 
 Transforming (ai|P) integrals to the NO basis...
 Number of integral batches:    1
 Occupied indices per batch:    9
 
 Transforming integrals of batch 1 to the NO basis...
 CPU time [min]:     2.259                   Wall time [min]:     0.200

 Calculating (ab|P) integrals...
 Minimal memory requirement for (ab|P) integrals:       14.2 MB
 Number of integral batches:    1
 Virtual indices per batch:    63

 Transforming integrals of batch 1...
 CPU time [min]:     2.381                   Wall time [min]:     0.246



 Alpha-alpha contribution

 Constructing natural auxiliary functions...

 Threshold for eigenvalues:     2.0000E-02
 Total number of auxiliary functions:     972
 Number of natural auxiliary functions:   229  (23.56%)

 Transforming (ai|P) and (ij|P) integrals to the NAF basis...
 Number of integral batches:    1
 Occupied indices per batch:   10
 
 Transforming integrals of batch 1 to the NAF basis...
 CPU time [min]:     2.458                   Wall time [min]:     0.249

 Transforming (ab|P) integrals to the NAF basis...
 Number of integral batches:    1
 Virtual indices per batch:    63

 Transforming integrals of batch 1 to the NAF basis...
 CPU time [min]:     2.471                   Wall time [min]:     0.250


 Beta-beta and alpha-beta contribution

 Transforming (ai|P) and (ij|P) integrals to the NAF basis...
 Number of integral batches:    1
 Occupied indices per batch:    9
 
 Transforming integrals of batch 1 to the NAF basis...
 CPU time [min]:     2.530                   Wall time [min]:     0.252

 Transforming (ab|P) integrals to the NAF basis...
 Number of integral batches:    1
 Virtual indices per batch:    63

 Transforming integrals of batch 1 to the NAF basis...
 CPU time [min]:     2.543                   Wall time [min]:     0.253
 

 Results in full basis:
 
 
 Reference energy [au]:                      -196.165753270093
 DF-MP2 singlet pair energy [au]:              -0.593286787142
 DF-MP2 triplet pair energy [au]:              -0.297223278132
 DF-SCS-MP2 correlation energy [au]:           -0.811018570615
 DF-SCS-MP2 energy [au]:                     -196.976771840707
 DF-SOS-MP2 correlation energy [au]:           -0.771272823285
 DF-SOS-MP2 energy [au]:                     -196.937026093378
 DF-MP2 correlation energy [au]:               -0.890510065274
 DF-MP2 energy [au]:                         -197.056263335367

 Results in FNO basis:
 
 
 Reference energy [au]:                      -196.165753270093
 DF-MP2 singlet pair energy [au]:              -0.592834287355
 DF-MP2 triplet pair energy [au]:              -0.297132269527
 DF-SCS-MP2 correlation energy [au]:           -0.810445234669
 DF-SCS-MP2 energy [au]:                     -196.976198504762
 DF-SOS-MP2 correlation energy [au]:           -0.770684573562
 DF-SOS-MP2 energy [au]:                     -196.936437843655
 DF-MP2 correlation energy [au]:               -0.889966556883
 DF-MP2 energy [au]:                         -197.055719826975

 Results in NAF basis:
 
 
 Reference energy [au]:                      -196.165753270093
 DF-MP2 singlet pair energy [au]:              -0.592762850160
 DF-MP2 triplet pair energy [au]:              -0.297277916898
 DF-SCS-MP2 correlation energy [au]:           -0.810408059158
 DF-SCS-MP2 energy [au]:                     -196.976161329251
 DF-SOS-MP2 correlation energy [au]:           -0.770591705208
 DF-SOS-MP2 energy [au]:                     -196.936344975301
 DF-MP2 correlation energy [au]:               -0.890040767058
 DF-MP2 energy [au]:                         -197.055794037150

 ************************ 2022-11-12 14:08:44 *************************
 Executing uccsd...

 Allocation of 150.0 Gbytes of memory...
 
 UHF reference wavefunction.
 Canonical DF-CCSD(T) calculation.
 Number of correlated alpha electrons:       10
 Number of correlated beta electrons:         9
 Number of virtual alpha orbitals:           63
 Number of virtual beta orbitals:            63
 Number of auxiliary basis functions:       229
 Minimal memory requirement for CCSD:  19.23 MB
 Disk space requirement for CCSD:      79.52 MB
 Minimal memory requirement for (T):   25.42 MB
 Disk space requirement for (T):       95.45 MB
 
 Assembling four center integrals... Done!
 CPU time [min]:     0.130                   Wall time [min]:     0.007
 
 Reference energy [au]:                     -196.165753270093
 T1 contributions [au]:                       -0.000000000000
 Same spin MP2 energy [au]:                   -0.297205003849
 Opposite spin MP2 energy [au]:               -0.592798463366
 MP2 correlation energy [au]:                 -0.890003467215
 Total MP2 energy [au]:                     -197.055756737308
 MP2 correction [au]:                         -0.000506598058
 
 Projected  S^2 /   T1,    T2, total/   -0.000000  -0.000000   0.752160
 
 Starting CCSD iterations...
 
                     Residual norm     Correlation energy [au]
 -------------------------------------------------------------
 Iteration  1       0.197179422300        -0.717982852763
 Iteration  2       0.141160526829        -0.770990598428
 Iteration  3       0.028428397230        -0.780479832327
 Iteration  4       0.011278299851        -0.779478960066
 Iteration  5       0.002704463505        -0.778926717058
 Iteration  6       0.000751149576        -0.779014338445
 Iteration  7       0.000374982996        -0.779016030855
 Iteration  8       0.000155304215        -0.778996677918
 Iteration  9       0.000067557003        -0.778996394179
 Iteration 10       0.000032074053        -0.779001480352
 Iteration 11       0.000016529276        -0.779002764906
 Iteration 12       0.000008760563        -0.779001359974
 Iteration 13       0.000004538348        -0.779001296912
 
 CCSD iteration has converged in 13 steps.
 
 T1 contribution [au]:                                 -0.000000000000
 PPL energy contribution [au]:                          0.097749667820
 Scaled PPL energy contribution [au]:                   0.097800229503
 
 OS-PPL energy contribution [au]:                       0.072086669691
 Scaled OS-PPL energy contribution [au]:                0.072150837333
 SS-PPL energy contribution [au]:                       0.025662998129
 Scaled SS-PPL energy contribution [au]:                0.025657445083
 
 Opposite spin CCSD energy [au]:                       -0.544818789671
 Same spin CCSD energy [au]:                           -0.234165985917
 CCSD correlation energy [au]:                         -0.778984775588
 CCSD correlation energy + MP2 correction [au]:        -0.779491373646
 CCSD correlation energy + MP2 + PPL corr. [au]:       -0.779440811963
 Total CCSD energy [au]:                             -196.944738045680
 Total CCSD energy + MP2 correction [au]:            -196.945244643739
 Total CCSD energy + MP2 + PPL corr. [au]:           -196.945194082056
 
 Projected  S^2 /   T1,    T2, total/   -0.000002   0.000000   0.752157
 
 Alpha T1 diagnostic:      2.932E-02      D1 diagnostic:      5.930E-02
 Beta  T1 diagnostic:      2.763E-02      D1 diagnostic:      3.730E-02
 CPU time [min]:     4.104                   Wall time [min]:     0.174
 
 Calculation of (T) correction...
   1% done.
  12% done.
  24% done.
  35% done.
  47% done.
  58% done.
  72% done.
  86% done.
 100% done.
 
 (T) correction [au]:                                 -0.026974856546
 (T*) correction [au]:                                -0.026990210879
 (T+) correction [au]:                                -0.026989787577
 CCSD(T) correlation energy [au]:                     -0.805959632133
 CCSD(T) correlation energy + MP2 correction [au]:    -0.806466230192
 CCSD(T+) correlation en. + MP2 + PPL corr. [au]:     -0.806430599540
 Total CCSD(T) energy [au]:                         -196.971712902226
 Total CCSD(T) energy + MP2 correction [au]:        -196.972219500284
 Total CCSD(T+) energy + MP2 + PPL corr. [au]:      -196.972183869632
 
 CPU time [min]:     5.411                   Wall time [min]:     0.242
 
 ************************ 2022-11-12 14:08:59 *************************
                      Normal termination of mrcc.
 **********************************************************************
