 vasp.6.3.0 20Jan22 (build Apr  1 2022 16:44:48) complex                         
 executed on        HPECrayEX_GCC date 2023.01.09  20:13:45
 running  768 mpi-ranks, with    1 threads/rank
 distrk:  each k-point on  384 cores,    2 groups
 distr:  one band on NCORE=   4 cores,   96 groups


--------------------------------------------------------------------------------------------------------


 INCAR:
   SYSTEM = MgO-rocksalt
   ISMEAR = 0
   SIGMA = 0.05
   EDIFF = 1E-6
   ALGO = ALL
   ISTART = 0
   IBRION = -1
   NSW = 0
   ISYM = 2
   DIPOL = 0.5 0.5 0.5
   IDIPOL = 3
   LDIPOL = .TRUE.
   GGA = ML
   LUSE_VDW = .TRUE.
   ZAB_VDW = -1.8867
   AGGAC = 0.0000
   ENCUT = 520
   PREC = Accurate
   LASPH = .TRUE.
   LREAL = Auto
   ISPIN = 1
   NELM = 200
   NELMIN = 8
   NCORE = 4
   KPAR = 2
   LWAVE = .FALSE.
   LCHARG = .FALSE.

 POTCAR:    PAW_PBE Ag 02Apr2005                  
 POTCAR:    PAW_PBE Mg_pv 13Apr2007               
 POTCAR:    PAW_PBE O 08Apr2002                   
 -----------------------------------------------------------------------------
|                                                                             |
|               ----> ADVICE to this user running VASP <----                  |
|                                                                             |
|     You have switched on vdW-DFT.                                           |
|     This routine was written and supplied by Jiri Klimes. We recommend      |
|     that you carefully read and cite the following publications:            |
|       J. Klimes, D.R. Bowler, A. Michelides                                 |
|          J. Phys.: Cond Matt. 22 022201 (2010)                              |
|       J. Klimes, D.R. Bowler, A. Michelides                                 |
|          Phys. Rev. B. 83, 195131 (2011)                                    |
|     and references therein.                                                 |
|                                                                             |
 -----------------------------------------------------------------------------

 POTCAR:    PAW_PBE Ag 02Apr2005                  
   SHA256 =  6550cfa3543261e132c169e1b98a529204624d72be14e2da2e0242bcb74a174d Ag/POTCAR             
   COPYR  = (c) Copyright 02Apr2005 Georg Kresse                                                    
   COPYR  = This file is part of the software VASP. Any use, copying, and all other rights are regul
   COPYR  = If you do not have a valid VASP license, you may not use, copy or distribute this file. 
   VRHFIN =Ag : s1 d10                                                                              
   LEXCH  = PE                                                                                      
   EATOM  =  1037.2675 eV,   76.2370 Ry                                                             
                                                                                                    
   TITEL  = PAW_PBE Ag 02Apr2005                                                                    
   LULTRA =        F    use ultrasoft PP ?                                                          
   IUNSCR =        1    unscreen: 0-lin 1-nonlin 2-no                                               
   RPACOR =    2.000    partial core radius                                                         
   POMASS =  107.868; ZVAL   =   11.000    mass and valenz                                          
   RCORE  =    2.500    outmost cutoff radius                                                       
   RWIGS  =    2.840; RWIGS  =    1.503    wigner-seitz radius (au A)                               
   ENMAX  =  249.844; ENMIN  =  187.383 eV                                                          
   ICORE  =        3    local potential                                                             
   LCOR   =        T    correct aug charges                                                         
   LPAW   =        T    paw PP                                                                      
   EAUG   =  412.496                                                                                
   DEXC   =    0.000                                                                                
   RMAX   =    2.560    core radius for proj-oper                                                   
   RAUG   =    1.300    factor for augmentation sphere                                              
   RDEP   =    2.576    radius for radial grids                                                     
   RDEPT  =    2.072    core radius for aug-charge                                                  
                                                                                                    
   Atomic configuration                                                                             
   12 entries                                                                                       
     n  l   j            E        occ.                                                              
     1  0  0.50    -25324.9161   2.0000                                                             
     2  0  0.50     -3728.5341   2.0000                                                             
     2  1  1.50     -3344.0404   6.0000                                                             
     3  0  0.50      -683.5581   2.0000                                                             
     3  1  1.50      -557.3225   6.0000                                                             
     3  2  2.50      -358.3853  10.0000                                                             
     4  0  0.50       -95.0341   2.0000                                                             
     4  1  1.50       -58.5511   6.0000                                                             
     4  2  2.50        -7.4440  10.0000                                                             
     5  0  0.50        -4.4045   1.0000                                                             
     5  1  0.50        -1.3606   0.0000                                                             
     4  3  2.50        -1.3606   0.0000                                                             
   Description                                                                                      
     l       E           TYP  RCUT    TYP  RCUT                                                     
     2     -7.4439781     23  2.400                                                                 
     2     -8.8045607     23  2.400                                                                 
     0     -4.4044681     23  2.400                                                                 
     0      1.9520038     23  2.400                                                                 
     1     -1.3605826     23  2.500                                                                 
     1     27.2116520     23  2.500                                                                 
     3     -4.0817478     23  2.400                                                                 
  local pseudopotential read in
  partial core-charges read in
  partial kinetic energy density read in
  atomic valenz-charges read in
  non local Contribution for L=           2  read in
    real space projection operators read in
  non local Contribution for L=           2  read in
    real space projection operators read in
  non local Contribution for L=           0  read in
    real space projection operators read in
  non local Contribution for L=           0  read in
    real space projection operators read in
  non local Contribution for L=           1  read in
    real space projection operators read in
  non local Contribution for L=           1  read in
    real space projection operators read in
    PAW grid and wavefunctions read in

   number of l-projection  operators is LMAX  =           6
   number of lm-projection operators is LMMAX =          18

 POTCAR:    PAW_PBE Mg_pv 13Apr2007               
   SHA256 =  f474ac0dd33840b9ae76c01d57fea79fdf77cdfbb07d5ade72c65f83c709b62b Mg_pv/POTCAR          
   COPYR  = (c) Copyright 13Apr2007 Georg Kresse                                                    
   COPYR  = This file is part of the software VASP. Any use, copying, and all other rights are regul
   COPYR  = If you do not have a valid VASP license, you may not use, copy or distribute this file. 
   VRHFIN =Mg: p6s2                                                                                 
   LEXCH  = PE                                                                                      
   EATOM  =  1056.7344 eV,   77.6678 Ry                                                             
                                                                                                    
   TITEL  = PAW_PBE Mg_pv 13Apr2007                                                                 
   LULTRA =        F    use ultrasoft PP ?                                                          
   IUNSCR =        1    unscreen: 0-lin 1-nonlin 2-no                                               
   RPACOR =    1.500    partial core radius                                                         
   POMASS =   24.305; ZVAL   =    8.000    mass and valenz                                          
   RCORE  =    2.000    outmost cutoff radius                                                       
   RWIGS  =    2.000; RWIGS  =    1.058    wigner-seitz radius (au A)                               
   ENMAX  =  403.929; ENMIN  =  302.947 eV                                                          
   RCLOC  =    1.506    cutoff for local pot                                                        
   LCOR   =        T    correct aug charges                                                         
   LPAW   =        T    paw PP                                                                      
   EAUG   =  758.780                                                                                
   DEXC   =    0.000                                                                                
   RMAX   =    2.045    core radius for proj-oper                                                   
   RAUG   =    1.300    factor for augmentation sphere                                              
   RDEP   =    2.025    radius for radial grids                                                     
   RDEPT  =    1.557    core radius for aug-charge                                                  
                                                                                                    
   Atomic configuration                                                                             
    5 entries                                                                                       
     n  l   j            E        occ.                                                              
     1  0  0.50     -1259.6230   2.0000                                                             
     2  0  0.50       -79.8442   2.0000                                                             
     2  1  1.50       -46.6121   6.0000                                                             
     3  0  0.50        -4.7055   2.0000                                                             
     3  2  1.50        -1.3606   0.0000                                                             
   Description                                                                                      
     l       E           TYP  RCUT    TYP  RCUT                                                     
     1    -46.6121073     23  1.600                                                                 
     1      2.7211652     23  1.600                                                                 
     0     -4.7054661     23  2.000                                                                 
     0     61.2262170     23  2.000                                                                 
     2     -1.3605826     23  2.000                                                                 
  local pseudopotential read in
  partial core-charges read in
  partial kinetic energy density read in
  atomic valenz-charges read in
  non local Contribution for L=           1  read in
    real space projection operators read in
  non local Contribution for L=           1  read in
    real space projection operators read in
  non local Contribution for L=           0  read in
    real space projection operators read in
  non local Contribution for L=           0  read in
    real space projection operators read in
  non local Contribution for L=           2  read in
    real space projection operators read in
    PAW grid and wavefunctions read in

   number of l-projection  operators is LMAX  =           5
   number of lm-projection operators is LMMAX =          13

 POTCAR:    PAW_PBE O 08Apr2002                   
   SHA256 =  818f92134a0a090dccd8ba1447fa70422a3b330e708bb4f08108d8ae51209ddf O/POTCAR              
   COPYR  = (c) Copyright 08Apr2002 Georg Kresse                                                    
   COPYR  = This file is part of the software VASP. Any use, copying, and all other rights are regul
   COPYR  = If you do not have a valid VASP license, you may not use, copy or distribute this file. 
   VRHFIN =O: s2p4                                                                                  
   LEXCH  = PE                                                                                      
   EATOM  =   432.3788 eV,   31.7789 Ry                                                             
                                                                                                    
   TITEL  = PAW_PBE O 08Apr2002                                                                     
   LULTRA =        F    use ultrasoft PP ?                                                          
   IUNSCR =        1    unscreen: 0-lin 1-nonlin 2-no                                               
   RPACOR =    1.200    partial core radius                                                         
   POMASS =   16.000; ZVAL   =    6.000    mass and valenz                                          
   RCORE  =    1.520    outmost cutoff radius                                                       
   RWIGS  =    1.550; RWIGS  =    0.820    wigner-seitz radius (au A)                               
   ENMAX  =  400.000; ENMIN  =  300.000 eV                                                          
   ICORE  =        2    local potential                                                             
   LCOR   =        T    correct aug charges                                                         
   LPAW   =        T    paw PP                                                                      
   EAUG   =  605.392                                                                                
   DEXC   =    0.000                                                                                
   RMAX   =    1.553    core radius for proj-oper                                                   
   RAUG   =    1.300    factor for augmentation sphere                                              
   RDEP   =    1.550    radius for radial grids                                                     
   RDEPT  =    1.329    core radius for aug-charge                                                  
                                                                                                    
   Atomic configuration                                                                             
    4 entries                                                                                       
     n  l   j            E        occ.                                                              
     1  0  0.50      -514.6923   2.0000                                                             
     2  0  0.50       -23.9615   2.0000                                                             
     2  1  0.50        -9.0305   4.0000                                                             
     3  2  1.50        -9.5241   0.0000                                                             
   Description                                                                                      
     l       E           TYP  RCUT    TYP  RCUT                                                     
     0    -23.9615318     23  1.200                                                                 
     0     -9.5240782     23  1.200                                                                 
     1     -9.0304911     23  1.520                                                                 
     1      8.1634956     23  1.520                                                                 
     2     -9.5240782      7  1.500                                                                 
  local pseudopotential read in
  partial core-charges read in
  partial kinetic energy density read in
  kinetic energy density of atom read in
  atomic valenz-charges read in
  non local Contribution for L=           0  read in
    real space projection operators read in
  non local Contribution for L=           0  read in
    real space projection operators read in
  non local Contribution for L=           1  read in
    real space projection operators read in
  non local Contribution for L=           1  read in
    real space projection operators read in
    PAW grid and wavefunctions read in

   number of l-projection  operators is LMAX  =           4
   number of lm-projection operators is LMMAX =           8

 Optimization of the real space projectors (new method)

 maximal supplied QI-value         = 15.12
 optimisation between [QCUT,QGAM] = [ 11.64, 23.28] = [ 37.95,151.78] Ry 
 Optimized for a Real-space Cutoff    1.45 Angstroem

   l    n(q)    QCUT    max X(q) W(low)/X(q) W(high)/X(q)  e(spline) 
   2      9    11.641    53.897    0.22E-03    0.42E-04    0.28E-06
   2      9    11.641    52.416    0.23E-03    0.44E-04    0.29E-06
   0     10    11.641   122.045    0.51E-04    0.25E-04    0.16E-06
   0     10    11.641    73.629    0.49E-04    0.24E-04    0.16E-06
   1     10    11.641    15.255    0.99E-04    0.55E-04    0.11E-06
   1     10    11.641     9.562    0.81E-04    0.47E-04    0.95E-07
 Optimization of the real space projectors (new method)

 maximal supplied QI-value         = 18.90
 optimisation between [QCUT,QGAM] = [ 11.53, 23.24] = [ 37.21,151.29] Ry 
 Optimized for a Real-space Cutoff    1.28 Angstroem

   l    n(q)    QCUT    max X(q) W(low)/X(q) W(high)/X(q)  e(spline) 
   1      8    11.527     2.974    0.44E-04    0.56E-04    0.12E-06
   1      8    11.527     4.279    0.12E-03    0.12E-03    0.26E-06
   0      9    11.527    16.381    0.46E-04    0.64E-04    0.78E-07
   0      9    11.527     5.611    0.26E-04    0.43E-04    0.55E-07
   2      8    11.527     4.652    0.22E-03    0.72E-04    0.47E-07
 Optimization of the real space projectors (new method)

 maximal supplied QI-value         = 24.76
 optimisation between [QCUT,QGAM] = [ 11.64, 23.27] = [ 37.91,151.63] Ry 
 Optimized for a Real-space Cutoff    1.14 Angstroem

   l    n(q)    QCUT    max X(q) W(low)/X(q) W(high)/X(q)  e(spline) 
   0      8    11.635    20.381    0.10E-03    0.33E-03    0.24E-06
   0      8    11.635    15.268    0.11E-03    0.35E-03    0.26E-06
   1      7    11.635     5.964    0.24E-03    0.31E-03    0.30E-06
   1      7    11.635     5.382    0.22E-03    0.25E-03    0.26E-06
 -----------------------------------------------------------------------------
|                                                                             |
|               ----> ADVICE to this user running VASP <----                  |
|                                                                             |
|     You enforced a specific xc type in the INCAR file but a different       |
|     type was found in the POTCAR file.                                      |
|     I HOPE YOU KNOW WHAT YOU ARE DOING!                                     |
|                                                                             |
 -----------------------------------------------------------------------------

  PAW_PBE Ag 02Apr2005                  :
 energy of atom  1       EATOM=-1037.2675
 kinetic energy error for atom=    0.0047 (will be added to EATOM!!)
  PAW_PBE Mg_pv 13Apr2007               :
 energy of atom  2       EATOM=-1056.7344
 kinetic energy error for atom=    0.0340 (will be added to EATOM!!)
  PAW_PBE O 08Apr2002                   :
 energy of atom  3       EATOM= -432.3788
 kinetic energy error for atom=    0.0208 (will be added to EATOM!!)


 POSCAR: Ag Mg  O
  positions in direct lattice
  velocities in cartesian coordinates
 exchange correlation table for  LEXCH =       44
   RHO(1)=    0.500       N(1)  =     2000
   RHO(2)=  100.500       N(2)  =     4000



--------------------------------------------------------------------------------------------------------


 ion  position               nearest neighbor table
   1  0.400  0.429  0.610- 153 2.46   2 2.60  55 2.82   4 3.42
   2  0.400  0.512  0.697-   1 2.60   4 2.64   3 2.77
   3  0.401  0.641  0.713-   4 2.63   2 2.77
   4  0.400  0.590  0.604- 157 2.26   3 2.63   2 2.64  55 2.95   1 3.42
   5  0.000  0.000  0.407- 107 2.11 108 2.11 123 2.11 188 2.11 105 2.11
   6  0.100  0.100  0.407- 107 2.11 108 2.11 112 2.11 127 2.11 106 2.11
   7  0.000  0.100  0.503- 105 2.11 106 2.11 109 2.11 186 2.11 107 2.11
   8  0.100  0.000  0.503- 105 2.11 106 2.11 122 2.11 125 2.11 108 2.11
   9  0.000  0.200  0.407- 111 2.11 107 2.11 112 2.11 192 2.11 109 2.11
  10  0.100  0.300  0.407- 112 2.11 111 2.11 116 2.11 131 2.11 110 2.11
  11  0.000  0.300  0.503- 109 2.11 110 2.11 113 2.11 190 2.11 111 2.11
  12  0.100  0.200  0.503- 110 2.11 109 2.11 106 2.11 129 2.11 112 2.11
  13  0.000  0.400  0.407- 111 2.11 115 2.11 116 2.11 196 2.11 113 2.11
  14  0.100  0.500  0.407- 115 2.11 116 2.11 120 2.11 135 2.11 114 2.11
  15  0.000  0.500  0.503- 113 2.11 114 2.11 117 2.11 194 2.11 115 2.11
  16  0.100  0.400  0.503- 110 2.11 113 2.11 114 2.11 133 2.11 116 2.11
  17  0.000  0.600  0.407- 115 2.11 119 2.11 120 2.11 200 2.11 117 2.11
  18  0.100  0.700  0.407- 124 2.11 120 2.11 119 2.11 139 2.11 118 2.11
  19  0.000  0.700  0.503- 121 2.11 118 2.11 117 2.11 198 2.11 119 2.11
  20  0.100  0.600  0.503- 114 2.11 117 2.11 118 2.11 137 2.11 120 2.11
  21  0.000  0.800  0.407- 119 2.11 123 2.11 124 2.11 204 2.11 121 2.11
  22  0.100  0.900  0.407- 108 2.11 123 2.11 124 2.11 143 2.11 122 2.11
  23  0.000  0.900  0.503- 105 2.11 121 2.11 122 2.11 202 2.11 123 2.11
  24  0.100  0.800  0.503- 118 2.11 121 2.11 122 2.11 141 2.11 124 2.11
  25  0.200  0.000  0.407- 128 2.11 127 2.11 108 2.11 143 2.11 125 2.11
  26  0.300  0.100  0.407- 127 2.11 128 2.11 132 2.11 147 2.11 126 2.11
  27  0.200  0.100  0.503- 126 2.11 125 2.11 106 2.11 129 2.11 127 2.11
  28  0.300  0.000  0.503- 125 2.11 126 2.11 142 2.11 145 2.11 128 2.11
  29  0.200  0.200  0.407- 131 2.11 132 2.11 112 2.11 127 2.11 129 2.11
  30  0.300  0.300  0.407- 131 2.11 132 2.11 136 2.11 151 2.11 130 2.11
  31  0.200  0.300  0.503- 129 2.11 130 2.11 110 2.11 133 2.11 131 2.11
  32  0.300  0.200  0.503- 129 2.11 130 2.11 126 2.11 149 2.11 132 2.11
  33  0.200  0.400  0.407- 136 2.11 131 2.11 135 2.11 116 2.11 133 2.11
  34  0.300  0.500  0.407- 135 2.11 136 2.11 140 2.11 155 2.11 134 2.11
  35  0.200  0.500  0.503- 134 2.11 133 2.11 114 2.11 137 2.11 135 2.11
  36  0.300  0.400  0.503- 133 2.11 130 2.11 134 2.11 153 2.11 136 2.11
  37  0.200  0.600  0.407- 140 2.11 135 2.11 139 2.11 120 2.11 137 2.11
  38  0.300  0.700  0.407- 139 2.11 144 2.11 140 2.11 159 2.11 138 2.11
  39  0.200  0.700  0.503- 138 2.11 141 2.11 118 2.11 137 2.11 139 2.11
  40  0.300  0.600  0.503- 137 2.11 134 2.11 138 2.11 157 2.11 140 2.11
  41  0.200  0.800  0.407- 139 2.11 144 2.11 143 2.11 124 2.11 141 2.11
  42  0.300  0.900  0.407- 143 2.11 128 2.11 144 2.11 163 2.11 142 2.11
  43  0.200  0.900  0.503- 142 2.11 125 2.11 141 2.11 122 2.11 143 2.11
  44  0.300  0.800  0.503- 138 2.11 141 2.11 142 2.11 161 2.11 144 2.11
  45  0.400  0.000  0.407- 128 2.11 147 2.11 148 2.11 163 2.11 145 2.11
  46  0.500  0.100  0.407- 147 2.11 148 2.11 152 2.11 167 2.11 146 2.11
  47  0.400  0.100  0.503- 126 2.11 145 2.11 146 2.11 149 2.11 147 2.11
  48  0.500  0.000  0.503- 145 2.11 146 2.11 162 2.11 165 2.11 148 2.11
  49  0.400  0.200  0.407- 151 2.11 147 2.11 132 2.11 152 2.11 149 2.11
  50  0.500  0.300  0.407- 152 2.11 151 2.11 156 2.11 171 2.11 150 2.11
  51  0.400  0.300  0.503- 149 2.11 130 2.11 150 2.11 153 2.11 151 2.11
  52  0.500  0.200  0.503- 150 2.11 149 2.11 146 2.11 169 2.11 152 2.11
  53  0.400  0.400  0.407- 136 2.11 151 2.11 155 2.11 156 2.11 153 2.11
  54  0.500  0.500  0.407- 155 2.11 156 2.11 160 2.11 175 2.11 154 2.11
  55  0.400  0.500  0.503- 134 2.11 153 2.11 154 2.11 157 2.11 155 2.11   1 2.82   4 2.95
  56  0.500  0.400  0.503- 150 2.11 153 2.11 154 2.11 173 2.11 156 2.11
  57  0.400  0.600  0.407- 140 2.11 155 2.11 159 2.11 160 2.11 157 2.11
  58  0.500  0.700  0.407- 164 2.11 160 2.11 159 2.11 179 2.11 158 2.11
  59  0.400  0.700  0.503- 161 2.11 157 2.11 158 2.11 138 2.11 159 2.11
  60  0.500  0.600  0.503- 154 2.11 157 2.11 158 2.11 177 2.11 160 2.11
  61  0.400  0.800  0.407- 159 2.11 144 2.11 163 2.11 164 2.11 161 2.11
  62  0.500  0.900  0.407- 148 2.11 163 2.11 164 2.11 183 2.11 162 2.11
  63  0.400  0.900  0.503- 142 2.11 145 2.11 161 2.11 162 2.11 163 2.11
  64  0.500  0.800  0.503- 158 2.11 161 2.11 162 2.11 181 2.11 164 2.11
  65  0.600  0.000  0.407- 148 2.11 167 2.11 168 2.11 183 2.11 165 2.11
  66  0.700  0.100  0.407- 187 2.11 168 2.11 172 2.11 167 2.11 166 2.11
  67  0.600  0.100  0.503- 146 2.11 165 2.11 166 2.11 169 2.11 167 2.11
  68  0.700  0.000  0.503- 185 2.11 166 2.11 182 2.11 165 2.11 168 2.11
  69  0.600  0.200  0.407- 171 2.11 167 2.11 152 2.11 172 2.11 169 2.11
  70  0.700  0.300  0.407- 172 2.11 191 2.11 176 2.11 171 2.11 170 2.11
  71  0.600  0.300  0.503- 169 2.11 150 2.11 170 2.11 173 2.11 171 2.11
  72  0.700  0.200  0.503- 170 2.11 189 2.11 166 2.11 169 2.11 172 2.11
  73  0.600  0.400  0.407- 156 2.11 171 2.11 175 2.11 176 2.11 173 2.11
  74  0.700  0.500  0.407- 195 2.11 176 2.11 180 2.11 175 2.11 174 2.11
  75  0.600  0.500  0.503- 154 2.11 173 2.11 174 2.11 177 2.11 175 2.11
  76  0.700  0.400  0.503- 193 2.11 173 2.11 174 2.11 170 2.11 176 2.11
  77  0.600  0.600  0.407- 160 2.11 175 2.11 179 2.11 180 2.11 177 2.11
  78  0.700  0.700  0.407- 184 2.11 199 2.11 179 2.11 180 2.11 178 2.11
  79  0.600  0.700  0.503- 181 2.11 177 2.11 178 2.11 158 2.11 179 2.11
  80  0.700  0.600  0.503- 197 2.11 177 2.11 178 2.11 174 2.11 180 2.11
  81  0.600  0.800  0.407- 179 2.11 164 2.11 183 2.11 184 2.11 181 2.11
  82  0.700  0.900  0.407- 203 2.11 183 2.11 184 2.11 168 2.11 182 2.11
  83  0.600  0.900  0.503- 162 2.11 165 2.11 181 2.11 182 2.11 183 2.11
  84  0.700  0.800  0.503- 178 2.11 201 2.11 182 2.11 181 2.11 184 2.11
  85  0.800  0.000  0.407- 168 2.11 187 2.11 188 2.11 203 2.11 185 2.11
  86  0.900  0.100  0.407- 107 2.11 187 2.11 188 2.11 192 2.11 186 2.11
  87  0.800  0.100  0.503- 166 2.11 185 2.11 186 2.11 189 2.11 187 2.11
  88  0.900  0.000  0.503- 105 2.11 185 2.11 186 2.11 202 2.11 188 2.11
  89  0.800  0.200  0.407- 172 2.11 191 2.11 187 2.11 192 2.11 189 2.11
  90  0.900  0.300  0.407- 192 2.11 191 2.11 111 2.11 196 2.11 190 2.11
  91  0.800  0.300  0.503- 170 2.11 189 2.11 190 2.11 193 2.11 191 2.11
  92  0.900  0.200  0.503- 190 2.11 186 2.11 189 2.11 109 2.11 192 2.11
  93  0.800  0.400  0.407- 176 2.11 191 2.11 195 2.11 196 2.11 193 2.11
  94  0.900  0.500  0.407- 115 2.11 195 2.11 196 2.11 200 2.11 194 2.11
  95  0.800  0.500  0.503- 174 2.11 193 2.11 194 2.11 197 2.11 195 2.11
  96  0.900  0.400  0.503- 113 2.11 190 2.11 193 2.11 194 2.11 196 2.11
  97  0.800  0.600  0.407- 180 2.11 195 2.11 199 2.11 200 2.11 197 2.11
  98  0.900  0.700  0.407- 204 2.11 199 2.11 200 2.11 119 2.11 198 2.11
  99  0.800  0.700  0.503- 178 2.11 201 2.11 198 2.11 197 2.11 199 2.11
 100  0.900  0.600  0.503- 117 2.11 194 2.11 197 2.11 198 2.11 200 2.11
 101  0.800  0.800  0.407- 184 2.11 199 2.11 203 2.11 204 2.11 201 2.11
 102  0.900  0.900  0.407- 123 2.11 188 2.11 203 2.11 204 2.11 202 2.11
 103  0.800  0.900  0.503- 182 2.11 185 2.11 201 2.11 202 2.11 203 2.11
 104  0.900  0.800  0.503- 198 2.11 121 2.11 201 2.11 202 2.11 204 2.11
 105  0.000  0.000  0.503-   7 2.11   8 2.11  23 2.11  88 2.11   5 2.11
 106  0.100  0.100  0.503-   7 2.11   8 2.11  12 2.11  27 2.11   6 2.11
 107  0.000  0.100  0.407-   5 2.11   6 2.11   9 2.11  86 2.11   7 2.11
 108  0.100  0.000  0.407-   5 2.11   6 2.11  22 2.11  25 2.11   8 2.11
 109  0.000  0.200  0.503-  11 2.11   7 2.11  12 2.11  92 2.11   9 2.11
 110  0.100  0.300  0.503-  12 2.11  11 2.11  16 2.11  31 2.11  10 2.11
 111  0.000  0.300  0.407-   9 2.11  10 2.11  13 2.11  90 2.11  11 2.11
 112  0.100  0.200  0.407-  10 2.11   9 2.11   6 2.11  29 2.11  12 2.11
 113  0.000  0.400  0.503-  11 2.11  15 2.11  16 2.11  96 2.11  13 2.11
 114  0.100  0.500  0.503-  15 2.11  16 2.11  20 2.11  35 2.11  14 2.11
 115  0.000  0.500  0.407-  13 2.11  14 2.11  17 2.11  94 2.11  15 2.11
 116  0.100  0.400  0.407-  10 2.11  13 2.11  14 2.11  33 2.11  16 2.11
 117  0.000  0.600  0.503-  15 2.11  19 2.11  20 2.11 100 2.11  17 2.11
 118  0.100  0.700  0.503-  24 2.11  20 2.11  19 2.11  39 2.11  18 2.11
 119  0.000  0.700  0.407-  21 2.11  18 2.11  17 2.11  98 2.11  19 2.11
 120  0.100  0.600  0.407-  14 2.11  17 2.11  18 2.11  37 2.11  20 2.11
 121  0.000  0.800  0.503-  19 2.11  23 2.11  24 2.11 104 2.11  21 2.11
 122  0.100  0.900  0.503-   8 2.11  23 2.11  24 2.11  43 2.11  22 2.11
 123  0.000  0.900  0.407-   5 2.11  21 2.11  22 2.11 102 2.11  23 2.11
 124  0.100  0.800  0.407-  18 2.11  21 2.11  22 2.11  41 2.11  24 2.11
 125  0.200  0.000  0.503-  28 2.11  27 2.11   8 2.11  43 2.11  25 2.11
 126  0.300  0.100  0.503-  27 2.11  28 2.11  32 2.11  47 2.11  26 2.11
 127  0.200  0.100  0.407-  26 2.11  25 2.11   6 2.11  29 2.11  27 2.11
 128  0.300  0.000  0.407-  25 2.11  26 2.11  42 2.11  45 2.11  28 2.11
 129  0.200  0.200  0.503-  31 2.11  32 2.11  12 2.11  27 2.11  29 2.11
 130  0.300  0.300  0.503-  31 2.11  32 2.11  36 2.11  51 2.11  30 2.11
 131  0.200  0.300  0.407-  29 2.11  30 2.11  10 2.11  33 2.11  31 2.11
 132  0.300  0.200  0.407-  29 2.11  30 2.11  26 2.11  49 2.11  32 2.11
 133  0.200  0.400  0.503-  36 2.11  31 2.11  35 2.11  16 2.11  33 2.11
 134  0.300  0.500  0.503-  35 2.11  36 2.11  40 2.11  55 2.11  34 2.11
 135  0.200  0.500  0.407-  34 2.11  33 2.11  14 2.11  37 2.11  35 2.11
 136  0.300  0.400  0.407-  33 2.11  30 2.11  34 2.11  53 2.11  36 2.11
 137  0.200  0.600  0.503-  40 2.11  35 2.11  39 2.11  20 2.11  37 2.11
 138  0.300  0.700  0.503-  39 2.11  44 2.11  40 2.11  59 2.11  38 2.11
 139  0.200  0.700  0.407-  38 2.11  41 2.11  18 2.11  37 2.11  39 2.11
 140  0.300  0.600  0.407-  37 2.11  34 2.11  38 2.11  57 2.11  40 2.11
 141  0.200  0.800  0.503-  39 2.11  44 2.11  43 2.11  24 2.11  41 2.11
 142  0.300  0.900  0.503-  43 2.11  28 2.11  44 2.11  63 2.11  42 2.11
 143  0.200  0.900  0.407-  42 2.11  25 2.11  41 2.11  22 2.11  43 2.11
 144  0.300  0.800  0.407-  38 2.11  41 2.11  42 2.11  61 2.11  44 2.11
 145  0.400  0.000  0.503-  28 2.11  47 2.11  48 2.11  63 2.11  45 2.11
 146  0.500  0.100  0.503-  47 2.11  48 2.11  52 2.11  67 2.11  46 2.11
 147  0.400  0.100  0.407-  26 2.11  45 2.11  46 2.11  49 2.11  47 2.11
 148  0.500  0.000  0.407-  45 2.11  46 2.11  62 2.11  65 2.11  48 2.11
 149  0.400  0.200  0.503-  51 2.11  47 2.11  32 2.11  52 2.11  49 2.11
 150  0.500  0.300  0.503-  52 2.11  51 2.11  56 2.11  71 2.11  50 2.11
 151  0.400  0.300  0.407-  49 2.11  30 2.11  50 2.11  53 2.11  51 2.11
 152  0.500  0.200  0.407-  50 2.11  49 2.11  46 2.11  69 2.11  52 2.11
 153  0.400  0.400  0.503-  36 2.11  51 2.11  55 2.11  56 2.11  53 2.11   1 2.46
 154  0.500  0.500  0.503-  55 2.11  56 2.11  60 2.11  75 2.11  54 2.11
 155  0.400  0.500  0.407-  34 2.11  53 2.11  54 2.11  57 2.11  55 2.11
 156  0.500  0.400  0.407-  50 2.11  53 2.11  54 2.11  73 2.11  56 2.11
 157  0.400  0.600  0.503-  40 2.11  55 2.11  59 2.11  60 2.11  57 2.11   4 2.26
 158  0.500  0.700  0.503-  64 2.11  60 2.11  59 2.11  79 2.11  58 2.11
 159  0.400  0.700  0.407-  61 2.11  57 2.11  58 2.11  38 2.11  59 2.11
 160  0.500  0.600  0.407-  54 2.11  57 2.11  58 2.11  77 2.11  60 2.11
 161  0.400  0.800  0.503-  59 2.11  44 2.11  63 2.11  64 2.11  61 2.11
 162  0.500  0.900  0.503-  48 2.11  63 2.11  64 2.11  83 2.11  62 2.11
 163  0.400  0.900  0.407-  42 2.11  45 2.11  61 2.11  62 2.11  63 2.11
 164  0.500  0.800  0.407-  58 2.11  61 2.11  62 2.11  81 2.11  64 2.11
 165  0.600  0.000  0.503-  48 2.11  67 2.11  68 2.11  83 2.11  65 2.11
 166  0.700  0.100  0.503-  87 2.11  68 2.11  72 2.11  67 2.11  66 2.11
 167  0.600  0.100  0.407-  46 2.11  65 2.11  66 2.11  69 2.11  67 2.11
 168  0.700  0.000  0.407-  85 2.11  66 2.11  82 2.11  65 2.11  68 2.11
 169  0.600  0.200  0.503-  71 2.11  67 2.11  52 2.11  72 2.11  69 2.11
 170  0.700  0.300  0.503-  72 2.11  91 2.11  76 2.11  71 2.11  70 2.11
 171  0.600  0.300  0.407-  69 2.11  50 2.11  70 2.11  73 2.11  71 2.11
 172  0.700  0.200  0.407-  70 2.11  89 2.11  66 2.11  69 2.11  72 2.11
 173  0.600  0.400  0.503-  56 2.11  71 2.11  75 2.11  76 2.11  73 2.11
 174  0.700  0.500  0.503-  95 2.11  76 2.11  80 2.11  75 2.11  74 2.11
 175  0.600  0.500  0.407-  54 2.11  73 2.11  74 2.11  77 2.11  75 2.11
 176  0.700  0.400  0.407-  93 2.11  73 2.11  74 2.11  70 2.11  76 2.11
 177  0.600  0.600  0.503-  60 2.11  75 2.11  79 2.11  80 2.11  77 2.11
 178  0.700  0.700  0.503-  84 2.11  99 2.11  79 2.11  80 2.11  78 2.11
 179  0.600  0.700  0.407-  81 2.11  77 2.11  78 2.11  58 2.11  79 2.11
 180  0.700  0.600  0.407-  97 2.11  77 2.11  78 2.11  74 2.11  80 2.11
 181  0.600  0.800  0.503-  79 2.11  64 2.11  83 2.11  84 2.11  81 2.11
 182  0.700  0.900  0.503- 103 2.11  83 2.11  84 2.11  68 2.11  82 2.11
 183  0.600  0.900  0.407-  62 2.11  65 2.11  81 2.11  82 2.11  83 2.11
 184  0.700  0.800  0.407-  78 2.11 101 2.11  82 2.11  81 2.11  84 2.11
 185  0.800  0.000  0.503-  68 2.11  87 2.11  88 2.11 103 2.11  85 2.11
 186  0.900  0.100  0.503-   7 2.11  87 2.11  88 2.11  92 2.11  86 2.11
 187  0.800  0.100  0.407-  66 2.11  85 2.11  86 2.11  89 2.11  87 2.11
 188  0.900  0.000  0.407-   5 2.11  85 2.11  86 2.11 102 2.11  88 2.11
 189  0.800  0.200  0.503-  72 2.11  91 2.11  87 2.11  92 2.11  89 2.11
 190  0.900  0.300  0.503-  92 2.11  91 2.11  11 2.11  96 2.11  90 2.11
 191  0.800  0.300  0.407-  70 2.11  89 2.11  90 2.11  93 2.11  91 2.11
 192  0.900  0.200  0.407-  90 2.11  86 2.11  89 2.11   9 2.11  92 2.11
 193  0.800  0.400  0.503-  76 2.11  91 2.11  95 2.11  96 2.11  93 2.11
 194  0.900  0.500  0.503-  15 2.11  95 2.11  96 2.11 100 2.11  94 2.11
 195  0.800  0.500  0.407-  74 2.11  93 2.11  94 2.11  97 2.11  95 2.11
 196  0.900  0.400  0.407-  13 2.11  90 2.11  93 2.11  94 2.11  96 2.11
 197  0.800  0.600  0.503-  80 2.11  95 2.11  99 2.11 100 2.11  97 2.11
 198  0.900  0.700  0.503- 104 2.11  99 2.11 100 2.11  19 2.11  98 2.11
 199  0.800  0.700  0.407-  78 2.11 101 2.11  98 2.11  97 2.11  99 2.11
 200  0.900  0.600  0.407-  17 2.11  94 2.11  97 2.11  98 2.11 100 2.11
 201  0.800  0.800  0.503-  84 2.11  99 2.11 103 2.11 104 2.11 101 2.11
 202  0.900  0.900  0.503-  23 2.11  88 2.11 103 2.11 104 2.11 102 2.11
 203  0.800  0.900  0.407-  82 2.11  85 2.11 101 2.11 102 2.11 103 2.11
 204  0.900  0.800  0.407-  98 2.11  21 2.11 101 2.11 102 2.11 104 2.11

  LATTYP: Found a simple tetragonal cell.
 ALAT       =    21.1388521970
 C/A-ratio  =     1.0461251639
  
  Lattice vectors:
  
 A1 = (  21.1388521970,   0.0000000000,   0.0000000000)
 A2 = (   0.0000000000,  21.1388521970,   0.0000000000)
 A3 = (   0.0000000000,   0.0000000000,  22.1138852197)


Analysis of symmetry for initial positions (statically):
=====================================================================
 Subroutine PRICEL returns:
 Original cell was already a primitive cell.
 

 Routine SETGRP: Setting up the symmetry group for a 
 simple tetragonal supercell.


 Subroutine GETGRP returns: Found  1 space group operations
 (whereof  1 operations were pure point group operations)
 out of a pool of 16 trial point group operations.


The static configuration has the point symmetry C_1 .


Analysis of symmetry for dynamics (positions and initial velocities):
=====================================================================
 Subroutine PRICEL returns:
 Original cell was already a primitive cell.
 

 Routine SETGRP: Setting up the symmetry group for a 
 simple tetragonal supercell.


 Subroutine GETGRP returns: Found  1 space group operations
 (whereof  1 operations were pure point group operations)
 out of a pool of 16 trial point group operations.


The dynamic configuration has the point symmetry C_1 .


Analysis of constrained symmetry for selective dynamics:
=====================================================================
 Subroutine PRICEL returns:
 Original cell was already a primitive cell.
 

 Routine SETGRP: Setting up the symmetry group for a 
 simple tetragonal supercell.


 Subroutine GETGRP returns: Found  1 space group operations
 (whereof  1 operations were pure point group operations)
 out of a pool of 16 trial point group operations.


The constrained configuration has the point symmetry C_1 .


 Subroutine INISYM returns: Found  1 space group operations
 (whereof  1 operations are pure point group operations),
 and found     1 'primitive' translations


----------------------------------------------------------------------------------------

                                     Primitive cell                                     

  volume of cell :    9881.6133

  direct lattice vectors                    reciprocal lattice vectors
    21.138852197  0.000000000  0.000000000     0.047306258  0.000000000  0.000000000
     0.000000000 21.138852197  0.000000000     0.000000000  0.047306258  0.000000000
     0.000000000  0.000000000 22.113885220     0.000000000  0.000000000  0.045220457

  length of vectors
    21.138852197 21.138852197 22.113885220     0.047306258  0.047306258  0.045220457

  position of ions in fractional coordinates (direct lattice)
     0.400075541  0.428539559  0.610367047
     0.400239325  0.511504721  0.697317580
     0.400574317  0.641329452  0.712924298
     0.400203530  0.589975707  0.604409927
     0.000000000  0.000000000  0.406984115
     0.100000000  0.100000000  0.406984115
     0.000000000  0.100000000  0.502574971
     0.100000000  0.000000000  0.502574971
     0.000000000  0.200000000  0.406984115
     0.100000000  0.300000000  0.406984115
     0.000000000  0.300000000  0.502574971
     0.100000000  0.200000000  0.502574971
     0.000000000  0.400000000  0.406984115
     0.100000000  0.500000000  0.406984115
     0.000000000  0.500000000  0.502574971
     0.100000000  0.400000000  0.502574971
     0.000000000  0.600000000  0.406984115
     0.100000000  0.700000000  0.406984115
     0.000000000  0.700000000  0.502574971
     0.100000000  0.600000000  0.502574971
     0.000000000  0.800000000  0.406984115
     0.100000000  0.900000000  0.406984115
     0.000000000  0.900000000  0.502574971
     0.100000000  0.800000000  0.502574971
     0.200000000  0.000000000  0.406984115
     0.300000000  0.100000000  0.406984115
     0.200000000  0.100000000  0.502574971
     0.300000000  0.000000000  0.502574971
     0.200000000  0.200000000  0.406984115
     0.300000000  0.300000000  0.406984115
     0.200000000  0.300000000  0.502574971
     0.300000000  0.200000000  0.502574971
     0.200000000  0.400000000  0.406984115
     0.300000000  0.500000000  0.406984115
     0.200000000  0.500000000  0.502574971
     0.300000000  0.400000000  0.502574971
     0.200000000  0.600000000  0.406984115
     0.300000000  0.700000000  0.406984115
     0.200000000  0.700000000  0.502574971
     0.300000000  0.600000000  0.502574971
     0.200000000  0.800000000  0.406984115
     0.300000000  0.900000000  0.406984115
     0.200000000  0.900000000  0.502574971
     0.300000000  0.800000000  0.502574971
     0.400000000  0.000000000  0.406984115
     0.500000000  0.100000000  0.406984115
     0.400000000  0.100000000  0.502574971
     0.500000000  0.000000000  0.502574971
     0.400000000  0.200000000  0.406984115
     0.500000000  0.300000000  0.406984115
     0.400000000  0.300000000  0.502574971
     0.500000000  0.200000000  0.502574971
     0.400000000  0.400000000  0.406984115
     0.500000000  0.500000000  0.406984115
     0.400000000  0.500000000  0.502574971
     0.500000000  0.400000000  0.502574971
     0.400000000  0.600000000  0.406984115
     0.500000000  0.700000000  0.406984115
     0.400000000  0.700000000  0.502574971
     0.500000000  0.600000000  0.502574971
     0.400000000  0.800000000  0.406984115
     0.500000000  0.900000000  0.406984115
     0.400000000  0.900000000  0.502574971
     0.500000000  0.800000000  0.502574971
     0.600000000  0.000000000  0.406984115
     0.700000000  0.100000000  0.406984115
     0.600000000  0.100000000  0.502574971
     0.700000000  0.000000000  0.502574971
     0.600000000  0.200000000  0.406984115
     0.700000000  0.300000000  0.406984115
     0.600000000  0.300000000  0.502574971
     0.700000000  0.200000000  0.502574971
     0.600000000  0.400000000  0.406984115
     0.700000000  0.500000000  0.406984115
     0.600000000  0.500000000  0.502574971
     0.700000000  0.400000000  0.502574971
     0.600000000  0.600000000  0.406984115
     0.700000000  0.700000000  0.406984115
     0.600000000  0.700000000  0.502574971
     0.700000000  0.600000000  0.502574971
     0.600000000  0.800000000  0.406984115
     0.700000000  0.900000000  0.406984115
     0.600000000  0.900000000  0.502574971
     0.700000000  0.800000000  0.502574971
     0.800000000  0.000000000  0.406984115
     0.900000000  0.100000000  0.406984115
     0.800000000  0.100000000  0.502574971
     0.900000000  0.000000000  0.502574971
     0.800000000  0.200000000  0.406984115
     0.900000000  0.300000000  0.406984115
     0.800000000  0.300000000  0.502574971
     0.900000000  0.200000000  0.502574971
     0.800000000  0.400000000  0.406984115
     0.900000000  0.500000000  0.406984115
     0.800000000  0.500000000  0.502574971
     0.900000000  0.400000000  0.502574971
     0.800000000  0.600000000  0.406984115
     0.900000000  0.700000000  0.406984115
     0.800000000  0.700000000  0.502574971
     0.900000000  0.600000000  0.502574971
     0.800000000  0.800000000  0.406984115
     0.900000000  0.900000000  0.406984115
     0.800000000  0.900000000  0.502574971
     0.900000000  0.800000000  0.502574971
     0.000000000  0.000000000  0.502574971
     0.100000000  0.100000000  0.502574971
     0.000000000  0.100000000  0.406984115
     0.100000000  0.000000000  0.406984115
     0.000000000  0.200000000  0.502574971
     0.100000000  0.300000000  0.502574971
     0.000000000  0.300000000  0.406984115
     0.100000000  0.200000000  0.406984115
     0.000000000  0.400000000  0.502574971
     0.100000000  0.500000000  0.502574971
     0.000000000  0.500000000  0.406984115
     0.100000000  0.400000000  0.406984115
     0.000000000  0.600000000  0.502574971
     0.100000000  0.700000000  0.502574971
     0.000000000  0.700000000  0.406984115
     0.100000000  0.600000000  0.406984115
     0.000000000  0.800000000  0.502574971
     0.100000000  0.900000000  0.502574971
     0.000000000  0.900000000  0.406984115
     0.100000000  0.800000000  0.406984115
     0.200000000  0.000000000  0.502574971
     0.300000000  0.100000000  0.502574971
     0.200000000  0.100000000  0.406984115
     0.300000000  0.000000000  0.406984115
     0.200000000  0.200000000  0.502574971
     0.300000000  0.300000000  0.502574971
     0.200000000  0.300000000  0.406984115
     0.300000000  0.200000000  0.406984115
     0.200000000  0.400000000  0.502574971
     0.300000000  0.500000000  0.502574971
     0.200000000  0.500000000  0.406984115
     0.300000000  0.400000000  0.406984115
     0.200000000  0.600000000  0.502574971
     0.300000000  0.700000000  0.502574971
     0.200000000  0.700000000  0.406984115
     0.300000000  0.600000000  0.406984115
     0.200000000  0.800000000  0.502574971
     0.300000000  0.900000000  0.502574971
     0.200000000  0.900000000  0.406984115
     0.300000000  0.800000000  0.406984115
     0.400000000  0.000000000  0.502574971
     0.500000000  0.100000000  0.502574971
     0.400000000  0.100000000  0.406984115
     0.500000000  0.000000000  0.406984115
     0.400000000  0.200000000  0.502574971
     0.500000000  0.300000000  0.502574971
     0.400000000  0.300000000  0.406984115
     0.500000000  0.200000000  0.406984115
     0.400000000  0.400000000  0.502574971
     0.500000000  0.500000000  0.502574971
     0.400000000  0.500000000  0.406984115
     0.500000000  0.400000000  0.406984115
     0.400000000  0.600000000  0.502574971
     0.500000000  0.700000000  0.502574971
     0.400000000  0.700000000  0.406984115
     0.500000000  0.600000000  0.406984115
     0.400000000  0.800000000  0.502574971
     0.500000000  0.900000000  0.502574971
     0.400000000  0.900000000  0.406984115
     0.500000000  0.800000000  0.406984115
     0.600000000  0.000000000  0.502574971
     0.700000000  0.100000000  0.502574971
     0.600000000  0.100000000  0.406984115
     0.700000000  0.000000000  0.406984115
     0.600000000  0.200000000  0.502574971
     0.700000000  0.300000000  0.502574971
     0.600000000  0.300000000  0.406984115
     0.700000000  0.200000000  0.406984115
     0.600000000  0.400000000  0.502574971
     0.700000000  0.500000000  0.502574971
     0.600000000  0.500000000  0.406984115
     0.700000000  0.400000000  0.406984115
     0.600000000  0.600000000  0.502574971
     0.700000000  0.700000000  0.502574971
     0.600000000  0.700000000  0.406984115
     0.700000000  0.600000000  0.406984115
     0.600000000  0.800000000  0.502574971
     0.700000000  0.900000000  0.502574971
     0.600000000  0.900000000  0.406984115
     0.700000000  0.800000000  0.406984115
     0.800000000  0.000000000  0.502574971
     0.900000000  0.100000000  0.502574971
     0.800000000  0.100000000  0.406984115
     0.900000000  0.000000000  0.406984115
     0.800000000  0.200000000  0.502574971
     0.900000000  0.300000000  0.502574971
     0.800000000  0.300000000  0.406984115
     0.900000000  0.200000000  0.406984115
     0.800000000  0.400000000  0.502574971
     0.900000000  0.500000000  0.502574971
     0.800000000  0.500000000  0.406984115
     0.900000000  0.400000000  0.406984115
     0.800000000  0.600000000  0.502574971
     0.900000000  0.700000000  0.502574971
     0.800000000  0.700000000  0.406984115
     0.900000000  0.600000000  0.406984115
     0.800000000  0.800000000  0.502574971
     0.900000000  0.900000000  0.502574971
     0.800000000  0.900000000  0.406984115
     0.900000000  0.800000000  0.406984115

  ion indices of the primitive-cell ions
   primitive index   ion index
                 1           1
                 2           2
                 3           3
                 4           4
                 5           5
                 6           6
                 7           7
                 8           8
                 9           9
                10          10
                11          11
                12          12
                13          13
                14          14
                15          15
                16          16
                17          17
                18          18
                19          19
                20          20
                21          21
                22          22
                23          23
                24          24
                25          25
                26          26
                27          27
                28          28
                29          29
                30          30
                31          31
                32          32
                33          33
                34          34
                35          35
                36          36
                37          37
                38          38
                39          39
                40          40
                41          41
                42          42
                43          43
                44          44
                45          45
                46          46
                47          47
                48          48
                49          49
                50          50
                51          51
                52          52
                53          53
                54          54
                55          55
                56          56
                57          57
                58          58
                59          59
                60          60
                61          61
                62          62
                63          63
                64          64
                65          65
                66          66
                67          67
                68          68
                69          69
                70          70
                71          71
                72          72
                73          73
                74          74
                75          75
                76          76
                77          77
                78          78
                79          79
                80          80
                81          81
                82          82
                83          83
                84          84
                85          85
                86          86
                87          87
                88          88
                89          89
                90          90
                91          91
                92          92
                93          93
                94          94
                95          95
                96          96
                97          97
                98          98
                99          99
               100         100
               101         101
               102         102
               103         103
               104         104
               105         105
               106         106
               107         107
               108         108
               109         109
               110         110
               111         111
               112         112
               113         113
               114         114
               115         115
               116         116
               117         117
               118         118
               119         119
               120         120
               121         121
               122         122
               123         123
               124         124
               125         125
               126         126
               127         127
               128         128
               129         129
               130         130
               131         131
               132         132
               133         133
               134         134
               135         135
               136         136
               137         137
               138         138
               139         139
               140         140
               141         141
               142         142
               143         143
               144         144
               145         145
               146         146
               147         147
               148         148
               149         149
               150         150
               151         151
               152         152
               153         153
               154         154
               155         155
               156         156
               157         157
               158         158
               159         159
               160         160
               161         161
               162         162
               163         163
               164         164
               165         165
               166         166
               167         167
               168         168
               169         169
               170         170
               171         171
               172         172
               173         173
               174         174
               175         175
               176         176
               177         177
               178         178
               179         179
               180         180
               181         181
               182         182
               183         183
               184         184
               185         185
               186         186
               187         187
               188         188
               189         189
               190         190
               191         191
               192         192
               193         193
               194         194
               195         195
               196         196
               197         197
               198         198
               199         199
               200         200
               201         201
               202         202
               203         203
               204         204

----------------------------------------------------------------------------------------



 KPOINTS: KPOINTS created by Atomic Simulation Env

Automatic generation of k-mesh.
 Grid dimensions read from file:
 generate k-points for:    1    1    1

 Generating k-lattice:

  Cartesian coordinates                     Fractional coordinates (reciprocal lattice)
     0.047306258  0.000000000  0.000000000     1.000000000  0.000000000  0.000000000
     0.000000000  0.047306258  0.000000000     0.000000000  1.000000000  0.000000000
     0.000000000  0.000000000  0.045220457     0.000000000  0.000000000  1.000000000

  Length of vectors
     0.047306258  0.047306258  0.045220457

  Shift w.r.t. Gamma in fractional coordinates (k-lattice)
     0.000000000  0.000000000  0.000000000

 
 Subroutine IBZKPT returns following result:
 ===========================================
 
 Found      1 irreducible k-points:
 
 Following reciprocal coordinates:
            Coordinates               Weight
  0.000000  0.000000  0.000000      1.000000
 
 Following cartesian coordinates:
            Coordinates               Weight
  0.000000  0.000000  0.000000      1.000000
 


--------------------------------------------------------------------------------------------------------




 Dimension of arrays:
   k-points           NKPTS =      1   k-points in BZ     NKDIM =      1   number of bands    NBANDS=    960
   number of dos      NEDOS =    301   number of ions     NIONS =    204
   non local maximal  LDIM  =      6   non local SUM 2l+1 LMDIM =     18
   total plane-waves  NPLWV = ******
   max r-space proj   IRMAX =   5559   max aug-charges    IRDMAX=  21597
   dimension x,y,z NGX =   160 NGY =  160 NGZ =  168
   dimension x,y,z NGXF=   320 NGYF=  320 NGZF=  336
   support grid    NGXF=   320 NGYF=  320 NGZF=  336
   ions per type =               4 100 100
   NGX,Y,Z   is equivalent  to a cutoff of  12.58, 12.58, 12.63 a.u.
   NGXF,Y,Z  is equivalent  to a cutoff of  25.17, 25.17, 25.26 a.u.

 SYSTEM =  MgO-rocksalt                            
 POSCAR =  Ag Mg  O                                

 Startparameter for this run:
   NWRITE =      2    write-flag & timer
   PREC   = accura    normal or accurate (medium, high low for compatibility)
   ISTART =      0    job   : 0-new  1-cont  2-samecut
   ICHARG =      2    charge: 1-file 2-atom 10-const
   ISPIN  =      1    spin polarized calculation?
   LNONCOLLINEAR =      F non collinear calculations
   LSORBIT =      F    spin-orbit coupling
   INIWAV =      1    electr: 0-lowe 1-rand  2-diag
   LASPH  =      T    aspherical Exc in radial PAW
 Electronic Relaxation 1
   ENCUT  =  520.0 eV  38.22 Ry    6.18 a.u.  39.30 39.30 41.12*2*pi/ulx,y,z
   ENINI  =  520.0     initial cutoff
   ENAUG  =  758.8 eV  augmentation charge cutoff
   NELM   =    200;   NELMIN=  8; NELMDL= -5     # of ELM steps 
   EDIFF  = 0.1E-05   stopping-criterion for ELM
   LREAL  =      T    real-space projection
   NLSPLINE    = F    spline interpolate recip. space projectors
   LCOMPAT=      F    compatible to vasp.4.4
   GGA_COMPAT  = T    GGA compatible to vasp.4.4-vasp.4.6
   LMAXPAW     = -100 max onsite density
   LMAXMIX     =    2 max onsite mixed and CHGCAR
   VOSKOWN=      0    Vosko Wilk Nusair interpolation
   ROPT   =   -0.00025  -0.00025  -0.00025
 Ionic relaxation
   EDIFFG = 0.1E-04   stopping-criterion for IOM
   NSW    =      0    number of steps for IOM
   NBLOCK =      1;   KBLOCK =      1    inner block; outer block 
   IBRION =     -1    ionic relax: 0-MD 1-quasi-New 2-CG
   NFREE  =      0    steps in history (QN), initial steepest desc. (CG)
   ISIF   =      2    stress and relaxation
   IWAVPR =     10    prediction:  0-non 1-charg 2-wave 3-comb
   ISYM   =      2    0-nonsym 1-usesym 2-fastsym
   LCORR  =      T    Harris-Foulkes like correction to forces

   POTIM  = 0.5000    time-step for ionic-motion
   TEIN   =    0.0    initial temperature
   TEBEG  =    0.0;   TEEND  =   0.0 temperature during run
   SMASS  =  -3.00    Nose mass-parameter (am)
   estimated Nose-frequenzy (Omega)   =  0.10E-29 period in steps = 0.13E+47 mass=  -0.102E-25a.u.
   SCALEE = 1.0000    scale energy and forces
   NPACO  =    256;   APACO  = 10.0  distance and # of slots for P.C.
   PSTRESS=    0.0 pullay stress

  Mass of Ions in am
   POMASS = 107.87 24.30 16.00
  Ionic Valenz
   ZVAL   =  11.00  8.00  6.00
  Atomic Wigner-Seitz radii
   RWIGS  =  -1.00 -1.00 -1.00
  virtual crystal weights 
   VCA    =   1.00  1.00  1.00
   NELECT =    1444.0000    total number of electrons
   NUPDOWN=      -1.0000    fix difference up-down

 DOS related values:
   EMIN   =  10.00;   EMAX   =-10.00  energy-range for DOS
   EFERMI =   0.00
   ISMEAR =     0;   SIGMA  =   0.05  broadening in eV -4-tet -1-fermi 0-gaus

 Electronic relaxation 2 (details)
   IALGO  =     58    algorithm
   LDIAG  =      T    sub-space diagonalisation (order eigenvalues)
   LSUBROT=      F    optimize rotation matrix (better conditioning)
   TURBO    =      0    0=normal 1=particle mesh
   IRESTART =      0    0=no restart 2=restart with 2 vectors
   NREBOOT  =      0    no. of reboots
   NMIN     =      0    reboot dimension
   EREF     =   0.00    reference energy to select bands
   IMIX   =      4    mixing-type and parameters
     AMIX     =   0.40;   BMIX     =  1.00
     AMIX_MAG =   1.60;   BMIX_MAG =  1.00
     AMIN     =   0.10
     WC   =   100.;   INIMIX=   1;  MIXPRE=   1;  MAXMIX= -45

 Intra band minimization:
   WEIMIN = 0.0000     energy-eigenvalue tresh-hold
   EBREAK =  0.26E-09  absolut break condition
   DEPER  =   0.30     relativ break condition  

   TIME   =   0.40     timestep for ELM

  volume/ion in A,a.u.               =      48.44       326.88
  Fermi-wavevector in a.u.,A,eV,Ry     =   0.862293  1.629497 10.116590  0.743548
  Thomas-Fermi vector in A             =   1.980073

 Write flags
   LWAVE        =      F    write WAVECAR
   LDOWNSAMPLE  =      F    k-point downsampling of WAVECAR
   LCHARG       =      F    write CHGCAR
   LVTOT        =      F    write LOCPOT, total local potential
   LVHAR        =      F    write LOCPOT, Hartree potential only
   LELF         =      F    write electronic localiz. function (ELF)
   LORBIT       =      0    0 simple, 1 ext, 2 COOP (PROOUT), +10 PAW based schemes


 Dipole corrections
   LMONO  =      F    monopole corrections only (constant potential shift)
   LDIPOL =      T    correct potential (dipole corrections)
   IDIPOL =      3    1-x, 2-y, 3-z, 4-all directions 
   EPSILON=  1.0000000 bulk dielectric constant

 Exchange correlation treatment:
   GGA     =    ML    GGA type
   LEXCH   =    44    internal setting for exchange type
   LIBXC   =     F    Libxc                    
   VOSKOWN =     0    Vosko Wilk Nusair interpolation
   LHFCALC =     F    Hartree Fock is set to
   LHFONE  =     F    Hartree Fock one center treatment
   AEXX    =    0.0000 exact exchange contribution

 vdW DFT:
   LUSE_VDW   =     T    switch on vdW DFT
   Zab_VDW    =******    correlation parameter
   PARAM1     =0.1234
   PARAM2     =1.0000
   PARAM3     =0.0000
   -- rVV10 --
   BPARAM     = 6.3000
   CPARAM     = 0.0093

 Linear response parameters
   LEPSILON=     F    determine dielectric tensor
   LRPA    =     F    only Hartree local field effects (RPA)
   LNABLA  =     F    use nabla operator in PAW spheres
   LVEL    =     F    velocity operator in full k-point grid
   CSHIFT  =0.1000    complex shift for real part using Kramers Kronig
   OMEGAMAX=  -1.0    maximum frequency
   DEG_THRESHOLD= 0.2000000E-02 threshold for treating states as degnerate
   RTIME   =   -0.100 relaxation time in fs
  (WPLASMAI=    0.000 imaginary part of plasma frequency in eV, 0.658/RTIME)
   DFIELD  = 0.0000000 0.0000000 0.0000000 field for delta impulse in time

  Optional k-point grid parameters
   LKPOINTS_OPT  =     F    use optional k-point grid
   KPOINTS_OPT_MODE=     1    mode for optional k-point grid

 Orbital magnetization related:
   ORBITALMAG=     F  switch on orbital magnetization
   LCHIMAG   =     F  perturbation theory with respect to B field
   DQ        =  0.001000  dq finite difference perturbation B field
   LLRAUG    =     F  two centre corrections for induced B field



--------------------------------------------------------------------------------------------------------


 Static calculation
 charge density and potential will be updated during run
 non-spin polarized calculation
 Conjugate gradient for all bands (Freysoldt, et al. PRB 79, 241103 (2009))
 preconditioned conjugated gradient                                        
 perform sub-space diagonalisation
    before iterative eigenvector-optimisation
 modified Broyden-mixing scheme, WC =      100.0
 initial mixing is a Kerker type mixing with AMIX =  0.4000 and BMIX =      1.0000
 Hartree-type preconditioning will be used
 using additional bands          238
 real space projection scheme for non local part
 use partial core corrections
 no Harris-corrections to forces 
 use gradient corrections 
 use of overlap-Matrix (Vanderbilt PP)
 Gauss-broadening in eV      SIGMA  =   0.05


--------------------------------------------------------------------------------------------------------


  energy-cutoff  :      520.00
  volume of cell :     9881.61
      direct lattice vectors                 reciprocal lattice vectors
    21.138852197  0.000000000  0.000000000     0.047306258  0.000000000  0.000000000
     0.000000000 21.138852197  0.000000000     0.000000000  0.047306258  0.000000000
     0.000000000  0.000000000 22.113885220     0.000000000  0.000000000  0.045220457

  length of vectors
    21.138852197 21.138852197 22.113885220     0.047306258  0.047306258  0.045220457



 k-points in units of 2pi/SCALE and weight: KPOINTS created by Atomic Simulation Env
   0.00000000  0.00000000  0.00000000       1.000

 k-points in reciprocal lattice and weights: KPOINTS created by Atomic Simulation Env
   0.00000000  0.00000000  0.00000000       1.000

 position of ions in fractional coordinates (direct lattice) 
   0.40007554  0.42853956  0.61036705
   0.40023932  0.51150472  0.69731758
   0.40057432  0.64132945  0.71292430
   0.40020353  0.58997571  0.60440993
   0.00000000  0.00000000  0.40698411
   0.10000000  0.10000000  0.40698411
   0.00000000  0.10000000  0.50257497
   0.10000000  0.00000000  0.50257497
   0.00000000  0.20000000  0.40698411
   0.10000000  0.30000000  0.40698411
   0.00000000  0.30000000  0.50257497
   0.10000000  0.20000000  0.50257497
   0.00000000  0.40000000  0.40698411
   0.10000000  0.50000000  0.40698411
   0.00000000  0.50000000  0.50257497
   0.10000000  0.40000000  0.50257497
   0.00000000  0.60000000  0.40698411
   0.10000000  0.70000000  0.40698411
   0.00000000  0.70000000  0.50257497
   0.10000000  0.60000000  0.50257497
   0.00000000  0.80000000  0.40698411
   0.10000000  0.90000000  0.40698411
   0.00000000  0.90000000  0.50257497
   0.10000000  0.80000000  0.50257497
   0.20000000  0.00000000  0.40698411
   0.30000000  0.10000000  0.40698411
   0.20000000  0.10000000  0.50257497
   0.30000000  0.00000000  0.50257497
   0.20000000  0.20000000  0.40698411
   0.30000000  0.30000000  0.40698411
   0.20000000  0.30000000  0.50257497
   0.30000000  0.20000000  0.50257497
   0.20000000  0.40000000  0.40698411
   0.30000000  0.50000000  0.40698411
   0.20000000  0.50000000  0.50257497
   0.30000000  0.40000000  0.50257497
   0.20000000  0.60000000  0.40698411
   0.30000000  0.70000000  0.40698411
   0.20000000  0.70000000  0.50257497
   0.30000000  0.60000000  0.50257497
   0.20000000  0.80000000  0.40698411
   0.30000000  0.90000000  0.40698411
   0.20000000  0.90000000  0.50257497
   0.30000000  0.80000000  0.50257497
   0.40000000  0.00000000  0.40698411
   0.50000000  0.10000000  0.40698411
   0.40000000  0.10000000  0.50257497
   0.50000000  0.00000000  0.50257497
   0.40000000  0.20000000  0.40698411
   0.50000000  0.30000000  0.40698411
   0.40000000  0.30000000  0.50257497
   0.50000000  0.20000000  0.50257497
   0.40000000  0.40000000  0.40698411
   0.50000000  0.50000000  0.40698411
   0.40000000  0.50000000  0.50257497
   0.50000000  0.40000000  0.50257497
   0.40000000  0.60000000  0.40698411
   0.50000000  0.70000000  0.40698411
   0.40000000  0.70000000  0.50257497
   0.50000000  0.60000000  0.50257497
   0.40000000  0.80000000  0.40698411
   0.50000000  0.90000000  0.40698411
   0.40000000  0.90000000  0.50257497
   0.50000000  0.80000000  0.50257497
   0.60000000  0.00000000  0.40698411
   0.70000000  0.10000000  0.40698411
   0.60000000  0.10000000  0.50257497
   0.70000000  0.00000000  0.50257497
   0.60000000  0.20000000  0.40698411
   0.70000000  0.30000000  0.40698411
   0.60000000  0.30000000  0.50257497
   0.70000000  0.20000000  0.50257497
   0.60000000  0.40000000  0.40698411
   0.70000000  0.50000000  0.40698411
   0.60000000  0.50000000  0.50257497
   0.70000000  0.40000000  0.50257497
   0.60000000  0.60000000  0.40698411
   0.70000000  0.70000000  0.40698411
   0.60000000  0.70000000  0.50257497
   0.70000000  0.60000000  0.50257497
   0.60000000  0.80000000  0.40698411
   0.70000000  0.90000000  0.40698411
   0.60000000  0.90000000  0.50257497
   0.70000000  0.80000000  0.50257497
   0.80000000  0.00000000  0.40698411
   0.90000000  0.10000000  0.40698411
   0.80000000  0.10000000  0.50257497
   0.90000000  0.00000000  0.50257497
   0.80000000  0.20000000  0.40698411
   0.90000000  0.30000000  0.40698411
   0.80000000  0.30000000  0.50257497
   0.90000000  0.20000000  0.50257497
   0.80000000  0.40000000  0.40698411
   0.90000000  0.50000000  0.40698411
   0.80000000  0.50000000  0.50257497
   0.90000000  0.40000000  0.50257497
   0.80000000  0.60000000  0.40698411
   0.90000000  0.70000000  0.40698411
   0.80000000  0.70000000  0.50257497
   0.90000000  0.60000000  0.50257497
   0.80000000  0.80000000  0.40698411
   0.90000000  0.90000000  0.40698411
   0.80000000  0.90000000  0.50257497
   0.90000000  0.80000000  0.50257497
   0.00000000  0.00000000  0.50257497
   0.10000000  0.10000000  0.50257497
   0.00000000  0.10000000  0.40698411
   0.10000000  0.00000000  0.40698411
   0.00000000  0.20000000  0.50257497
   0.10000000  0.30000000  0.50257497
   0.00000000  0.30000000  0.40698411
   0.10000000  0.20000000  0.40698411
   0.00000000  0.40000000  0.50257497
   0.10000000  0.50000000  0.50257497
   0.00000000  0.50000000  0.40698411
   0.10000000  0.40000000  0.40698411
   0.00000000  0.60000000  0.50257497
   0.10000000  0.70000000  0.50257497
   0.00000000  0.70000000  0.40698411
   0.10000000  0.60000000  0.40698411
   0.00000000  0.80000000  0.50257497
   0.10000000  0.90000000  0.50257497
   0.00000000  0.90000000  0.40698411
   0.10000000  0.80000000  0.40698411
   0.20000000  0.00000000  0.50257497
   0.30000000  0.10000000  0.50257497
   0.20000000  0.10000000  0.40698411
   0.30000000  0.00000000  0.40698411
   0.20000000  0.20000000  0.50257497
   0.30000000  0.30000000  0.50257497
   0.20000000  0.30000000  0.40698411
   0.30000000  0.20000000  0.40698411
   0.20000000  0.40000000  0.50257497
   0.30000000  0.50000000  0.50257497
   0.20000000  0.50000000  0.40698411
   0.30000000  0.40000000  0.40698411
   0.20000000  0.60000000  0.50257497
   0.30000000  0.70000000  0.50257497
   0.20000000  0.70000000  0.40698411
   0.30000000  0.60000000  0.40698411
   0.20000000  0.80000000  0.50257497
   0.30000000  0.90000000  0.50257497
   0.20000000  0.90000000  0.40698411
   0.30000000  0.80000000  0.40698411
   0.40000000  0.00000000  0.50257497
   0.50000000  0.10000000  0.50257497
   0.40000000  0.10000000  0.40698411
   0.50000000  0.00000000  0.40698411
   0.40000000  0.20000000  0.50257497
   0.50000000  0.30000000  0.50257497
   0.40000000  0.30000000  0.40698411
   0.50000000  0.20000000  0.40698411
   0.40000000  0.40000000  0.50257497
   0.50000000  0.50000000  0.50257497
   0.40000000  0.50000000  0.40698411
   0.50000000  0.40000000  0.40698411
   0.40000000  0.60000000  0.50257497
   0.50000000  0.70000000  0.50257497
   0.40000000  0.70000000  0.40698411
   0.50000000  0.60000000  0.40698411
   0.40000000  0.80000000  0.50257497
   0.50000000  0.90000000  0.50257497
   0.40000000  0.90000000  0.40698411
   0.50000000  0.80000000  0.40698411
   0.60000000  0.00000000  0.50257497
   0.70000000  0.10000000  0.50257497
   0.60000000  0.10000000  0.40698411
   0.70000000  0.00000000  0.40698411
   0.60000000  0.20000000  0.50257497
   0.70000000  0.30000000  0.50257497
   0.60000000  0.30000000  0.40698411
   0.70000000  0.20000000  0.40698411
   0.60000000  0.40000000  0.50257497
   0.70000000  0.50000000  0.50257497
   0.60000000  0.50000000  0.40698411
   0.70000000  0.40000000  0.40698411
   0.60000000  0.60000000  0.50257497
   0.70000000  0.70000000  0.50257497
   0.60000000  0.70000000  0.40698411
   0.70000000  0.60000000  0.40698411
   0.60000000  0.80000000  0.50257497
   0.70000000  0.90000000  0.50257497
   0.60000000  0.90000000  0.40698411
   0.70000000  0.80000000  0.40698411
   0.80000000  0.00000000  0.50257497
   0.90000000  0.10000000  0.50257497
   0.80000000  0.10000000  0.40698411
   0.90000000  0.00000000  0.40698411
   0.80000000  0.20000000  0.50257497
   0.90000000  0.30000000  0.50257497
   0.80000000  0.30000000  0.40698411
   0.90000000  0.20000000  0.40698411
   0.80000000  0.40000000  0.50257497
   0.90000000  0.50000000  0.50257497
   0.80000000  0.50000000  0.40698411
   0.90000000  0.40000000  0.40698411
   0.80000000  0.60000000  0.50257497
   0.90000000  0.70000000  0.50257497
   0.80000000  0.70000000  0.40698411
   0.90000000  0.60000000  0.40698411
   0.80000000  0.80000000  0.50257497
   0.90000000  0.90000000  0.50257497
   0.80000000  0.90000000  0.40698411
   0.90000000  0.80000000  0.40698411

 position of ions in cartesian coordinates  (Angst):
   8.45713774  9.05883440 13.49758682
   8.46059993 10.81262269 15.42040092
   8.46768128 13.55696849 15.76552609
   8.45984327 12.47140927 13.36585174
   0.00000000  0.00000000  9.00000000
   2.11388522  2.11388522  9.00000000
   0.00000000  2.11388522 11.11388522
   2.11388522  0.00000000 11.11388522
   0.00000000  4.22777044  9.00000000
   2.11388522  6.34165566  9.00000000
   0.00000000  6.34165566 11.11388522
   2.11388522  4.22777044 11.11388522
   0.00000000  8.45554088  9.00000000
   2.11388522 10.56942610  9.00000000
   0.00000000 10.56942610 11.11388522
   2.11388522  8.45554088 11.11388522
   0.00000000 12.68331132  9.00000000
   2.11388522 14.79719654  9.00000000
   0.00000000 14.79719654 11.11388522
   2.11388522 12.68331132 11.11388522
   0.00000000 16.91108176  9.00000000
   2.11388522 19.02496698  9.00000000
   0.00000000 19.02496698 11.11388522
   2.11388522 16.91108176 11.11388522
   4.22777044  0.00000000  9.00000000
   6.34165566  2.11388522  9.00000000
   4.22777044  2.11388522 11.11388522
   6.34165566  0.00000000 11.11388522
   4.22777044  4.22777044  9.00000000
   6.34165566  6.34165566  9.00000000
   4.22777044  6.34165566 11.11388522
   6.34165566  4.22777044 11.11388522
   4.22777044  8.45554088  9.00000000
   6.34165566 10.56942610  9.00000000
   4.22777044 10.56942610 11.11388522
   6.34165566  8.45554088 11.11388522
   4.22777044 12.68331132  9.00000000
   6.34165566 14.79719654  9.00000000
   4.22777044 14.79719654 11.11388522
   6.34165566 12.68331132 11.11388522
   4.22777044 16.91108176  9.00000000
   6.34165566 19.02496698  9.00000000
   4.22777044 19.02496698 11.11388522
   6.34165566 16.91108176 11.11388522
   8.45554088  0.00000000  9.00000000
  10.56942610  2.11388522  9.00000000
   8.45554088  2.11388522 11.11388522
  10.56942610  0.00000000 11.11388522
   8.45554088  4.22777044  9.00000000
  10.56942610  6.34165566  9.00000000
   8.45554088  6.34165566 11.11388522
  10.56942610  4.22777044 11.11388522
   8.45554088  8.45554088  9.00000000
  10.56942610 10.56942610  9.00000000
   8.45554088 10.56942610 11.11388522
  10.56942610  8.45554088 11.11388522
   8.45554088 12.68331132  9.00000000
  10.56942610 14.79719654  9.00000000
   8.45554088 14.79719654 11.11388522
  10.56942610 12.68331132 11.11388522
   8.45554088 16.91108176  9.00000000
  10.56942610 19.02496698  9.00000000
   8.45554088 19.02496698 11.11388522
  10.56942610 16.91108176 11.11388522
  12.68331132  0.00000000  9.00000000
  14.79719654  2.11388522  9.00000000
  12.68331132  2.11388522 11.11388522
  14.79719654  0.00000000 11.11388522
  12.68331132  4.22777044  9.00000000
  14.79719654  6.34165566  9.00000000
  12.68331132  6.34165566 11.11388522
  14.79719654  4.22777044 11.11388522
  12.68331132  8.45554088  9.00000000
  14.79719654 10.56942610  9.00000000
  12.68331132 10.56942610 11.11388522
  14.79719654  8.45554088 11.11388522
  12.68331132 12.68331132  9.00000000
  14.79719654 14.79719654  9.00000000
  12.68331132 14.79719654 11.11388522
  14.79719654 12.68331132 11.11388522
  12.68331132 16.91108176  9.00000000
  14.79719654 19.02496698  9.00000000
  12.68331132 19.02496698 11.11388522
  14.79719654 16.91108176 11.11388522
  16.91108176  0.00000000  9.00000000
  19.02496698  2.11388522  9.00000000
  16.91108176  2.11388522 11.11388522
  19.02496698  0.00000000 11.11388522
  16.91108176  4.22777044  9.00000000
  19.02496698  6.34165566  9.00000000
  16.91108176  6.34165566 11.11388522
  19.02496698  4.22777044 11.11388522
  16.91108176  8.45554088  9.00000000
  19.02496698 10.56942610  9.00000000
  16.91108176 10.56942610 11.11388522
  19.02496698  8.45554088 11.11388522
  16.91108176 12.68331132  9.00000000
  19.02496698 14.79719654  9.00000000
  16.91108176 14.79719654 11.11388522
  19.02496698 12.68331132 11.11388522
  16.91108176 16.91108176  9.00000000
  19.02496698 19.02496698  9.00000000
  16.91108176 19.02496698 11.11388522
  19.02496698 16.91108176 11.11388522
   0.00000000  0.00000000 11.11388522
   2.11388522  2.11388522 11.11388522
   0.00000000  2.11388522  9.00000000
   2.11388522  0.00000000  9.00000000
   0.00000000  4.22777044 11.11388522
   2.11388522  6.34165566 11.11388522
   0.00000000  6.34165566  9.00000000
   2.11388522  4.22777044  9.00000000
   0.00000000  8.45554088 11.11388522
   2.11388522 10.56942610 11.11388522
   0.00000000 10.56942610  9.00000000
   2.11388522  8.45554088  9.00000000
   0.00000000 12.68331132 11.11388522
   2.11388522 14.79719654 11.11388522
   0.00000000 14.79719654  9.00000000
   2.11388522 12.68331132  9.00000000
   0.00000000 16.91108176 11.11388522
   2.11388522 19.02496698 11.11388522
   0.00000000 19.02496698  9.00000000
   2.11388522 16.91108176  9.00000000
   4.22777044  0.00000000 11.11388522
   6.34165566  2.11388522 11.11388522
   4.22777044  2.11388522  9.00000000
   6.34165566  0.00000000  9.00000000
   4.22777044  4.22777044 11.11388522
   6.34165566  6.34165566 11.11388522
   4.22777044  6.34165566  9.00000000
   6.34165566  4.22777044  9.00000000
   4.22777044  8.45554088 11.11388522
   6.34165566 10.56942610 11.11388522
   4.22777044 10.56942610  9.00000000
   6.34165566  8.45554088  9.00000000
   4.22777044 12.68331132 11.11388522
   6.34165566 14.79719654 11.11388522
   4.22777044 14.79719654  9.00000000
   6.34165566 12.68331132  9.00000000
   4.22777044 16.91108176 11.11388522
   6.34165566 19.02496698 11.11388522
   4.22777044 19.02496698  9.00000000
   6.34165566 16.91108176  9.00000000
   8.45554088  0.00000000 11.11388522
  10.56942610  2.11388522 11.11388522
   8.45554088  2.11388522  9.00000000
  10.56942610  0.00000000  9.00000000
   8.45554088  4.22777044 11.11388522
  10.56942610  6.34165566 11.11388522
   8.45554088  6.34165566  9.00000000
  10.56942610  4.22777044  9.00000000
   8.45554088  8.45554088 11.11388522
  10.56942610 10.56942610 11.11388522
   8.45554088 10.56942610  9.00000000
  10.56942610  8.45554088  9.00000000
   8.45554088 12.68331132 11.11388522
  10.56942610 14.79719654 11.11388522
   8.45554088 14.79719654  9.00000000
  10.56942610 12.68331132  9.00000000
   8.45554088 16.91108176 11.11388522
  10.56942610 19.02496698 11.11388522
   8.45554088 19.02496698  9.00000000
  10.56942610 16.91108176  9.00000000
  12.68331132  0.00000000 11.11388522
  14.79719654  2.11388522 11.11388522
  12.68331132  2.11388522  9.00000000
  14.79719654  0.00000000  9.00000000
  12.68331132  4.22777044 11.11388522
  14.79719654  6.34165566 11.11388522
  12.68331132  6.34165566  9.00000000
  14.79719654  4.22777044  9.00000000
  12.68331132  8.45554088 11.11388522
  14.79719654 10.56942610 11.11388522
  12.68331132 10.56942610  9.00000000
  14.79719654  8.45554088  9.00000000
  12.68331132 12.68331132 11.11388522
  14.79719654 14.79719654 11.11388522
  12.68331132 14.79719654  9.00000000
  14.79719654 12.68331132  9.00000000
  12.68331132 16.91108176 11.11388522
  14.79719654 19.02496698 11.11388522
  12.68331132 19.02496698  9.00000000
  14.79719654 16.91108176  9.00000000
  16.91108176  0.00000000 11.11388522
  19.02496698  2.11388522 11.11388522
  16.91108176  2.11388522  9.00000000
  19.02496698  0.00000000  9.00000000
  16.91108176  4.22777044 11.11388522
  19.02496698  6.34165566 11.11388522
  16.91108176  6.34165566  9.00000000
  19.02496698  4.22777044  9.00000000
  16.91108176  8.45554088 11.11388522
  19.02496698 10.56942610 11.11388522
  16.91108176 10.56942610  9.00000000
  19.02496698  8.45554088  9.00000000
  16.91108176 12.68331132 11.11388522
  19.02496698 14.79719654 11.11388522
  16.91108176 14.79719654  9.00000000
  19.02496698 12.68331132  9.00000000
  16.91108176 16.91108176 11.11388522
  19.02496698 19.02496698 11.11388522
  16.91108176 19.02496698  9.00000000
  19.02496698 16.91108176  9.00000000



--------------------------------------------------------------------------------------------------------


 k-point   1 :   0.0000 0.0000 0.0000  plane waves:  265979

 maximum and minimum number of plane-waves per node :     66495    66494

 maximum number of plane-waves:    265979
 maximum index in each direction: 
   IXMAX=   39   IYMAX=   39   IZMAX=   41
[...]
   -.123E+02 -.116E+02 -.686E+03   0.123E+02 0.116E+02 0.691E+03   -.226E-01 -.163E-01 -.370E+01
   -.261E-01 -.701E+01 -.690E+03   0.259E-01 0.702E+01 0.694E+03   0.168E-03 -.106E-01 -.369E+01
   -.654E+01 -.655E+01 0.705E+03   0.655E+01 0.656E+01 -.709E+03   -.187E-01 -.182E-01 0.359E+01
   -.259E-01 -.754E+01 0.706E+03   0.257E-01 0.755E+01 -.710E+03   0.200E-03 -.151E-01 0.359E+01
 -----------------------------------------------------------------------------------------------
   -.215E-01 -.930E-01 0.554E+00   0.702E-12 0.682E-12 0.200E-10   0.229E-01 0.915E-01 -.106E+01


 POSITION                                       TOTAL-FORCE (eV/Angst)
 -----------------------------------------------------------------------------------
      8.45714      9.05883     13.49759        -0.000855     -0.369081      0.158244
      8.46060     10.81262     15.42040         0.000319     -0.290449      0.623080
      8.46768     13.55697     15.76553         0.001395      0.477768      0.415427
      8.45984     12.47141     13.36585        -0.001194      0.211911     -0.061326
      0.00000      0.00000      9.00000        -0.003147      0.002100      0.093892
      2.11389      2.11389      9.00000        -0.006047     -0.002324      0.094830
      0.00000      2.11389     11.11389        -0.002143      0.000201     -0.068992
      2.11389      0.00000     11.11389        -0.003044      0.002662     -0.067195
      0.00000      4.22777      9.00000        -0.005159     -0.002942      0.094844
      2.11389      6.34166      9.00000        -0.019740     -0.009281      0.099020
      0.00000      6.34166     11.11389        -0.003761     -0.002358     -0.065063
      2.11389      4.22777     11.11389        -0.007019     -0.002449     -0.063074
      0.00000      8.45554      9.00000        -0.011410     -0.004492      0.096803
      2.11389     10.56943      9.00000        -0.038835     -0.006314      0.102264
      0.00000     10.56943     11.11389        -0.007403     -0.002483     -0.061448
      2.11389      8.45554     11.11389        -0.011699     -0.005539     -0.048960
      0.00000     12.68331      9.00000        -0.015542      0.000314      0.097255
      2.11389     14.79720      9.00000        -0.032601      0.009278      0.099601
      0.00000     14.79720     11.11389        -0.007982      0.001714     -0.063610
      2.11389     12.68331     11.11389        -0.027215     -0.001226     -0.047248
      0.00000     16.91108      9.00000        -0.008625      0.005027      0.095203
      2.11389     19.02497      9.00000        -0.009082      0.008708      0.095170
      0.00000     19.02497     11.11389        -0.003339      0.002971     -0.068110
      2.11389     16.91108     11.11389        -0.012991      0.006589     -0.059351
      4.22777      0.00000      9.00000        -0.005453      0.005029      0.096183
      6.34166      2.11389      9.00000        -0.004799     -0.012119      0.097737
      4.22777      2.11389     11.11389        -0.003915     -0.003838     -0.063157
      6.34166      0.00000     11.11389        -0.001608      0.002868     -0.061020
      4.22777      4.22777      9.00000        -0.015737     -0.017174      0.097056
      6.34166      6.34166      9.00000        -0.047486     -0.066209      0.088811
      4.22777      6.34166     11.11389        -0.029842     -0.004980     -0.032813
      6.34166      4.22777     11.11389        -0.006835     -0.030083     -0.044229
      4.22777      8.45554      9.00000        -0.066995     -0.024132      0.112222
      6.34166     10.56943      9.00000        -0.120392     -0.040441      0.065627
      4.22777     10.56943     11.11389        -0.070371     -0.018945      0.001142
      6.34166      8.45554     11.11389        -0.377541     -0.052421      0.010203
      4.22777     12.68331      9.00000        -0.097304      0.006333      0.110468
      6.34166     14.79720      9.00000        -0.084150      0.091166      0.068435
      4.22777     14.79720     11.11389        -0.063000      0.014371     -0.021926
      6.34166     12.68331     11.11389        -0.728008      0.030662     -0.172376
      4.22777     16.91108      9.00000        -0.027445      0.029570      0.097606
      6.34166     19.02497      9.00000        -0.006461      0.029455      0.101530
      4.22777     19.02497     11.11389        -0.003935      0.012850     -0.058331
      6.34166     16.91108     11.11389        -0.000218      0.064149     -0.013186
      8.45554      0.00000      9.00000         0.000029      0.006838      0.098113
     10.56943      2.11389      9.00000         0.004831     -0.012123      0.097741
      8.45554      2.11389     11.11389         0.000027     -0.009670     -0.057903
     10.56943      0.00000     11.11389         0.001660      0.002826     -0.061001
      8.45554      4.22777      9.00000         0.000029     -0.053257      0.103514
     10.56943      6.34166      9.00000         0.047538     -0.066187      0.088864
      8.45554      6.34166     11.11389         0.000086     -0.335841     -0.050538
     10.56943      4.22777     11.11389         0.006881     -0.030018     -0.044197
      8.45554      8.45554      9.00000         0.000076     -0.076782     -0.143881
     10.56943     10.56943      9.00000         0.120502     -0.040300      0.065560
      8.45554     10.56943     11.11389        -0.000687     -0.305450     -0.304081
     10.56943      8.45554     11.11389         0.378158     -0.052573      0.010295
      8.45554     12.68331      9.00000         0.000312      0.025701     -0.368845
     10.56943     14.79720      9.00000         0.084317      0.091082      0.068705
      8.45554     14.79720     11.11389         0.000396      0.669896     -0.034561
     10.56943     12.68331     11.11389         0.730951      0.031534     -0.173813
      8.45554     16.91108      9.00000         0.000093      0.095259      0.117451
     10.56943     19.02497      9.00000         0.006533      0.029388      0.101557
      8.45554     19.02497     11.11389         0.000062      0.014724     -0.045755
     10.56943     16.91108     11.11389         0.000412      0.063770     -0.012900
     12.68331      0.00000      9.00000         0.005453      0.005003      0.096191
     14.79720      2.11389      9.00000         0.006012     -0.002329      0.094837
     12.68331      2.11389     11.11389         0.003910     -0.003842     -0.063148
     14.79720      0.00000     11.11389         0.002996      0.002626     -0.067176
     12.68331      4.22777      9.00000         0.015732     -0.017157      0.097073
     14.79720      6.34166      9.00000         0.019693     -0.009233      0.099043
     12.68331      6.34166     11.11389         0.029792     -0.004846     -0.032707
     14.79720      4.22777     11.11389         0.006978     -0.002416     -0.063048
     12.68331      8.45554      9.00000         0.067019     -0.024076      0.112308
     14.79720     10.56943      9.00000         0.038745     -0.006256      0.102339
     12.68331     10.56943     11.11389         0.070436     -0.018706      0.001487
     14.79720      8.45554     11.11389         0.011557     -0.005452     -0.048891
     12.68331     12.68331      9.00000         0.097257      0.006383      0.110707
     14.79720     14.79720      9.00000         0.032474      0.009233      0.099681
     12.68331     14.79720     11.11389         0.062705      0.014139     -0.021422
     14.79720     12.68331     11.11389         0.026882     -0.001196     -0.047086
     12.68331     16.91108      9.00000         0.027431      0.029463      0.097713
     14.79720     19.02497      9.00000         0.009023      0.008651      0.095189
     12.68331     19.02497     11.11389         0.003926      0.012701     -0.058268
     14.79720     16.91108     11.11389         0.012822      0.006475     -0.059267
     16.91108      0.00000      9.00000         0.003092      0.002088      0.093898
     19.02497      2.11389      9.00000        -0.000033     -0.000234      0.093810
     16.91108      2.11389     11.11389         0.002088      0.000200     -0.068986
     19.02497      0.00000     11.11389        -0.000039      0.001493     -0.069865
     16.91108      4.22777      9.00000         0.005106     -0.002930      0.094847
     19.02497      6.34166      9.00000        -0.000045     -0.003087      0.094931
     16.91108      6.34166     11.11389         0.003665     -0.002326     -0.065048
     19.02497      4.22777     11.11389        -0.000039     -0.000919     -0.068783
     16.91108      8.45554      9.00000         0.011311     -0.004468      0.096818
     19.02497     10.56943      9.00000        -0.000068     -0.002026      0.095902
     16.91108     10.56943     11.11389         0.007221     -0.002450     -0.061411
     19.02497      8.45554     11.11389        -0.000069     -0.002216     -0.065856
     16.91108     12.68331      9.00000         0.015392      0.000322      0.097291
     19.02497     14.79720      9.00000        -0.000071      0.002232      0.095281
     16.91108     14.79720     11.11389         0.007772      0.001684     -0.063575
     19.02497     12.68331     11.11389        -0.000099     -0.000470     -0.065295
     16.91108     16.91108      9.00000         0.008511      0.004995      0.095221
     19.02497     19.02497      9.00000        -0.000047      0.003137      0.093960
     16.91108     19.02497     11.11389         0.003243      0.002933     -0.068092
     19.02497     16.91108     11.11389        -0.000075      0.002170     -0.067835
      0.00000      0.00000     11.11389         0.002850     -0.002077      0.462413
      2.11389      2.11389     11.11389         0.005384      0.002014      0.459877
      0.00000      2.11389      9.00000         0.003688      0.000917     -0.488306
      2.11389      0.00000      9.00000         0.006397     -0.003392     -0.488962
      0.00000      4.22777     11.11389         0.003557      0.002097      0.460559
      2.11389      6.34166     11.11389         0.012693      0.006672      0.449577
      0.00000      6.34166      9.00000         0.007408      0.005302     -0.490127
      2.11389      4.22777      9.00000         0.011512      0.008028     -0.490451
      0.00000      8.45554     11.11389         0.006953      0.004209      0.455366
      2.11389     10.56943     11.11389         0.024541      0.008744      0.439251
      0.00000     10.56943      9.00000         0.012432      0.003645     -0.491565
      2.11389      8.45554      9.00000         0.025661      0.011857     -0.496373
      0.00000     12.68331     11.11389         0.009844      0.000418      0.454268
      2.11389     14.79720     11.11389         0.023497     -0.008985      0.445952
      0.00000     14.79720      9.00000         0.011483     -0.004693     -0.490390
      2.11389     12.68331      9.00000         0.035907     -0.002238     -0.494228
      0.00000     16.91108     11.11389         0.006449     -0.004611      0.458970
      2.11389     19.02497     11.11389         0.008502     -0.008411      0.457996
      0.00000     19.02497      9.00000         0.005296     -0.005142     -0.488537
      2.11389     16.91108      9.00000         0.018971     -0.014192     -0.491097
      4.22777      0.00000     11.11389         0.004474     -0.003419      0.456930
      6.34166      2.11389     11.11389         0.004588      0.008175      0.452263
      4.22777      2.11389      9.00000         0.008653      0.006333     -0.490389
      6.34166      0.00000      9.00000         0.004558     -0.005458     -0.491708
      4.22777      4.22777     11.11389         0.017628      0.016600      0.449273
      6.34166      6.34166     11.11389         0.096616      0.091150      0.412458
      4.22777      6.34166      9.00000         0.037851      0.027197     -0.495449
      6.34166      4.22777      9.00000         0.018085      0.033210     -0.492980
      4.22777      8.45554     11.11389         0.051823      0.027107      0.402329
      6.34166     10.56943     11.11389         0.151490      0.144370      0.239316
      4.22777     10.56943      9.00000         0.074146      0.019890     -0.502676
      6.34166      8.45554      9.00000         0.131531      0.052415     -0.434464
      4.22777     12.68331     11.11389         0.084530     -0.004914      0.412884
      6.34166     14.79720     11.11389         0.163887     -0.188373      0.390528
      4.22777     14.79720      9.00000         0.061354     -0.036256     -0.491953
      6.34166     12.68331      9.00000         0.216043     -0.015016     -0.369845
      4.22777     16.91108     11.11389         0.032555     -0.035537      0.440638
      6.34166     19.02497     11.11389         0.004267     -0.018384      0.443379
      4.22777     19.02497      9.00000         0.012926     -0.017720     -0.491639
      6.34166     16.91108      9.00000         0.029269     -0.062678     -0.493334
      8.45554      0.00000     11.11389        -0.000056     -0.003686      0.451868
     10.56943      2.11389     11.11389        -0.004663      0.008174      0.452258
      8.45554      2.11389      9.00000        -0.000035      0.012419     -0.492108
     10.56943      0.00000      9.00000        -0.004637     -0.005425     -0.491722
      8.45554      4.22777     11.11389        -0.000057      0.040210      0.434894
     10.56943      6.34166     11.11389        -0.096730      0.090994      0.412273
      8.45554      6.34166      9.00000        -0.000064      0.127152     -0.434083
     10.56943      4.22777      9.00000        -0.018161      0.033177     -0.493005
      8.45554      8.45554     11.11389        -0.000480     -0.175929      0.315003
     10.56943     10.56943     11.11389        -0.151420      0.144314      0.238368
      8.45554     10.56943      9.00000        -0.000124      0.100104     -0.322660
     10.56943      8.45554      9.00000        -0.131643      0.052407     -0.434515
      8.45554     12.68331     11.11389        -0.001470      0.040725      0.446958
     10.56943     14.79720     11.11389        -0.163956     -0.187855      0.389329
      8.45554     14.79720      9.00000        -0.000220     -0.216703     -0.367284
     10.56943     12.68331      9.00000        -0.216083     -0.015110     -0.370125
      8.45554     16.91108     11.11389        -0.000219     -0.069497      0.394390
     10.56943     19.02497     11.11389        -0.004398     -0.018294      0.443333
      8.45554     19.02497      9.00000        -0.000076     -0.027556     -0.497188
     10.56943     16.91108      9.00000        -0.029430     -0.062541     -0.493441
     12.68331      0.00000     11.11389        -0.004501     -0.003370      0.456911
     14.79720      2.11389     11.11389        -0.005368      0.002009      0.459873
     12.68331      2.11389      9.00000        -0.008680      0.006333     -0.490406
     14.79720      0.00000      9.00000        -0.006383     -0.003348     -0.488978
     12.68331      4.22777     11.11389        -0.017645      0.016551      0.449251
     14.79720      6.34166     11.11389        -0.012636      0.006610      0.449541
     12.68331      6.34166      9.00000        -0.037870      0.027145     -0.495494
     14.79720      4.22777      9.00000        -0.011495      0.007996     -0.490472
     12.68331      8.45554     11.11389        -0.051780      0.027041      0.402108
     14.79720     10.56943     11.11389        -0.024392      0.008656      0.439134
     12.68331     10.56943      9.00000        -0.074191      0.019780     -0.502761
     14.79720      8.45554      9.00000        -0.025598      0.011803     -0.496432
     12.68331     12.68331     11.11389        -0.084284     -0.005054      0.412323
     14.79720     14.79720     11.11389        -0.023311     -0.008917      0.445812
     12.68331     14.79720      9.00000        -0.061294     -0.036169     -0.492109
     14.79720     12.68331      9.00000        -0.035775     -0.002254     -0.494330
     12.68331     16.91108     11.11389        -0.032502     -0.035340      0.440468
     14.79720     19.02497     11.11389        -0.008445     -0.008325      0.457968
     12.68331     19.02497      9.00000        -0.012952     -0.017639     -0.491682
     14.79720     16.91108      9.00000        -0.018900     -0.014125     -0.491154
     16.91108      0.00000     11.11389        -0.002797     -0.002049      0.462407
     19.02497      2.11389     11.11389         0.000016     -0.000077      0.462942
     16.91108      2.11389      9.00000        -0.003651      0.000920     -0.488311
     19.02497      0.00000      9.00000         0.000024     -0.001917     -0.487903
     16.91108      4.22777     11.11389        -0.003509      0.002072      0.460552
     19.02497      6.34166     11.11389         0.000036      0.002592      0.460259
     16.91108      6.34166      9.00000        -0.007352      0.005273     -0.490139
     19.02497      4.22777      9.00000         0.000020      0.002480     -0.488497
     16.91108      8.45554     11.11389        -0.006846      0.004172      0.455338
     19.02497     10.56943     11.11389         0.000065      0.002299      0.457738
     16.91108     10.56943      9.00000        -0.012315      0.003623     -0.491593
     19.02497      8.45554      9.00000         0.000038      0.003922     -0.489859
     16.91108     12.68331     11.11389        -0.009681      0.000419      0.454216
     19.02497     14.79720     11.11389         0.000076     -0.001815      0.459084
     16.91108     14.79720      9.00000        -0.011357     -0.004667     -0.490422
     19.02497     12.68331      9.00000         0.000063     -0.000180     -0.489965
     16.91108     16.91108     11.11389        -0.006324     -0.004568      0.458942
     19.02497     19.02497     11.11389         0.000040     -0.002963      0.462302
     16.91108     19.02497      9.00000        -0.005225     -0.005119     -0.488549
     19.02497     16.91108      9.00000         0.000055     -0.004261     -0.488741
 -----------------------------------------------------------------------------------
    total drift:                                0.001348     -0.001459     -0.504058


--------------------------------------------------------------------------------------------------------



  FREE ENERGIE OF THE ION-ELECTRON SYSTEM (eV)
  ---------------------------------------------------
  free  energy   TOTEN  =      -746.21625174 eV

  energy  without entropy=     -746.21625174  energy(sigma->0) =     -746.21625174



--------------------------------------------------------------------------------------------------------


    POTLOK:  cpu time      1.7567: real time      1.7568


--------------------------------------------------------------------------------------------------------


     LOOP+:  cpu time    358.5735: real time    358.6790
    4ORBIT:  cpu time      0.0000: real time      0.0000

 total amount of memory used by VASP MPI-rank0   185518. kBytes
=======================================================================

   base      :      30000. kBytes
   nonlr-proj:      37021. kBytes
   fftplans  :      35474. kBytes
   grid      :      50022. kBytes
   one-center:        793. kBytes
   wavefun   :      32208. kBytes

  
  
 General timing and accounting informations for this job:
 ========================================================
  
                  Total CPU time used (sec):      397.625
                            User time (sec):      395.857
                          System time (sec):        1.768
                         Elapsed time (sec):      400.099
  
                   Maximum memory used (kb):      456392.
                   Average memory used (kb):          N/A
  
                          Minor page faults:        62496
                          Major page faults:            0
                 Voluntary context switches:         9780
