 vasp.6.4.0 14Feb23 (build Jul 14 2023 13:46:40) complex                        
  
 executed on             LinuxIFC date 2023.07.28  06:37:36
 running   64 mpi-ranks, with    1 threads/rank, on    8 nodes
 distrk:  each k-point on   64 cores,    1 groups
 distr:  one band on NCORE=   1 cores,   64 groups


--------------------------------------------------------------------------------------------------------


 INCAR:
   SYSTEM = MgO-rocksalt
   ISMEAR = 0
   SIGMA = 0.05
   EDIFF = 1E-6
   ALGO = ALL
   ISTART = 0
   IBRION = -1
   NSW = 0
   ISYM = 2
   METAGGA = R2SCAN
   LUSE_VDW = .TRUE.
   BPARAM = 11.95
   CPARAM = 0.0093
   ENCUT = 520
   PREC = Accurate
   LASPH = .TRUE.
   LREAL = Auto
   ISPIN = 1
   NELM = 200
   NELMIN = 8
   NCORE = 1
   KPAR = 1
   LWAVE = .FALSE.
   LCHARG = .FALSE.

 POTCAR:    PAW_PBE Cu 22Jun2005                  
 -----------------------------------------------------------------------------
|                                                                             |
|               ----> ADVICE to this user running VASP <----                  |
|                                                                             |
|     You have switched on vdW-DFT.                                           |
|     This routine was written and supplied by Jiri Klimes. We recommend      |
|     that you carefully read and cite the following publications:            |
|       J. Klimes, D.R. Bowler, A. Michelides                                 |
|          J. Phys.: Cond Matt. 22 022201 (2010)                              |
|       J. Klimes, D.R. Bowler, A. Michelides                                 |
|          Phys. Rev. B. 83, 195131 (2011)                                    |
|     and references therein.                                                 |
|                                                                             |
 -----------------------------------------------------------------------------

 POTCAR:    PAW_PBE Cu 22Jun2005                  
   SHA256 =  0e71e558f37a4e8407882b4609ceaae59938afaad9ced71dfe8490308a0ab630 Cu/POTCAR             
   COPYR  = (c) Copyright 22Jun2005 Georg Kresse                                                    
   COPYR  = This file is part of the software VASP. Any use, copying, and all other rights are regul
   COPYR  = If you do not have a valid VASP license, you may not use, copy or distribute this file. 
   VRHFIN =Cu: d10 p1                                                                               
   LEXCH  = PE                                                                                      
   EATOM  =  1390.9808 eV,  102.2342 Ry                                                             
                                                                                                    
   TITEL  = PAW_PBE Cu 22Jun2005                                                                    
   LULTRA =        F    use ultrasoft PP ?                                                          
   IUNSCR =        1    unscreen: 0-lin 1-nonlin 2-no                                               
   RPACOR =    2.000    partial core radius                                                         
   POMASS =   63.546; ZVAL   =   11.000    mass and valenz                                          
   RCORE  =    2.300    outmost cutoff radius                                                       
   RWIGS  =    2.200; RWIGS  =    1.164    wigner-seitz radius (au A)                               
   ENMAX  =  295.446; ENMIN  =  221.585 eV                                                          
   ICORE  =        3    local potential                                                             
   LCOR   =        T    correct aug charges                                                         
   LPAW   =        T    paw PP                                                                      
   EAUG   =  586.980                                                                                
   DEXC   =    0.000                                                                                
   RMAX   =    2.344    core radius for proj-oper                                                   
   RAUG   =    1.300    factor for augmentation sphere                                              
   RDEP   =    2.302    radius for radial grids                                                     
   RDEPT  =    1.771    core radius for aug-charge                                                  
                                                                                                    
   Atomic configuration                                                                             
    9 entries                                                                                       
     n  l   j            E        occ.                                                              
     1  0  0.50     -8850.2468   2.0000                                                             
     2  0  0.50     -1062.3498   2.0000                                                             
     2  1  1.50      -916.8226   6.0000                                                             
     3  0  0.50      -114.6929   2.0000                                                             
     3  1  1.50       -72.1325   6.0000                                                             
     3  2  2.50        -5.0394  10.0000                                                             
     4  0  0.50        -4.6097   1.0000                                                             
     4  1  0.50        -4.0817   0.0000                                                             
     4  3  2.50        -1.3606   0.0000                                                             
   Description                                                                                      
     l       E           TYP  RCUT    TYP  RCUT                                                     
     2     -5.0393973     23  2.200                                                                 
     2     10.8846608     23  2.200                                                                 
     0     -4.6097109     23  2.200                                                                 
     0      8.2520465     23  2.200                                                                 
     1     -2.7211652     23  2.200                                                                 
     1     21.7055443     23  2.200                                                                 
     3      2.7211652     23  2.300                                                                 
  local pseudopotential read in
  partial core-charges read in
  partial kinetic energy density read in
  atomic valenz-charges read in
  non local Contribution for L=           2  read in
    real space projection operators read in
  non local Contribution for L=           2  read in
    real space projection operators read in
  non local Contribution for L=           0  read in
    real space projection operators read in
  non local Contribution for L=           0  read in
    real space projection operators read in
  non local Contribution for L=           1  read in
    real space projection operators read in
  non local Contribution for L=           1  read in
    real space projection operators read in
    PAW grid and wavefunctions read in
 
   number of l-projection  operators is LMAX  =           6
   number of lm-projection operators is LMMAX =          18
 
 -----------------------------------------------------------------------------
|                                                                             |
|               ----> ADVICE to this user running VASP <----                  |
|                                                                             |
|     You have a (more or less) 'small supercell' and for smaller cells       |
|     it is recommended to use the reciprocal-space projection scheme!        |
|     The real-space optimization is not efficient for small cells and it     |
|     is also less accurate ...                                               |
|     Therefore, set LREAL=.FALSE. in the INCAR file.                         |
|                                                                             |
 -----------------------------------------------------------------------------

 Optimization of the real space projectors (new method)

 maximal supplied QI-value         = 16.25
 optimisation between [QCUT,QGAM] = [ 11.54, 23.24] = [ 37.28,151.24] Ry 
 Optimized for a Real-space Cutoff    1.53 Angstroem

   l    n(q)    QCUT    max X(q) W(low)/X(q) W(high)/X(q)  e(spline) 
   2     10    11.539     4.610    0.96E-04    0.13E-03    0.19E-06
   2     10    11.539     8.522    0.16E-03    0.21E-03    0.28E-06
   0     11    11.539    51.609    0.45E-04    0.31E-04    0.11E-06
   0     11    11.539    27.747    0.39E-04    0.29E-04    0.10E-06
   1     10    11.539    20.408    0.70E-05    0.38E-04    0.18E-06
   1     10    11.539    13.425    0.66E-05    0.34E-04    0.17E-06
  PAW_PBE Cu 22Jun2005                  :
 energy of atom  1       EATOM=-1390.9808
 kinetic energy error for atom=    0.0037 (will be added to EATOM!!)
 
 
 POSCAR: cu4
  positions in direct lattice
  velocities in cartesian coordinates

 METAGGA = R2SCAN                                      LMAXTAU =  6    LMIXTAU =  F

 exchange correlation table for  LEXCH =        8
   RHO(1)=    0.500       N(1)  =     2000
   RHO(2)=  100.500       N(2)  =     4000
 


--------------------------------------------------------------------------------------------------------


 ion  position               nearest neighbor table
   1  0.024  0.000  0.000-   2 2.24
   2  0.136  0.000  0.000-   1 2.24   3 2.34
   3  0.254  0.000  0.000-   4 2.24   2 2.34
   4  0.366  0.000  0.000-   3 2.24
 
  LATTYP: Found a simple cubic cell.
 ALAT       =    20.0000000000
  
  Lattice vectors:
  
 A1 = (  20.0000000000,   0.0000000000,   0.0000000000)
 A2 = (   0.0000000000,  20.0000000000,   0.0000000000)
 A3 = (   0.0000000000,   0.0000000000,  20.0000000000)


Analysis of symmetry for initial positions (statically):
=====================================================================
 Subroutine PRICEL returns:
 Original cell was already a primitive cell.
 

 Routine SETGRP: Setting up the symmetry group for a 
 simple cubic supercell.


 Subroutine GETGRP returns: Found 16 space group operations
 (whereof  8 operations were pure point group operations)
 out of a pool of 48 trial point group operations.


The static configuration has the point symmetry C_4v.
 The point group associated with its full space group is D_4h.


Analysis of symmetry for dynamics (positions and initial velocities):
=====================================================================
 Subroutine PRICEL returns:
 Original cell was already a primitive cell.
 

 Routine SETGRP: Setting up the symmetry group for a 
 simple cubic supercell.


 Subroutine GETGRP returns: Found 16 space group operations
 (whereof  8 operations were pure point group operations)
 out of a pool of 48 trial point group operations.


The dynamic configuration has the point symmetry C_4v.
 The point group associated with its full space group is D_4h.


 Subroutine INISYM returns: Found 16 space group operations
 (whereof  8 operations are pure point group operations),
 and found     1 'primitive' translations


----------------------------------------------------------------------------------------

                                     Primitive cell                                     

  volume of cell :    8000.0000

  direct lattice vectors                    reciprocal lattice vectors
    20.000000000  0.000000000  0.000000000     0.050000000  0.000000000  0.000000000
     0.000000000 20.000000000  0.000000000     0.000000000  0.050000000  0.000000000
     0.000000000  0.000000000 20.000000000     0.000000000  0.000000000  0.050000000

  length of vectors
    20.000000000 20.000000000 20.000000000     0.050000000  0.050000000  0.050000000

  position of ions in fractional coordinates (direct lattice)
     0.024434915  0.000000000  0.000000000
     0.136474713  0.000000000  0.000000000
     0.253525287  0.000000000  0.000000000
     0.365565085  0.000000000  0.000000000

  ion indices of the primitive-cell ions
   primitive index   ion index
                 1           1
                 2           2
                 3           3
                 4           4

----------------------------------------------------------------------------------------

 
 
 KPOINTS: KPOINTS created by Atomic Simulation Env

Automatic generation of k-mesh.
 Grid dimensions read from file:
 generate k-points for:    1    1    1

 Generating k-lattice:

  Cartesian coordinates                     Fractional coordinates (reciprocal lattice)
     0.050000000  0.000000000  0.000000000     1.000000000  0.000000000  0.000000000
     0.000000000  0.050000000  0.000000000     0.000000000  1.000000000  0.000000000
     0.000000000  0.000000000  0.050000000     0.000000000  0.000000000  1.000000000

  Length of vectors
     0.050000000  0.050000000  0.050000000

  Shift w.r.t. Gamma in fractional coordinates (k-lattice)
     0.000000000  0.000000000  0.000000000

 
 Subroutine IBZKPT returns following result:
 ===========================================
 
 Found      1 irreducible k-points:
 
 Following reciprocal coordinates:
            Coordinates               Weight
  0.000000  0.000000  0.000000      1.000000
 
 Following cartesian coordinates:
            Coordinates               Weight
  0.000000  0.000000  0.000000      1.000000
 


--------------------------------------------------------------------------------------------------------




 Dimension of arrays:
   k-points           NKPTS =      1   k-points in BZ     NKDIM =      1   number of bands    NBANDS=     64
   number of dos      NEDOS =    301   number of ions     NIONS =      4
   non local maximal  LDIM  =      6   non local SUM 2l+1 LMDIM =     18
   total plane-waves  NPLWV = ******
   max r-space proj   IRMAX =   6426   max aug-charges    IRDMAX=  12418
   dimension x,y,z NGX =   150 NGY =  150 NGZ =  150
   dimension x,y,z NGXF=   300 NGYF=  300 NGZF=  300
   support grid    NGXF=   300 NGYF=  300 NGZF=  300
   ions per type =               4
   NGX,Y,Z   is equivalent  to a cutoff of  12.47, 12.47, 12.47 a.u.
   NGXF,Y,Z  is equivalent  to a cutoff of  24.94, 24.94, 24.94 a.u.

 SYSTEM =  MgO-rocksalt                            
 POSCAR =  cu4                                     

 Startparameter for this run:
   NWRITE =      2    write-flag & timer
   PREC   = accura    normal or accurate (medium, high low for compatibility)
   ISTART =      0    job   : 0-new  1-cont  2-samecut
   ICHARG =      2    charge: 1-file 2-atom 10-const
   ISPIN  =      1    spin polarized calculation?
   LNONCOLLINEAR =      F non collinear calculations
   LSORBIT =      F    spin-orbit coupling
   INIWAV =      1    electr: 0-lowe 1-rand  2-diag
   LASPH  =      T    aspherical Exc in radial PAW
 Electronic Relaxation 1
   ENCUT  =  520.0 eV  38.22 Ry    6.18 a.u.  37.19 37.19 37.19*2*pi/ulx,y,z
   ENINI  =  520.0     initial cutoff
   ENAUG  =  587.0 eV  augmentation charge cutoff
   NELM   =    200;   NELMIN=  8; NELMDL= -5     # of ELM steps 
   EDIFF  = 0.1E-05   stopping-criterion for ELM
   LREAL  =      T    real-space projection
   NLSPLINE    = F    spline interpolate recip. space projectors
   LCOMPAT=      F    compatible to vasp.4.4
   GGA_COMPAT  = T    GGA compatible to vasp.4.4-vasp.4.6
   LMAXPAW     = -100 max onsite density
   LMAXMIX     =    2 max onsite mixed and CHGCAR
   VOSKOWN=      0    Vosko Wilk Nusair interpolation
   ROPT   =   -0.00025
 Ionic relaxation
   EDIFFG = 0.1E-04   stopping-criterion for IOM
   NSW    =      0    number of steps for IOM
   NBLOCK =      1;   KBLOCK =      1    inner block; outer block 
   IBRION =     -1    ionic relax: 0-MD 1-quasi-New 2-CG
   NFREE  =      0    steps in history (QN), initial steepest desc. (CG)
   ISIF   =      2    stress and relaxation
   IWAVPR =     10    prediction:  0-non 1-charg 2-wave 3-comb
   ISYM   =      2    0-nonsym 1-usesym 2-fastsym
   LCORR  =      T    Harris-Foulkes like correction to forces

   POTIM  = 0.5000    time-step for ionic-motion
   TEIN   =    0.0    initial temperature
   TEBEG  =    0.0;   TEEND  =   0.0 temperature during run
   SMASS  =  -3.00    Nose mass-parameter (am)
   estimated Nose-frequenzy (Omega)   =  0.10E-29 period in steps = 0.13E+47 mass=  -0.914E-26a.u.
   SCALEE = 1.0000    scale energy and forces
   NPACO  =    256;   APACO  = 10.0  distance and # of slots for P.C.
   PSTRESS=    0.0 pullay stress

  Mass of Ions in am
   POMASS =  63.55
  Ionic Valenz
   ZVAL   =  11.00
  Atomic Wigner-Seitz radii
   RWIGS  =  -1.00
  virtual crystal weights 
   VCA    =   1.00
   NELECT =      44.0000    total number of electrons
   NUPDOWN=      -1.0000    fix difference up-down

 DOS related values:
   EMIN   =  10.00;   EMAX   =-10.00  energy-range for DOS
   EFERMI =   0.00;   METHOD = LEGACY      
   ISMEAR =     0;   SIGMA  =   0.05  broadening in eV -4-tet -1-fermi 0-gaus

 Electronic relaxation 2 (details)
   IALGO  =     58    algorithm
   LDIAG  =      T    sub-space diagonalisation (order eigenvalues)
   LSUBROT=      F    optimize rotation matrix (better conditioning)
   TURBO    =      0    0=normal 1=particle mesh
   IRESTART =      0    0=no restart 2=restart with 2 vectors
   NREBOOT  =      0    no. of reboots
   NMIN     =      0    reboot dimension
   EREF     =   0.00    reference energy to select bands
   IMIX   =      4    mixing-type and parameters
     AMIX     =   0.40;   BMIX     =  1.00
     AMIX_MAG =   1.60;   BMIX_MAG =  1.00
     AMIN     =   0.10
     WC   =   100.;   INIMIX=   1;  MIXPRE=   1;  MAXMIX= -45

 Intra band minimization:
   WEIMIN = 0.0000     energy-eigenvalue tresh-hold
   EBREAK =  0.39E-08  absolut break condition
   DEPER  =   0.30     relativ break condition  

   TIME   =   0.40     timestep for ELM

  volume/ion in A,a.u.               =    2000.00     13496.67
  Fermi-wavevector in a.u.,A,eV,Ry     =   0.288976  0.546086  1.136187  0.083507
  Thomas-Fermi vector in A             =   1.146265
 
 Write flags
   LWAVE        =      F    write WAVECAR
   LDOWNSAMPLE  =      F    k-point downsampling of WAVECAR
   LCHARG       =      F    write CHGCAR
   LVTOT        =      F    write LOCPOT, total local potential
   LVHAR        =      F    write LOCPOT, Hartree potential only
   LELF         =      F    write electronic localiz. function (ELF)
   LORBIT       =      0    0 simple, 1 ext, 2 COOP (PROOUT), +10 PAW based schemes


 Dipole corrections
   LMONO  =      F    monopole corrections only (constant potential shift)
   LDIPOL =      F    correct potential (dipole corrections)
   IDIPOL =      0    1-x, 2-y, 3-z, 4-all directions 
   EPSILON=  1.0000000 bulk dielectric constant

 Exchange correlation treatment:
   GGA     =    --    GGA type
   LEXCH   =     8    internal setting for exchange type
   LIBXC   =     F    Libxc                    
   VOSKOWN =     0    Vosko Wilk Nusair interpolation
   LHFCALC =     F    Hartree Fock is set to
   LHFONE  =     F    Hartree Fock one center treatment
   AEXX    =    0.0000 exact exchange contribution

 vdW DFT:
   LUSE_VDW   =     T    switch on vdW DFT
   IVDW_NL    =     2    kernel type
   LSPIN_VDW  =     F    use spin-polarized vdW DFT
   Zab_VDW    =-.8491    correlation parameter
   PARAM1     =0.1234
   PARAM2     =1.0000
   PARAM3     =0.0000
   -- rVV10 --
   BPARAM     =11.9500
   CPARAM     = 0.0093

 Linear response parameters
   LEPSILON=     F    determine dielectric tensor
   LRPA    =     F    only Hartree local field effects (RPA)
   LNABLA  =     F    use nabla operator in PAW spheres
   LVEL    =     F    velocity operator in full k-point grid
   CSHIFT  =0.1000    complex shift for real part using Kramers Kronig
   OMEGAMAX=  -1.0    maximum frequency
   DEG_THRESHOLD= 0.2000000E-02 threshold for treating states as degnerate
   RTIME   =   -0.100 relaxation time in fs
  (WPLASMAI=    0.000 imaginary part of plasma frequency in eV, 0.658/RTIME)
   DFIELD  = 0.0000000 0.0000000 0.0000000 field for delta impulse in time
 
  Optional k-point grid parameters
   LKPOINTS_OPT  =     F    use optional k-point grid
   KPOINTS_OPT_MODE=     1    mode for optional k-point grid
 
 Orbital magnetization related:
   ORBITALMAG=     F  switch on orbital magnetization
   LCHIMAG   =     F  perturbation theory with respect to B field
   DQ        =  0.001000  dq finite difference perturbation B field
   LLRAUG    =     F  two centre corrections for induced B field
   LBONE     =     F  B-component reconstruction in AE one-centre
   LVGVCALC  =     T  calculate vGv susceptibility
   LVGVAPPL  =     F  apply vGv susceptibility instead of pGv for G=0

 Random number generation:
   RANDOM_GENERATOR = DEFAULT
   PCG_SEED         = not used


--------------------------------------------------------------------------------------------------------


 Static calculation
 charge density and potential will be updated during run
 non-spin polarized calculation
 Conjugate gradient for all bands (Freysoldt, et al. PRB 79, 241103 (2009))
 preconditioned conjugated gradient                                        
 perform sub-space diagonalisation
    before iterative eigenvector-optimisation
 modified Broyden-mixing scheme, WC =      100.0
 initial mixing is a Kerker type mixing with AMIX =  0.4000 and BMIX =      1.0000
 Hartree-type preconditioning will be used
 using additional bands           42
 real space projection scheme for non local part
 use partial core corrections
 no Harris-corrections to forces 
 use gradient corrections 
 use of overlap-Matrix (Vanderbilt PP)
 Gauss-broadening in eV      SIGMA  =   0.05


--------------------------------------------------------------------------------------------------------


  energy-cutoff  :      520.00
  volume of cell :     8000.00
      direct lattice vectors                 reciprocal lattice vectors
    20.000000000  0.000000000  0.000000000     0.050000000  0.000000000  0.000000000
     0.000000000 20.000000000  0.000000000     0.000000000  0.050000000  0.000000000
     0.000000000  0.000000000 20.000000000     0.000000000  0.000000000  0.050000000

  length of vectors
    20.000000000 20.000000000 20.000000000     0.050000000  0.050000000  0.050000000


 
 k-points in units of 2pi/SCALE and weight: KPOINTS created by Atomic Simulation Env
   0.00000000  0.00000000  0.00000000       1.000
 
 k-points in reciprocal lattice and weights: KPOINTS created by Atomic Simulation Env
   0.00000000  0.00000000  0.00000000       1.000
 
 position of ions in fractional coordinates (direct lattice) 
   0.02443492  0.00000000  0.00000000
   0.13647471  0.00000000  0.00000000
   0.25352529  0.00000000  0.00000000
   0.36556508  0.00000000  0.00000000
 
 position of ions in cartesian coordinates  (Angst):
   0.48869831  0.00000000  0.00000000
   2.72949426  0.00000000  0.00000000
   5.07050574  0.00000000  0.00000000
   7.31130169  0.00000000  0.00000000
 


--------------------------------------------------------------------------------------------------------


 k-point   1 :   0.0000 0.0000 0.0000  plane waves:  215503

 maximum and minimum number of plane-waves per node :    215503   215503

 maximum number of plane-waves:    215503
 maximum index in each direction: 
   IXMAX=   37   IYMAX=   37   IZMAX=   37
   IXMIN=  -37   IYMIN=  -37   IZMIN=  -37


 serial   3D FFT for wavefunctions
 parallel 3D FFT for charge:
    minimum data exchange during FFTs selected (reduces bandwidth)


 total amount of memory used by VASP MPI-rank0   342172. kBytes
=======================================================================

   base      :      30000. kBytes
   nonlr-proj:       4359. kBytes
   fftplans  :      28721. kBytes
   grid      :     268680. kBytes
   one-center:         62. kBytes
   wavefun   :      10350. kBytes
 
     INWAV:  cpu time      0.0004: real time      0.0005
 Broyden mixing: mesh for mixing (old mesh)
   NGX = 75   NGY = 75   NGZ = 75
  (NGX  =300   NGY  =300   NGZ  =300)
  gives a total of 421875 points

 initial charge density was supplied:
 charge density of overlapping atoms calculated
 number of electron      44.0000000 magnetization 
 keeping initial charge density in first step


--------------------------------------------------------------------------------------------------------


 Maximum index for non-local projection operator         6199
 Maximum index for augmentation-charges          465 (set IRDMAX)


--------------------------------------------------------------------------------------------------------


 First call to EWALD:  gamma=   0.089
 Maximum number of real-space cells 3x 3x 3
 Maximum number of reciprocal cells 3x 3x 3

    FEWALD:  cpu time      0.0065: real time      0.0075


--------------------------------------- Ionic step        1  -------------------------------------------




--------------------------------------- Iteration      1(   1)  ---------------------------------------


    POTLOK:  cpu time     46.0487: real time     46.0831
    SETDIJ:  cpu time      3.6901: real time      3.6924
    TRIAL :  cpu time      4.5181: real time      4.5748
    CORREC:  cpu time      0.0096: real time      0.0096
    --------------------------------------------
      LOOP:  cpu time     54.2718: real time     54.3660

 eigenvalue-minimisations  :   128
 total energy-change (2. order) : 0.2148994E+03  (-0.8630637E+03)
 number of electron      44.0000000 magnetization 
 augmentation part       44.0000000 magnetization 

 Free energy of the ion-electron system (eV)
  ---------------------------------------------------
  alpha Z        PSCENC =         1.46265607
  Ewald energy   TEWEN  =      1390.82523293
  -Hartree energ DENC   =     -6473.56566791
  -exchange      EXHF   =         0.00000000
  -V(xc)+E(xc)   XCENC  =       217.56584490
  PAW double counting   =      4870.69530990    -5337.13802065
  entropy T*S    EENTRO =        -0.06313284
  eigenvalues    EBANDS =       -18.79107936
  atomic energy  EATOM  =      5563.90821598
  ---------------------------------------------------
  free energy    TOTEN  =       214.89935902 eV

  energy without entropy =      214.96249186  energy(sigma->0) =      214.93092544


--------------------------------------------------------------------------------------------------------




--------------------------------------- Iteration      1(   2)  ---------------------------------------


    TRIAL :  cpu time      4.3255: real time      4.3301
    CORREC:  cpu time      0.0004: real time      0.0004
    --------------------------------------------
      LOOP:  cpu time      4.3289: real time      4.3369

 eigenvalue-minimisations  :   128
 total energy-change (2. order) :-0.2354379E+03  (-0.2349379E+03)
 number of electron      44.0000000 magnetization 
 augmentation part       44.0000000 magnetization 

 Free energy of the ion-electron system (eV)
  ---------------------------------------------------
  alpha Z        PSCENC =         1.46265607
  Ewald energy   TEWEN  =      1390.82523293
  -Hartree energ DENC   =     -6473.56566791
  -exchange      EXHF   =         0.00000000
  -V(xc)+E(xc)   XCENC  =       217.56584490
  PAW double counting   =      4870.69530990    -5337.13802065
  entropy T*S    EENTRO =        -0.00000000
  eigenvalues    EBANDS =      -254.29210089
  atomic energy  EATOM  =      5563.90821598
  ---------------------------------------------------
  free energy    TOTEN  =       -20.53852967 eV

  energy without entropy =      -20.53852967  energy(sigma->0) =      -20.53852967


--------------------------------------------------------------------------------------------------------




--------------------------------------- Iteration      1(   3)  ---------------------------------------


    TRIAL :  cpu time      4.2993: real time      4.3020
    CORREC:  cpu time      0.0010: real time      0.0010
    --------------------------------------------
      LOOP:  cpu time      4.3025: real time      4.3087

 eigenvalue-minimisations  :   128
 total energy-change (2. order) :-0.1872441E+02  (-0.1872441E+02)
 number of electron      44.0000000 magnetization 
 augmentation part       44.0000000 magnetization 

 Free energy of the ion-electron system (eV)
  ---------------------------------------------------
  alpha Z        PSCENC =         1.46265607
  Ewald energy   TEWEN  =      1390.82523293
  -Hartree energ DENC   =     -6473.56566791
  -exchange      EXHF   =         0.00000000
  -V(xc)+E(xc)   XCENC  =       217.56584490
  PAW double counting   =      4870.69530990    -5337.13802065
  entropy T*S    EENTRO =        -0.00000036
  eigenvalues    EBANDS =      -273.01650831
  atomic energy  EATOM  =      5563.90821598
  ---------------------------------------------------
  free energy    TOTEN  =       -39.26293745 eV

  energy without entropy =      -39.26293709  energy(sigma->0) =      -39.26293727


--------------------------------------------------------------------------------------------------------




--------------------------------------- Iteration      1(   4)  ---------------------------------------


    TRIAL :  cpu time      6.9225: real time      6.9279
    CORREC:  cpu time      0.0009: real time      0.0009
    --------------------------------------------
      LOOP:  cpu time      6.9286: real time      6.9342

 eigenvalue-minimisations  :   256
 total energy-change (2. order) :-0.7548211E+00  (-0.7548211E+00)
 number of electron      44.0000000 magnetization 
 augmentation part       44.0000000 magnetization 

 Free energy of the ion-electron system (eV)
  ---------------------------------------------------
  alpha Z        PSCENC =         1.46265607
  Ewald energy   TEWEN  =      1390.82523293
  -Hartree energ DENC   =     -6473.56566791
  -exchange      EXHF   =         0.00000000
  -V(xc)+E(xc)   XCENC  =       217.56584490
  PAW double counting   =      4870.69530990    -5337.13802065
  entropy T*S    EENTRO =        -0.00000006
  eigenvalues    EBANDS =      -273.77132969
  atomic energy  EATOM  =      5563.90821598
  ---------------------------------------------------
  free energy    TOTEN  =       -40.01775853 eV

  energy without entropy =      -40.01775847  energy(sigma->0) =      -40.01775850


--------------------------------------------------------------------------------------------------------




--------------------------------------- Iteration      1(   5)  ---------------------------------------


    TRIAL :  cpu time      4.2918: real time      4.2947
    CORREC:  cpu time      0.0008: real time      0.0008
    CHARGE:  cpu time     13.2082: real time     13.2167
    --------------------------------------------
      LOOP:  cpu time     17.5034: real time     17.5185

 eigenvalue-minimisations  :   128
 total energy-change (2. order) :-0.5356192E-04  (-0.5356109E-04)
 number of electron      44.0000070 magnetization 
 augmentation part       27.8660271 magnetization 

 Free energy of the ion-electron system (eV)
  ---------------------------------------------------
  alpha Z        PSCENC =         1.46265607
  Ewald energy   TEWEN  =      1390.82523293
  -Hartree energ DENC   =     -6473.56566791
  -exchange      EXHF   =         0.00000000
  -V(xc)+E(xc)   XCENC  =       217.56584490
  PAW double counting   =      4870.69530990    -5337.13802065
  entropy T*S    EENTRO =        -0.00000006
  eigenvalues    EBANDS =      -273.77138325
  atomic energy  EATOM  =      5563.90821598
  ---------------------------------------------------
  free energy    TOTEN  =       -40.01781209 eV

  energy without entropy =      -40.01781203  energy(sigma->0) =      -40.01781206


--------------------------------------------------------------------------------------------------------




--------------------------------------- Iteration      1(   6)  ---------------------------------------


    POTLOK:  cpu time     45.7806: real time     45.8072
    SETDIJ:  cpu time      3.3279: real time      3.3295
    TRIAL :  cpu time      4.1513: real time      4.2074
    CORREC:  cpu time     63.7247: real time     63.7615
    CHARGE:  cpu time     13.0792: real time     13.0873
    --------------------------------------------
      LOOP:  cpu time    130.0663: real time    130.1996

 eigenvalue-minimisations  :     0
 total energy-change (2. order) : 0.1119361E+02  (-0.1880261E+01)
 number of electron      44.0000072 magnetization 
 augmentation part       28.6333986 magnetization 

 Free energy of the ion-electron system (eV)
  ---------------------------------------------------
  alpha Z        PSCENC =         1.46265607
  Ewald energy   TEWEN  =      1390.82523293
  -Hartree energ DENC   =     -6421.51837061
  -exchange      EXHF   =         0.00000000
  -V(xc)+E(xc)   XCENC  =       215.14807013
  PAW double counting   =      5098.35273529    -5546.37041356
  entropy T*S    EENTRO =        -0.00000000
  eigenvalues    EBANDS =      -330.63232643
  atomic energy  EATOM  =      5563.90821598
  ---------------------------------------------------
  free energy    TOTEN  =       -28.82420024 eV

  energy without entropy =      -28.82420024  energy(sigma->0) =      -28.82420024


--------------------------------------------------------------------------------------------------------




--------------------------------------- Iteration      1(   7)  ---------------------------------------


    POTLOK:  cpu time     45.8548: real time     45.8827
    SETDIJ:  cpu time      3.5942: real time      3.5964
    TRIAL :  cpu time      3.9967: real time      3.9998
    CORREC:  cpu time     63.6406: real time     63.6800
    CHARGE:  cpu time     13.0860: real time     13.0937
    --------------------------------------------
      LOOP:  cpu time    130.1760: real time    130.2603

 eigenvalue-minimisations  :     0
 total energy-change (2. order) :-0.1758750E+01  (-0.3377039E+00)
 number of electron      44.0000071 magnetization 
 augmentation part       28.5135084 magnetization 

 Free energy of the ion-electron system (eV)
  ---------------------------------------------------
  alpha Z        PSCENC =         1.46265607
  Ewald energy   TEWEN  =      1390.82523293
  -Hartree energ DENC   =     -6517.62298305
  -exchange      EXHF   =         0.00000000
  -V(xc)+E(xc)   XCENC  =       219.58373997
  PAW double counting   =      5153.32617855    -5630.36016797
  entropy T*S    EENTRO =        -0.00000000
  eigenvalues    EBANDS =      -211.70582305
  atomic energy  EATOM  =      5563.90821598
  ---------------------------------------------------
  free energy    TOTEN  =       -30.58295056 eV

  energy without entropy =      -30.58295056  energy(sigma->0) =      -30.58295056


--------------------------------------------------------------------------------------------------------




--------------------------------------- Iteration      1(   8)  ---------------------------------------


    POTLOK:  cpu time     45.8554: real time     45.8833
    SETDIJ:  cpu time      3.5900: real time      3.5922
    TRIAL :  cpu time      3.9955: real time      3.9982
    CORREC:  cpu time     63.6078: real time     63.6451
    CHARGE:  cpu time     13.0858: real time     13.0944
    --------------------------------------------
      LOOP:  cpu time    130.1370: real time    130.2194

 eigenvalue-minimisations  :     0
 total energy-change (2. order) :-0.3345130E+00  (-0.6631731E-01)
 number of electron      44.0000072 magnetization 
 augmentation part       28.6386141 magnetization 

 Free energy of the ion-electron system (eV)
  ---------------------------------------------------
  alpha Z        PSCENC =         1.46265607
  Ewald energy   TEWEN  =      1390.82523293
  -Hartree energ DENC   =     -6481.09272139
  -exchange      EXHF   =         0.00000000
  -V(xc)+E(xc)   XCENC  =       218.48828582
  PAW double counting   =      5120.38275778    -5590.90304639
  entropy T*S    EENTRO =        -0.00000000
  eigenvalues    EBANDS =      -253.98884437
  atomic energy  EATOM  =      5563.90821598
  ---------------------------------------------------
  free energy    TOTEN  =       -30.91746356 eV

  energy without entropy =      -30.91746356  energy(sigma->0) =      -30.91746356


--------------------------------------------------------------------------------------------------------




--------------------------------------- Iteration      1(   9)  ---------------------------------------


    POTLOK:  cpu time     45.8891: real time     45.9174
    SETDIJ:  cpu time      3.5754: real time      3.5776
    TRIAL :  cpu time      3.9931: real time      3.9954
    CORREC:  cpu time     63.5497: real time     63.5897
    CHARGE:  cpu time     13.0705: real time     13.0793
    --------------------------------------------
      LOOP:  cpu time    130.0841: real time    130.1659

 eigenvalue-minimisations  :     0
 total energy-change (2. order) :-0.6561924E-01  (-0.4287968E-01)
 number of electron      44.0000072 magnetization 
 augmentation part       28.6119371 magnetization 

 Free energy of the ion-electron system (eV)
  ---------------------------------------------------
  alpha Z        PSCENC =         1.46265607
  Ewald energy   TEWEN  =      1390.82523293
  -Hartree energ DENC   =     -6494.31654491
  -exchange      EXHF   =         0.00000000
  -V(xc)+E(xc)   XCENC  =       219.19852646
  PAW double counting   =      5127.12030733    -5602.07122429
  entropy T*S    EENTRO =        -0.00000000
  eigenvalues    EBANDS =      -237.11025238
  atomic energy  EATOM  =      5563.90821598
  ---------------------------------------------------
  free energy    TOTEN  =       -30.98308281 eV

  energy without entropy =      -30.98308281  energy(sigma->0) =      -30.98308281


--------------------------------------------------------------------------------------------------------




--------------------------------------- Iteration      1(  10)  ---------------------------------------


    POTLOK:  cpu time     45.8937: real time     45.9222
    SETDIJ:  cpu time      3.5720: real time      3.5742
    TRIAL :  cpu time      3.9991: real time      4.0014
    CORREC:  cpu time     63.5389: real time     63.5783
    CHARGE:  cpu time     13.0017: real time     13.0097
    --------------------------------------------
      LOOP:  cpu time    130.0103: real time    130.0946

 eigenvalue-minimisations  :     0
 total energy-change (2. order) :-0.4311930E-01  (-0.8601166E-02)
 number of electron      44.0000072 magnetization 
 augmentation part       28.6288208 magnetization 

 Free energy of the ion-electron system (eV)
  ---------------------------------------------------
  alpha Z        PSCENC =         1.46265607
  Ewald energy   TEWEN  =      1390.82523293
  -Hartree energ DENC   =     -6491.87394474
  -exchange      EXHF   =         0.00000000
  -V(xc)+E(xc)   XCENC  =       219.08628113
  PAW double counting   =      5125.73258910    -5599.07750617
  entropy T*S    EENTRO =        -0.00000000
  eigenvalues    EBANDS =      -241.08972640
  atomic energy  EATOM  =      5563.90821598
  ---------------------------------------------------
  free energy    TOTEN  =       -31.02620210 eV

  energy without entropy =      -31.02620210  energy(sigma->0) =      -31.02620210


--------------------------------------------------------------------------------------------------------




--------------------------------------- Iteration      1(  11)  ---------------------------------------


    POTLOK:  cpu time     45.7713: real time     45.7993
    SETDIJ:  cpu time      3.5749: real time      3.5768
    TRIAL :  cpu time      4.0049: real time      4.0078
    CORREC:  cpu time     63.3020: real time     63.3413
    CHARGE:  cpu time     13.0029: real time     13.0116
    --------------------------------------------
      LOOP:  cpu time    129.6590: real time    129.7437

 eigenvalue-minimisations  :     0
 total energy-change (2. order) :-0.8562849E-02  (-0.7923171E-02)
 number of electron      44.0000072 magnetization 
 augmentation part       28.6334622 magnetization 

 Free energy of the ion-electron system (eV)
  ---------------------------------------------------
  alpha Z        PSCENC =         1.46265607
  Ewald energy   TEWEN  =      1390.82523293
  -Hartree energ DENC   =     -6493.93423741
  -exchange      EXHF   =         0.00000000
  -V(xc)+E(xc)   XCENC  =       219.18932076
  PAW double counting   =      5126.12069589    -5599.93449424
  entropy T*S    EENTRO =        -0.00000000
  eigenvalues    EBANDS =      -238.67215494
  atomic energy  EATOM  =      5563.90821598
  ---------------------------------------------------
  free energy    TOTEN  =       -31.03476495 eV

  energy without entropy =      -31.03476495  energy(sigma->0) =      -31.03476495


--------------------------------------------------------------------------------------------------------




--------------------------------------- Iteration      1(  12)  ---------------------------------------


    POTLOK:  cpu time     45.6823: real time     45.7094
    SETDIJ:  cpu time      3.5631: real time      3.5652
    TRIAL :  cpu time      3.9824: real time      3.9853
    CORREC:  cpu time     63.3153: real time     63.3547
    CHARGE:  cpu time     12.9442: real time     12.9528
    --------------------------------------------
      LOOP:  cpu time    129.4923: real time    129.5762

 eigenvalue-minimisations  :     0
 total energy-change (2. order) :-0.7925063E-02  (-0.1665127E-02)
 number of electron      44.0000072 magnetization 
 augmentation part       28.6251476 magnetization 

 Free energy of the ion-electron system (eV)
  ---------------------------------------------------
  alpha Z        PSCENC =         1.46265607
  Ewald energy   TEWEN  =      1390.82523293
  -Hartree energ DENC   =     -6493.99658542
  -exchange      EXHF   =         0.00000000
  -V(xc)+E(xc)   XCENC  =       219.19379285
  PAW double counting   =      5123.84849499    -5597.58685422
  entropy T*S    EENTRO =        -0.00000000
  eigenvalues    EBANDS =      -238.69764321
  atomic energy  EATOM  =      5563.90821598
  ---------------------------------------------------
  free energy    TOTEN  =       -31.04269001 eV

  energy without entropy =      -31.04269001  energy(sigma->0) =      -31.04269001


--------------------------------------------------------------------------------------------------------




--------------------------------------- Iteration      1(  13)  ---------------------------------------


    POTLOK:  cpu time     45.6735: real time     45.7011
    SETDIJ:  cpu time      3.5751: real time      3.5773
    TRIAL :  cpu time      3.9949: real time      3.9978
    CORREC:  cpu time     63.3075: real time     63.3439
    CHARGE:  cpu time     13.0383: real time     13.0467
    --------------------------------------------
      LOOP:  cpu time    129.5924: real time    129.6737

 eigenvalue-minimisations  :     0
 total energy-change (2. order) :-0.1665202E-02  (-0.1486094E-02)
 number of electron      44.0000072 magnetization 
 augmentation part       28.6351958 magnetization 

 Free energy of the ion-electron system (eV)
  ---------------------------------------------------
  alpha Z        PSCENC =         1.46265607
  Ewald energy   TEWEN  =      1390.82523293
  -Hartree energ DENC   =     -6492.42794478
  -exchange      EXHF   =         0.00000000
  -V(xc)+E(xc)   XCENC  =       219.13382778
  PAW double counting   =      5122.67536176    -5596.03564376
  entropy T*S    EENTRO =        -0.00000000
  eigenvalues    EBANDS =      -240.58606121
  atomic energy  EATOM  =      5563.90821598
  ---------------------------------------------------
  free energy    TOTEN  =       -31.04435522 eV

  energy without entropy =      -31.04435522  energy(sigma->0) =      -31.04435522


--------------------------------------------------------------------------------------------------------




--------------------------------------- Iteration      1(  14)  ---------------------------------------


    POTLOK:  cpu time     45.6978: real time     45.7250
    SETDIJ:  cpu time      3.5886: real time      3.5908
    TRIAL :  cpu time      3.9966: real time      3.9986
    CORREC:  cpu time     63.3535: real time     63.3920
    CHARGE:  cpu time     13.0194: real time     13.0272
    --------------------------------------------
      LOOP:  cpu time    129.6595: real time    129.7414

 eigenvalue-minimisations  :     0
 total energy-change (2. order) :-0.1488347E-02  (-0.2741518E-03)
 number of electron      44.0000072 magnetization 
 augmentation part       28.6300895 magnetization 

 Free energy of the ion-electron system (eV)
  ---------------------------------------------------
  alpha Z        PSCENC =         1.46265607
  Ewald energy   TEWEN  =      1390.82523293
  -Hartree energ DENC   =     -6493.44847440
  -exchange      EXHF   =         0.00000000
  -V(xc)+E(xc)   XCENC  =       219.18237594
  PAW double counting   =      5123.35593113    -5597.06324115
  entropy T*S    EENTRO =        -0.00000000
  eigenvalues    EBANDS =      -239.26854007
  atomic energy  EATOM  =      5563.90821598
  ---------------------------------------------------
  free energy    TOTEN  =       -31.04584356 eV

  energy without entropy =      -31.04584356  energy(sigma->0) =      -31.04584356


--------------------------------------------------------------------------------------------------------




--------------------------------------- Iteration      1(  15)  ---------------------------------------


    POTLOK:  cpu time     45.6921: real time     45.7198
    SETDIJ:  cpu time      3.5614: real time      3.5635
    TRIAL :  cpu time      3.9981: real time      4.0001
    CORREC:  cpu time     63.3425: real time     63.3798
    CHARGE:  cpu time     13.0139: real time     13.0214
    --------------------------------------------
      LOOP:  cpu time    129.6148: real time    129.6914

 eigenvalue-minimisations  :     0
 total energy-change (2. order) :-0.2737533E-03  (-0.1687954E-03)
 number of electron      44.0000072 magnetization 
 augmentation part       28.6352056 magnetization 

 Free energy of the ion-electron system (eV)
  ---------------------------------------------------
  alpha Z        PSCENC =         1.46265607
  Ewald energy   TEWEN  =      1390.82523293
  -Hartree energ DENC   =     -6492.69437116
  -exchange      EXHF   =         0.00000000
  -V(xc)+E(xc)   XCENC  =       219.14774933
  PAW double counting   =      5123.15127334    -5596.63308288
  entropy T*S    EENTRO =        -0.00000000
  eigenvalues    EBANDS =      -240.21379093
  atomic energy  EATOM  =      5563.90821598
  ---------------------------------------------------
  free energy    TOTEN  =       -31.04611732 eV

  energy without entropy =      -31.04611732  energy(sigma->0) =      -31.04611732


--------------------------------------------------------------------------------------------------------




--------------------------------------- Iteration      1(  16)  ---------------------------------------


    POTLOK:  cpu time     45.7114: real time     45.7393
    SETDIJ:  cpu time      3.5814: real time      3.5836
    TRIAL :  cpu time      4.0025: real time      4.0056
    CORREC:  cpu time     63.3627: real time     63.4014
    CHARGE:  cpu time     12.9679: real time     12.9754
    --------------------------------------------
      LOOP:  cpu time    129.6289: real time    129.7120

 eigenvalue-minimisations  :     0
 total energy-change (2. order) :-0.1712993E-03  (-0.3950724E-04)
 number of electron      44.0000072 magnetization 
 augmentation part       28.6329688 magnetization 

 Free energy of the ion-electron system (eV)
  ---------------------------------------------------
  alpha Z        PSCENC =         1.46265607
  Ewald energy   TEWEN  =      1390.82523293
  -Hartree energ DENC   =     -6493.39536328
  -exchange      EXHF   =         0.00000000
  -V(xc)+E(xc)   XCENC  =       219.17610689
  PAW double counting   =      5123.88762494    -5597.54697865
  entropy T*S    EENTRO =        -0.00000000
  eigenvalues    EBANDS =      -239.36378350
  atomic energy  EATOM  =      5563.90821598
  ---------------------------------------------------
  free energy    TOTEN  =       -31.04628862 eV

  energy without entropy =      -31.04628862  energy(sigma->0) =      -31.04628862


--------------------------------------------------------------------------------------------------------




--------------------------------------- Iteration      1(  17)  ---------------------------------------


    POTLOK:  cpu time     45.6869: real time     45.7145
    SETDIJ:  cpu time      3.5805: real time      3.5827
    TRIAL :  cpu time      3.9949: real time      3.9978
    CORREC:  cpu time     63.3374: real time     63.3753
    CHARGE:  cpu time     13.0017: real time     13.0103
    --------------------------------------------
      LOOP:  cpu time    129.6050: real time    129.6880

 eigenvalue-minimisations  :     0
 total energy-change (2. order) :-0.3853839E-04  (-0.2315033E-04)
 number of electron      44.0000072 magnetization 
 augmentation part       28.6351666 magnetization 

 Free energy of the ion-electron system (eV)
  ---------------------------------------------------
  alpha Z        PSCENC =         1.46265607
  Ewald energy   TEWEN  =      1390.82523293
  -Hartree energ DENC   =     -6493.05934343
  -exchange      EXHF   =         0.00000000
  -V(xc)+E(xc)   XCENC  =       219.16199102
  PAW double counting   =      5123.91302445    -5597.47472630
  entropy T*S    EENTRO =        -0.00000000
  eigenvalues    EBANDS =      -239.78337788
  atomic energy  EATOM  =      5563.90821598
  ---------------------------------------------------
  free energy    TOTEN  =       -31.04632715 eV

  energy without entropy =      -31.04632715  energy(sigma->0) =      -31.04632715


--------------------------------------------------------------------------------------------------------




--------------------------------------- Iteration      1(  18)  ---------------------------------------


    POTLOK:  cpu time     45.6809: real time     45.7079
    SETDIJ:  cpu time      3.5782: real time      3.5803
    TRIAL :  cpu time      3.9950: real time      3.9978
    CORREC:  cpu time     63.3585: real time     63.3956
    CHARGE:  cpu time     12.9538: real time     12.9625
    --------------------------------------------
      LOOP:  cpu time    129.5722: real time    129.6541

 eigenvalue-minimisations  :     0
 total energy-change (2. order) :-0.2221926E-04  (-0.6506426E-05)
 number of electron      44.0000072 magnetization 
 augmentation part       28.6342854 magnetization 

 Free energy of the ion-electron system (eV)
  ---------------------------------------------------
  alpha Z        PSCENC =         1.46265607
  Ewald energy   TEWEN  =      1390.82523293
  -Hartree energ DENC   =     -6493.35310496
  -exchange      EXHF   =         0.00000000
  -V(xc)+E(xc)   XCENC  =       219.17519889
  PAW double counting   =      5124.32174641    -5597.96280096
  entropy T*S    EENTRO =        -0.00000000
  eigenvalues    EBANDS =      -239.42349375
  atomic energy  EATOM  =      5563.90821598
  ---------------------------------------------------
  free energy    TOTEN  =       -31.04634937 eV

  energy without entropy =      -31.04634937  energy(sigma->0) =      -31.04634937


--------------------------------------------------------------------------------------------------------




--------------------------------------- Iteration      1(  19)  ---------------------------------------


    POTLOK:  cpu time     45.7759: real time     45.8031
    SETDIJ:  cpu time      3.5938: real time      3.5960
    TRIAL :  cpu time      3.9904: real time      3.9925
    CORREC:  cpu time     63.3068: real time     63.3458
    CHARGE:  cpu time     12.9856: real time     12.9932
    --------------------------------------------
      LOOP:  cpu time    129.6583: real time    129.7402

 eigenvalue-minimisations  :     0
 total energy-change (2. order) :-0.6539572E-05  (-0.4738318E-05)
 number of electron      44.0000072 magnetization 
 augmentation part       28.6342117 magnetization 

 Free energy of the ion-electron system (eV)
  ---------------------------------------------------
  alpha Z        PSCENC =         1.46265607
  Ewald energy   TEWEN  =      1390.82523293
  -Hartree energ DENC   =     -6493.22400621
  -exchange      EXHF   =         0.00000000
  -V(xc)+E(xc)   XCENC  =       219.16982142
  PAW double counting   =      5124.34941885    -5597.95395082
  entropy T*S    EENTRO =        -0.00000000
  eigenvalues    EBANDS =      -239.58374413
  atomic energy  EATOM  =      5563.90821598
  ---------------------------------------------------
  free energy    TOTEN  =       -31.04635591 eV

  energy without entropy =      -31.04635591  energy(sigma->0) =      -31.04635591


--------------------------------------------------------------------------------------------------------




--------------------------------------- Iteration      1(  20)  ---------------------------------------


    POTLOK:  cpu time     45.7060: real time     45.7332
    SETDIJ:  cpu time      3.5860: real time      3.5882
    TRIAL :  cpu time      4.0049: real time      4.0070
    CORREC:  cpu time     63.3242: real time     63.3603
    CHARGE:  cpu time     12.9629: real time     12.9707
    --------------------------------------------
      LOOP:  cpu time    129.5870: real time    129.6659

 eigenvalue-minimisations  :     0
 total energy-change (2. order) :-0.4482823E-05  (-0.5573615E-06)
 number of electron      44.0000072 magnetization 
 augmentation part       28.6344078 magnetization 

 Free energy of the ion-electron system (eV)
  ---------------------------------------------------
  alpha Z        PSCENC =         1.46265607
  Ewald energy   TEWEN  =      1390.82523293
  -Hartree energ DENC   =     -6493.21126396
  -exchange      EXHF   =         0.00000000
  -V(xc)+E(xc)   XCENC  =       219.16905034
  PAW double counting   =      5124.36710274    -5597.96921248
  entropy T*S    EENTRO =        -0.00000000
  eigenvalues    EBANDS =      -239.59814203
  atomic energy  EATOM  =      5563.90821598
  ---------------------------------------------------
  free energy    TOTEN  =       -31.04636040 eV

  energy without entropy =      -31.04636040  energy(sigma->0) =      -31.04636040


--------------------------------------------------------------------------------------------------------




--------------------------------------- Iteration      1(  21)  ---------------------------------------


    POTLOK:  cpu time     45.7696: real time     45.7967
    SETDIJ:  cpu time      3.5786: real time      3.5808
    TRIAL :  cpu time      3.9932: real time      3.9963
    CORREC:  cpu time     63.4221: real time     63.4598
    EDDIAG:  cpu time      1.0561: real time      1.0566
    CHARGE:  cpu time     12.9788: real time     12.9869
    --------------------------------------------
      LOOP:  cpu time    130.8017: real time    130.8847

 eigenvalue-minimisations  :     0
 total energy-change (2. order) :-0.3811510E-06  (-0.6643311E-06)
 number of electron      44.0000072 magnetization 
 augmentation part       28.6344770 magnetization 

 Free energy of the ion-electron system (eV)
  ---------------------------------------------------
  alpha Z        PSCENC =         1.46265607
  Ewald energy   TEWEN  =      1390.82523293
  -Hartree energ DENC   =     -6493.23208886
  -exchange      EXHF   =         0.00000000
  -V(xc)+E(xc)   XCENC  =       219.17010998
  PAW double counting   =      5124.37548773    -5597.98557236
  entropy T*S    EENTRO =        -0.00000000
  eigenvalues    EBANDS =      -239.57040225
  atomic energy  EATOM  =      5563.90821598
  ---------------------------------------------------
  free energy    TOTEN  =       -31.04636078 eV

  energy without entropy =      -31.04636078  energy(sigma->0) =      -31.04636078


--------------------------------------------------------------------------------------------------------


  average scaling for gradient   1.0121


 average (electrostatic) potential at core
  the test charge radii are     0.9430
  (the norm of the test charge is              1.0000)
       1 -79.2665       2 -79.2054       3 -79.2054       4 -79.2665
 
 
 
 E-fermi :  -4.4395     XC(G=0):  -0.1709     alpha+bet : -0.0793

 Fermi energy:        -4.4395051726

 k-point     1 :       0.0000    0.0000    0.0000
  band No.  band energies     occupation 
      1      -7.4733      2.00000
      2      -6.3663      2.00000
      3      -6.1042      2.00000
      4      -6.1042      2.00000
      5      -5.7841      2.00000
      6      -5.7841      2.00000
      7      -5.5511      2.00000
      8      -5.3867      2.00000
      9      -5.3855      2.00000
     10      -5.3308      2.00000
     11      -5.3295      2.00000
     12      -5.1881      2.00000
     13      -5.1726      2.00000
     14      -5.1726      2.00000
     15      -5.1596      2.00000
     16      -5.1582      2.00000
     17      -5.1519      2.00000
     18      -5.0376      2.00000
     19      -5.0361      2.00000
     20      -4.7052      2.00000
     21      -4.7011      2.00000
     22      -4.7011      2.00000
     23      -3.9273      0.00000
     24      -1.7073      0.00000
     25      -1.3841      0.00000
     26      -1.3841      0.00000
     27      -0.5283      0.00000
     28      -0.5283      0.00000
     29      -0.3636      0.00000
     30       0.1471      0.00000
     31       0.4710      0.00000
     32       0.4710      0.00000
     33       0.4827      0.00000
     34       0.4870      0.00000
     35       0.4977      0.00000
     36       0.5722      0.00000
     37       0.7458      0.00000
     38       0.7458      0.00000
     39       0.8223      0.00000
     40       0.8559      0.00000
     41       0.8565      0.00000
     42       0.8629      0.00000
     43       0.9018      0.00000
     44       0.9018      0.00000
     45       0.9199      0.00000
     46       0.9254      0.00000
     47       0.9254      0.00000
     48       0.9809      0.00000
     49       1.0650      0.00000
     50       1.0650      0.00000
     51       1.1934      0.00000
     52       1.2020      0.00000
     53       1.2787      0.00000
     54       1.2787      0.00000
     55       1.2816      0.00000
     56       1.2966      0.00000
     57       1.2966      0.00000
     58       1.3093      0.00000
     59       1.4900      0.00000
     60       1.5836      0.00000
     61       1.6189      0.00000
     62       1.6665      0.00000
     63       1.6693      0.00000
     64       1.8093      0.00000


--------------------------------------------------------------------------------------------------------


 soft charge-density along one line, spin component           1
         0         1         2         3         4         5         6         7         8         9
 total charge-density along one line
 
 pseudopotential strength for first ion, spin component:           1
-10.321  -0.000  -0.000   0.000   0.000   0.763   0.000   0.000
 -0.000 -10.261  -0.000  -0.000  -0.000   0.000   0.714   0.000
 -0.000  -0.000 -10.282  -0.000   0.038   0.000   0.000   0.730
  0.000  -0.000  -0.000 -10.321  -0.000  -0.000   0.000   0.000
  0.000  -0.000   0.038  -0.000 -10.326   0.000  -0.000  -0.030
  0.763   0.000   0.000  -0.000   0.000   6.702  -0.000  -0.000
  0.000   0.714   0.000   0.000  -0.000  -0.000   6.741  -0.000
  0.000   0.000   0.730   0.000  -0.030  -0.000  -0.000   6.728
 -0.000   0.000   0.000   0.763   0.000   0.000  -0.000  -0.000
  0.000  -0.000  -0.030   0.000   0.765  -0.000   0.000   0.021
 -0.000   0.000  -0.008   0.000   0.014   0.000  -0.000   0.001
 -0.000   0.000  -0.015   0.000   0.026   0.000  -0.000   0.000
 -0.027   0.000   0.000  -0.000   0.000  -0.002  -0.000   0.000
 -0.000   0.000   0.000  -0.027  -0.000  -0.000   0.000  -0.000
  0.000  -0.000   0.018   0.000  -0.031  -0.000  -0.000  -0.006
 -0.028   0.000  -0.000  -0.000   0.000  -0.008   0.000   0.000
 -0.000  -0.000   0.000  -0.028   0.000  -0.000   0.000   0.000
  0.000  -0.000   0.021   0.000  -0.036  -0.000  -0.000  -0.005
 total augmentation occupancy for first ion, spin component:           1
  1.980  -0.000   0.000   0.000   0.000  -0.007   0.000  -0.000   0.000   0.000   0.000  -0.000   0.059   0.000  -0.000  -0.045
 -0.000   1.992   0.000   0.000   0.000   0.000  -0.020   0.000   0.000   0.000   0.000   0.000   0.000  -0.000   0.000   0.000
  0.000   0.000   1.989  -0.000   0.004   0.000   0.000  -0.012  -0.000  -0.013   0.018   0.003  -0.000  -0.000  -0.062   0.000
  0.000   0.000  -0.000   1.980   0.000   0.000   0.000   0.000  -0.007   0.000  -0.000   0.000  -0.000   0.059  -0.000  -0.000
 -0.000   0.000   0.004  -0.000   1.985  -0.000   0.000  -0.013   0.000   0.002  -0.032  -0.005  -0.000   0.000   0.108  -0.000
 -0.007   0.000   0.000   0.000  -0.000   0.004   0.000   0.000   0.000   0.000   0.000  -0.000   0.007   0.000   0.000  -0.000
  0.000  -0.020   0.000   0.000   0.000  -0.000   0.000   0.000   0.000  -0.000   0.000   0.000   0.000   0.000   0.000  -0.000
 -0.000   0.000  -0.012  -0.000  -0.013   0.000  -0.000   0.002   0.000  -0.003  -0.041   0.004  -0.000   0.000  -0.011  -0.000
  0.000   0.000  -0.000  -0.007  -0.000   0.000   0.000  -0.000   0.004   0.000   0.000   0.000  -0.000   0.007   0.000   0.000
  0.000   0.000  -0.013  -0.000   0.002  -0.000   0.000  -0.003   0.000   0.006   0.070  -0.007  -0.000   0.000   0.020   0.000
  0.000   0.000   0.018  -0.000  -0.032   0.000   0.000  -0.041   0.000   0.070   1.623  -0.137   0.000   0.000   0.286  -0.000
 -0.000   0.000   0.003   0.000  -0.005   0.000   0.000   0.004   0.000  -0.007  -0.137   0.012   0.000   0.000  -0.027  -0.000
  0.059   0.000  -0.000  -0.000  -0.000   0.007   0.000  -0.000  -0.000  -0.000   0.000   0.000   0.016   0.000  -0.000  -0.003
  0.000  -0.000  -0.000   0.059   0.000   0.000   0.000   0.000   0.007   0.000   0.000   0.000   0.000   0.016   0.000  -0.000
 -0.000   0.000  -0.062  -0.000   0.108   0.000   0.000  -0.011  -0.000   0.020   0.286  -0.027  -0.000   0.000   0.074   0.000
 -0.045   0.000   0.000   0.000  -0.000  -0.000  -0.000  -0.000   0.000   0.000  -0.000  -0.000  -0.003   0.000   0.000   0.001
  0.000   0.000   0.000  -0.045   0.000   0.000  -0.000   0.000  -0.000  -0.000   0.000   0.000   0.000  -0.003   0.000   0.000
 -0.000   0.000   0.025   0.000  -0.043   0.000   0.000   0.002  -0.000  -0.003  -0.041   0.004   0.000  -0.000  -0.012   0.000


------------------------ aborting loop because EDIFF is reached ----------------------------------------


    FORLOC:  cpu time      0.0426: real time      0.0426
    FORNL :  cpu time      0.4669: real time      0.4669
    STRESS:  cpu time     25.3704: real time     25.3878
    FORCOR:  cpu time     45.2721: real time     45.3035
    OFIELD:  cpu time      0.0010: real time      0.0010

  FORCE on cell =-STRESS in cart. coord.  units (eV):
  Direction    XX          YY          ZZ          XY          YZ          ZX
  --------------------------------------------------------------------------------------
  Alpha Z     1.46266     1.46266     1.46266
  Ewald    2747.14304  -678.15931  -678.15931    -0.00000     0.00000    -0.00000
  Hartree  4048.01482  1222.60825  1222.60825     0.00000    -0.00000    -0.00000
  E(xc)    -283.93512  -284.10531  -284.10531     0.00000    -0.00000    -0.00000
  Local   -7146.48647  -919.19835  -919.19835     0.00000    -0.00000    -0.00000
  n-local  -102.92098  -103.17968  -103.17968    -0.00000     0.00000    -0.00000
  augment   380.57334   392.15006   392.15006    -0.00000     0.00000    -0.00000
  Kinetic   354.44928   368.45299   368.45299     0.00000    -0.00000     0.00000
  Fock        0.00000     0.00000     0.00000     0.00000     0.00000     0.00000
  -------------------------------------------------------------------------------------
  Total      -1.69944     0.03131     0.03131    -0.00000     0.00000     0.00000
  in kB      -0.34035     0.00627     0.00627    -0.00000     0.00000     0.00000
  external pressure =       -0.11 kB  Pullay stress =        0.00 kB


 VOLUME and BASIS-vectors are now :
 -----------------------------------------------------------------------------
  energy-cutoff  :      520.00
  volume of cell :     8000.00
      direct lattice vectors                 reciprocal lattice vectors
    20.000000000  0.000000000  0.000000000     0.050000000  0.000000000  0.000000000
     0.000000000 20.000000000  0.000000000     0.000000000  0.050000000  0.000000000
     0.000000000  0.000000000 20.000000000     0.000000000  0.000000000  0.050000000

  length of vectors
    20.000000000 20.000000000 20.000000000     0.050000000  0.050000000  0.050000000


 FORCES acting on ions:
    Electron-Ion                     Ewald-Force                    Non-Local-Force
 -----------------------------------------------------------------------------------------------
   0.465E+03 0.300E-13 -.133E-11   -.452E+03 -.268E-16 -.190E-16   -.126E+02 0.256E-22 -.232E-22
   0.427E+02 0.255E-13 -.337E-10   -.490E+02 0.186E-17 0.638E-16   0.619E+01 0.199E-22 -.290E-23
   -.427E+02 0.260E-13 -.689E-10   0.490E+02 0.430E-16 0.395E-16   -.619E+01 0.265E-22 -.232E-22
   -.465E+03 0.296E-13 -.122E-09   0.452E+03 -.670E-16 0.961E-17   0.126E+02 -.993E-23 -.232E-22
 -----------------------------------------------------------------------------------------------
   -.107E-09 0.479E-13 -.229E-09   0.568E-13 -.490E-16 0.940E-16   0.533E-14 0.620E-22 -.724E-22
 
 
 POSITION                                       TOTAL-FORCE (eV/Angst)
 -----------------------------------------------------------------------------------
      0.48870      0.00000      0.00000         0.260758      0.000000      0.000000
      2.72949      0.00000      0.00000        -0.077288      0.000000     -0.000000
      5.07051      0.00000      0.00000         0.077288     -0.000000      0.000000
      7.31130      0.00000      0.00000        -0.260758     -0.000000     -0.000000
 -----------------------------------------------------------------------------------
    total drift:                               -0.000000      0.000000     -0.000000


--------------------------------------------------------------------------------------------------------



  FREE ENERGIE OF THE ION-ELECTRON SYSTEM (eV)
  ---------------------------------------------------
  free  energy   TOTEN  =       -31.04636078 eV

  energy  without entropy=      -31.04636078  energy(sigma->0) =      -31.04636078
 


--------------------------------------------------------------------------------------------------------


    POTLOK:  cpu time     49.2725: real time     49.3065


--------------------------------------------------------------------------------------------------------


     LOOP+:  cpu time   2288.7188: real time   2290.3023
    4ORBIT:  cpu time      0.0000: real time      0.0000

 total amount of memory used by VASP MPI-rank0   342172. kBytes
=======================================================================

   base      :      30000. kBytes
   nonlr-proj:       4359. kBytes
   fftplans  :      28721. kBytes
   grid      :     268680. kBytes
   one-center:         62. kBytes
   wavefun   :      10350. kBytes
 
  
  
 General timing and accounting informations for this job:
 ========================================================
  
                  Total CPU time used (sec):     2301.755
                            User time (sec):     2292.266
                          System time (sec):        9.488
                         Elapsed time (sec):     2304.240
  
                   Maximum memory used (kb):     2250752.
                   Average memory used (kb):          N/A
  
                          Minor page faults:       161977
                          Major page faults:            0
                 Voluntary context switches:        29613
