 vasp.6.4.0 14Feb23 (build Jul 14 2023 13:46:40) complex                        
  
 executed on             LinuxIFC date 2023.08.25  10:42:19
 running   32 mpi-ranks, with    1 threads/rank, on    1 nodes
 distrk:  each k-point on   16 cores,    2 groups
 distr:  one band on NCORE=   4 cores,    4 groups


--------------------------------------------------------------------------------------------------------


 INCAR:
   SYSTEM = MgO-rocksalt
   ISMEAR = 0
   SIGMA = 0.05
   EDIFF = 1E-6
   ALGO = ALL
   ISTART = 0
   IBRION = -1
   NSW = 0
   ISYM = 2
   METAGGA = TPSS
   ENCUT = 520
   PREC = Accurate
   LASPH = .TRUE.
   LREAL = Auto
   NELM = 200
   NELMIN = 8
   NCORE = 4
   KPAR = 2
   LWAVE = .FALSE.
   LCHARG = .FALSE.
   ISPIN = 2

 POTCAR:    PAW_PBE Cu 22Jun2005                  
 -----------------------------------------------------------------------------
|                                                                             |
|           W    W    AA    RRRRR   N    N  II  N    N   GGGG   !!!           |
|           W    W   A  A   R    R  NN   N  II  NN   N  G    G  !!!           |
|           W    W  A    A  R    R  N N  N  II  N N  N  G       !!!           |
|           W WW W  AAAAAA  RRRRR   N  N N  II  N  N N  G  GGG   !            |
|           WW  WW  A    A  R   R   N   NN  II  N   NN  G    G                |
|           W    W  A    A  R    R  N    N  II  N    N   GGGG   !!!           |
|                                                                             |
|     You use a magnetic or noncollinear calculation, but did not specify     |
|     the initial magnetic moment with the MAGMOM tag. Note that a            |
|     default of 1 will be used for all atoms. This ferromagnetic setup       |
|     may break the symmetry of the crystal, in particular it may rule        |
|     out finding an antiferromagnetic solution. Thence, we recommend         |
|     setting the initial magnetic moment manually or verifying carefully     |
|     that this magnetic setup is desired.                                    |
|                                                                             |
 -----------------------------------------------------------------------------

 POTCAR:    PAW_PBE Cu 22Jun2005                  
   SHA256 =  0e71e558f37a4e8407882b4609ceaae59938afaad9ced71dfe8490308a0ab630 Cu/POTCAR             
   COPYR  = (c) Copyright 22Jun2005 Georg Kresse                                                    
   COPYR  = This file is part of the software VASP. Any use, copying, and all other rights are regul
   COPYR  = If you do not have a valid VASP license, you may not use, copy or distribute this file. 
   VRHFIN =Cu: d10 p1                                                                               
   LEXCH  = PE                                                                                      
   EATOM  =  1390.9808 eV,  102.2342 Ry                                                             
                                                                                                    
   TITEL  = PAW_PBE Cu 22Jun2005                                                                    
   LULTRA =        F    use ultrasoft PP ?                                                          
   IUNSCR =        1    unscreen: 0-lin 1-nonlin 2-no                                               
   RPACOR =    2.000    partial core radius                                                         
   POMASS =   63.546; ZVAL   =   11.000    mass and valenz                                          
   RCORE  =    2.300    outmost cutoff radius                                                       
   RWIGS  =    2.200; RWIGS  =    1.164    wigner-seitz radius (au A)                               
   ENMAX  =  295.446; ENMIN  =  221.585 eV                                                          
   ICORE  =        3    local potential                                                             
   LCOR   =        T    correct aug charges                                                         
   LPAW   =        T    paw PP                                                                      
   EAUG   =  586.980                                                                                
   DEXC   =    0.000                                                                                
   RMAX   =    2.344    core radius for proj-oper                                                   
   RAUG   =    1.300    factor for augmentation sphere                                              
   RDEP   =    2.302    radius for radial grids                                                     
   RDEPT  =    1.771    core radius for aug-charge                                                  
                                                                                                    
   Atomic configuration                                                                             
    9 entries                                                                                       
     n  l   j            E        occ.                                                              
     1  0  0.50     -8850.2468   2.0000                                                             
     2  0  0.50     -1062.3498   2.0000                                                             
     2  1  1.50      -916.8226   6.0000                                                             
     3  0  0.50      -114.6929   2.0000                                                             
     3  1  1.50       -72.1325   6.0000                                                             
     3  2  2.50        -5.0394  10.0000                                                             
     4  0  0.50        -4.6097   1.0000                                                             
     4  1  0.50        -4.0817   0.0000                                                             
     4  3  2.50        -1.3606   0.0000                                                             
   Description                                                                                      
     l       E           TYP  RCUT    TYP  RCUT                                                     
     2     -5.0393973     23  2.200                                                                 
     2     10.8846608     23  2.200                                                                 
     0     -4.6097109     23  2.200                                                                 
     0      8.2520465     23  2.200                                                                 
     1     -2.7211652     23  2.200                                                                 
     1     21.7055443     23  2.200                                                                 
     3      2.7211652     23  2.300                                                                 
  local pseudopotential read in
  partial core-charges read in
  partial kinetic energy density read in
  atomic valenz-charges read in
  non local Contribution for L=           2  read in
    real space projection operators read in
  non local Contribution for L=           2  read in
    real space projection operators read in
  non local Contribution for L=           0  read in
    real space projection operators read in
  non local Contribution for L=           0  read in
    real space projection operators read in
  non local Contribution for L=           1  read in
    real space projection operators read in
  non local Contribution for L=           1  read in
    real space projection operators read in
    PAW grid and wavefunctions read in
 
   number of l-projection  operators is LMAX  =           6
   number of lm-projection operators is LMMAX =          18
 
 -----------------------------------------------------------------------------
|                                                                             |
|               ----> ADVICE to this user running VASP <----                  |
|                                                                             |
|     You have a (more or less) 'small supercell' and for smaller cells       |
|     it is recommended to use the reciprocal-space projection scheme!        |
|     The real-space optimization is not efficient for small cells and it     |
|     is also less accurate ...                                               |
|     Therefore, set LREAL=.FALSE. in the INCAR file.                         |
|                                                                             |
 -----------------------------------------------------------------------------

 Optimization of the real space projectors (new method)

 maximal supplied QI-value         = 16.25
 optimisation between [QCUT,QGAM] = [ 11.54, 23.24] = [ 37.28,151.24] Ry 
 Optimized for a Real-space Cutoff    1.53 Angstroem

   l    n(q)    QCUT    max X(q) W(low)/X(q) W(high)/X(q)  e(spline) 
   2     10    11.539     4.610    0.96E-04    0.13E-03    0.19E-06
   2     10    11.539     8.522    0.16E-03    0.21E-03    0.28E-06
   0     11    11.539    51.609    0.45E-04    0.31E-04    0.11E-06
   0     11    11.539    27.747    0.39E-04    0.29E-04    0.10E-06
   1     10    11.539    20.408    0.70E-05    0.38E-04    0.18E-06
   1     10    11.539    13.425    0.66E-05    0.34E-04    0.17E-06
  PAW_PBE Cu 22Jun2005                  :
 energy of atom  1       EATOM=-1390.9808
 kinetic energy error for atom=    0.0037 (will be added to EATOM!!)
 
 
 POSCAR: au4
  positions in direct lattice
  No initial velocities read in

 METAGGA = TPSS                                        LMAXTAU =  6    LMIXTAU =  F

 exchange correlation table for  LEXCH =        8
   RHO(1)=    0.500       N(1)  =     2000
   RHO(2)=  100.500       N(2)  =     4000
 


--------------------------------------------------------------------------------------------------------


 ion  position               nearest neighbor table
   1  0.450  0.460  0.600-
 
  LATTYP: Found a simple cubic cell.
 ALAT       =    20.0000000000
  
  Lattice vectors:
  
 A1 = (  20.0000000000,   0.0000000000,   0.0000000000)
 A2 = (   0.0000000000,  20.0000000000,   0.0000000000)
 A3 = (   0.0000000000,   0.0000000000,  20.0000000000)


Analysis of symmetry for initial positions (statically):
=====================================================================
 Subroutine PRICEL returns:
 Original cell was already a primitive cell.
 

 Routine SETGRP: Setting up the symmetry group for a 
 simple cubic supercell.


 Subroutine GETGRP returns: Found 48 space group operations
 (whereof  1 operations were pure point group operations)
 out of a pool of 48 trial point group operations.


The static configuration has the point symmetry C_1 .
 The point group associated with its full space group is O_h .


Analysis of symmetry for dynamics (positions and initial velocities):
=====================================================================
 Subroutine PRICEL returns:
 Original cell was already a primitive cell.
 

 Routine SETGRP: Setting up the symmetry group for a 
 simple cubic supercell.


 Subroutine GETGRP returns: Found 48 space group operations
 (whereof  1 operations were pure point group operations)
 out of a pool of 48 trial point group operations.


The dynamic configuration has the point symmetry C_1 .
 The point group associated with its full space group is O_h .


Analysis of structural, dynamic, and magnetic symmetry:
=====================================================================
 Subroutine PRICEL returns:
 Original cell was already a primitive cell.
 

 Routine SETGRP: Setting up the symmetry group for a 
 simple cubic supercell.


 Subroutine GETGRP returns: Found 48 space group operations
 (whereof  1 operations were pure point group operations)
 out of a pool of 48 trial point group operations.


The overall configuration has the point symmetry C_1 .
 The point group associated with its full space group is O_h .


 Subroutine INISYM returns: Found 48 space group operations
 (whereof  1 operations are pure point group operations),
 and found     1 'primitive' translations


----------------------------------------------------------------------------------------

                                     Primitive cell                                     

  volume of cell :    8000.0000

  direct lattice vectors                    reciprocal lattice vectors
    20.000000000  0.000000000  0.000000000     0.050000000  0.000000000  0.000000000
     0.000000000 20.000000000  0.000000000     0.000000000  0.050000000  0.000000000
     0.000000000  0.000000000 20.000000000     0.000000000  0.000000000  0.050000000

  length of vectors
    20.000000000 20.000000000 20.000000000     0.050000000  0.050000000  0.050000000

  position of ions in fractional coordinates (direct lattice)
     0.450000000  0.460000000  0.600000000

  ion indices of the primitive-cell ions
   primitive index   ion index
                 1           1

----------------------------------------------------------------------------------------

 
 
 KPOINTS: KPOINTS created by Atomic Simulation Env

Automatic generation of k-mesh.
 Grid dimensions read from file:
 generate k-points for:    1    1    1

 Generating k-lattice:

  Cartesian coordinates                     Fractional coordinates (reciprocal lattice)
     0.050000000  0.000000000  0.000000000     1.000000000  0.000000000  0.000000000
     0.000000000  0.050000000  0.000000000     0.000000000  1.000000000  0.000000000
     0.000000000  0.000000000  0.050000000     0.000000000  0.000000000  1.000000000

  Length of vectors
     0.050000000  0.050000000  0.050000000

  Shift w.r.t. Gamma in fractional coordinates (k-lattice)
     0.000000000  0.000000000  0.000000000

 
 Subroutine IBZKPT returns following result:
 ===========================================
 
 Found      1 irreducible k-points:
 
 Following reciprocal coordinates:
            Coordinates               Weight
  0.000000  0.000000  0.000000      1.000000
 
 Following cartesian coordinates:
            Coordinates               Weight
  0.000000  0.000000  0.000000      1.000000
 


--------------------------------------------------------------------------------------------------------




 Dimension of arrays:
   k-points           NKPTS =      1   k-points in BZ     NKDIM =      1   number of bands    NBANDS=     12
   number of dos      NEDOS =    301   number of ions     NIONS =      1
   non local maximal  LDIM  =      6   non local SUM 2l+1 LMDIM =     18
   total plane-waves  NPLWV = ******
   max r-space proj   IRMAX =   6426   max aug-charges    IRDMAX=  12418
   dimension x,y,z NGX =   150 NGY =  150 NGZ =  150
   dimension x,y,z NGXF=   300 NGYF=  300 NGZF=  300
   support grid    NGXF=   300 NGYF=  300 NGZF=  300
   ions per type =               1
   NGX,Y,Z   is equivalent  to a cutoff of  12.47, 12.47, 12.47 a.u.
   NGXF,Y,Z  is equivalent  to a cutoff of  24.94, 24.94, 24.94 a.u.

 SYSTEM =  MgO-rocksalt                            
 POSCAR =  au4                                     

 Startparameter for this run:
   NWRITE =      2    write-flag & timer
   PREC   = accura    normal or accurate (medium, high low for compatibility)
   ISTART =      0    job   : 0-new  1-cont  2-samecut
   ICHARG =      2    charge: 1-file 2-atom 10-const
   ISPIN  =      2    spin polarized calculation?
   LNONCOLLINEAR =      F non collinear calculations
   LSORBIT =      F    spin-orbit coupling
   INIWAV =      1    electr: 0-lowe 1-rand  2-diag
   LASPH  =      T    aspherical Exc in radial PAW
 Electronic Relaxation 1
   ENCUT  =  520.0 eV  38.22 Ry    6.18 a.u.  37.19 37.19 37.19*2*pi/ulx,y,z
   ENINI  =  520.0     initial cutoff
   ENAUG  =  587.0 eV  augmentation charge cutoff
   NELM   =    200;   NELMIN=  8; NELMDL= -5     # of ELM steps 
   EDIFF  = 0.1E-05   stopping-criterion for ELM
   LREAL  =      T    real-space projection
   NLSPLINE    = F    spline interpolate recip. space projectors
   LCOMPAT=      F    compatible to vasp.4.4
   GGA_COMPAT  = T    GGA compatible to vasp.4.4-vasp.4.6
   LMAXPAW     = -100 max onsite density
   LMAXMIX     =    2 max onsite mixed and CHGCAR
   VOSKOWN=      0    Vosko Wilk Nusair interpolation
   ROPT   =   -0.00025
 Ionic relaxation
   EDIFFG = 0.1E-04   stopping-criterion for IOM
   NSW    =      0    number of steps for IOM
   NBLOCK =      1;   KBLOCK =      1    inner block; outer block 
   IBRION =     -1    ionic relax: 0-MD 1-quasi-New 2-CG
   NFREE  =      0    steps in history (QN), initial steepest desc. (CG)
   ISIF   =      2    stress and relaxation
   IWAVPR =     10    prediction:  0-non 1-charg 2-wave 3-comb
   ISYM   =      2    0-nonsym 1-usesym 2-fastsym
   LCORR  =      T    Harris-Foulkes like correction to forces

   POTIM  = 0.5000    time-step for ionic-motion
   TEIN   =    0.0    initial temperature
   TEBEG  =    0.0;   TEEND  =   0.0 temperature during run
   SMASS  =  -3.00    Nose mass-parameter (am)
   estimated Nose-frequenzy (Omega)   =  0.10E-29 period in steps = 0.13E+47 mass=  -0.914E-26a.u.
   SCALEE = 1.0000    scale energy and forces
   NPACO  =    256;   APACO  = 10.0  distance and # of slots for P.C.
   PSTRESS=    0.0 pullay stress

  Mass of Ions in am
   POMASS =  63.55
  Ionic Valenz
   ZVAL   =  11.00
  Atomic Wigner-Seitz radii
   RWIGS  =  -1.00
  virtual crystal weights 
   VCA    =   1.00
   NELECT =      11.0000    total number of electrons
   NUPDOWN=      -1.0000    fix difference up-down

 DOS related values:
   EMIN   =  10.00;   EMAX   =-10.00  energy-range for DOS
   EFERMI =   0.00;   METHOD = LEGACY      
   ISMEAR =     0;   SIGMA  =   0.05  broadening in eV -4-tet -1-fermi 0-gaus

 Electronic relaxation 2 (details)
   IALGO  =     58    algorithm
   LDIAG  =      T    sub-space diagonalisation (order eigenvalues)
   LSUBROT=      F    optimize rotation matrix (better conditioning)
   TURBO    =      0    0=normal 1=particle mesh
   IRESTART =      0    0=no restart 2=restart with 2 vectors
   NREBOOT  =      0    no. of reboots
   NMIN     =      0    reboot dimension
   EREF     =   0.00    reference energy to select bands
   IMIX   =      4    mixing-type and parameters
     AMIX     =   0.40;   BMIX     =  1.00
     AMIX_MAG =   1.60;   BMIX_MAG =  1.00
     AMIN     =   0.10
     WC   =   100.;   INIMIX=   1;  MIXPRE=   1;  MAXMIX= -45

 Intra band minimization:
   WEIMIN = 0.0000     energy-eigenvalue tresh-hold
   EBREAK =  0.21E-07  absolut break condition
   DEPER  =   0.30     relativ break condition  

   TIME   =   0.40     timestep for ELM

  volume/ion in A,a.u.               =    8000.00     53986.66
  Fermi-wavevector in a.u.,A,eV,Ry     =   0.182044  0.344013  0.450896  0.033140
  Thomas-Fermi vector in A             =   0.909791
 
 Write flags
   LWAVE        =      F    write WAVECAR
   LDOWNSAMPLE  =      F    k-point downsampling of WAVECAR
   LCHARG       =      F    write CHGCAR
   LVTOT        =      F    write LOCPOT, total local potential
   LVHAR        =      F    write LOCPOT, Hartree potential only
   LELF         =      F    write electronic localiz. function (ELF)
   LORBIT       =      0    0 simple, 1 ext, 2 COOP (PROOUT), +10 PAW based schemes


 Dipole corrections
   LMONO  =      F    monopole corrections only (constant potential shift)
   LDIPOL =      F    correct potential (dipole corrections)
   IDIPOL =      0    1-x, 2-y, 3-z, 4-all directions 
   EPSILON=  1.0000000 bulk dielectric constant

 Exchange correlation treatment:
   GGA     =    --    GGA type
   LEXCH   =     8    internal setting for exchange type
   LIBXC   =     F    Libxc                    
   VOSKOWN =     0    Vosko Wilk Nusair interpolation
   LHFCALC =     F    Hartree Fock is set to
   LHFONE  =     F    Hartree Fock one center treatment
   AEXX    =    0.0000 exact exchange contribution

 Linear response parameters
   LEPSILON=     F    determine dielectric tensor
   LRPA    =     F    only Hartree local field effects (RPA)
   LNABLA  =     F    use nabla operator in PAW spheres
   LVEL    =     F    velocity operator in full k-point grid
   CSHIFT  =0.1000    complex shift for real part using Kramers Kronig
   OMEGAMAX=  -1.0    maximum frequency
   DEG_THRESHOLD= 0.2000000E-02 threshold for treating states as degnerate
   RTIME   =   -0.100 relaxation time in fs
  (WPLASMAI=    0.000 imaginary part of plasma frequency in eV, 0.658/RTIME)
   DFIELD  = 0.0000000 0.0000000 0.0000000 field for delta impulse in time
 
  Optional k-point grid parameters
   LKPOINTS_OPT  =     F    use optional k-point grid
   KPOINTS_OPT_MODE=     1    mode for optional k-point grid
 
 Orbital magnetization related:
   ORBITALMAG=     F  switch on orbital magnetization
   LCHIMAG   =     F  perturbation theory with respect to B field
   DQ        =  0.001000  dq finite difference perturbation B field
   LLRAUG    =     F  two centre corrections for induced B field
   LBONE     =     F  B-component reconstruction in AE one-centre
   LVGVCALC  =     T  calculate vGv susceptibility
   LVGVAPPL  =     F  apply vGv susceptibility instead of pGv for G=0

 Random number generation:
   RANDOM_GENERATOR = DEFAULT
   PCG_SEED         = not used


--------------------------------------------------------------------------------------------------------


 Static calculation
 charge density and potential will be updated during run
 spin polarized calculation
 Conjugate gradient for all bands (Freysoldt, et al. PRB 79, 241103 (2009))
 preconditioned conjugated gradient                                        
 perform sub-space diagonalisation
    before iterative eigenvector-optimisation
 modified Broyden-mixing scheme, WC =      100.0
 initial mixing is a Kerker type mixing with AMIX =  0.4000 and BMIX =      1.0000
 Hartree-type preconditioning will be used
 using additional bands            6
 real space projection scheme for non local part
 use partial core corrections
 no Harris-corrections to forces 
 use gradient corrections 
 use of overlap-Matrix (Vanderbilt PP)
 Gauss-broadening in eV      SIGMA  =   0.05


--------------------------------------------------------------------------------------------------------


  energy-cutoff  :      520.00
  volume of cell :     8000.00
      direct lattice vectors                 reciprocal lattice vectors
    20.000000000  0.000000000  0.000000000     0.050000000  0.000000000  0.000000000
     0.000000000 20.000000000  0.000000000     0.000000000  0.050000000  0.000000000
     0.000000000  0.000000000 20.000000000     0.000000000  0.000000000  0.050000000

  length of vectors
    20.000000000 20.000000000 20.000000000     0.050000000  0.050000000  0.050000000


 
 k-points in units of 2pi/SCALE and weight: KPOINTS created by Atomic Simulation Env
   0.00000000  0.00000000  0.00000000       1.000
 
 k-points in reciprocal lattice and weights: KPOINTS created by Atomic Simulation Env
   0.00000000  0.00000000  0.00000000       1.000
 
 position of ions in fractional coordinates (direct lattice) 
   0.45000000  0.46000000  0.60000000
 
 position of ions in cartesian coordinates  (Angst):
   9.00000000  9.20000000 12.00000000
 


--------------------------------------------------------------------------------------------------------


 k-point   1 :   0.0000 0.0000 0.0000  plane waves:  215503

 maximum and minimum number of plane-waves per node :     53900    53857

 maximum number of plane-waves:    215503
 maximum index in each direction: 
   IXMAX=   37   IYMAX=   37   IZMAX=   37
   IXMIN=  -37   IYMIN=  -37   IZMIN=  -37


 real space projection operators:
  total allocation   :        868.22 KBytes
  max/ min on nodes  :        217.97        216.14


 parallel 3D FFT for wavefunctions:
    minimum data exchange during FFTs selected (reduces bandwidth)
 parallel 3D FFT for charge:
    minimum data exchange during FFTs selected (reduces bandwidth)


 total amount of memory used by VASP MPI-rank0   403399. kBytes
=======================================================================

   base      :      30000. kBytes
   nonlr-proj:        373. kBytes
   fftplans  :      82868. kBytes
   grid      :     274602. kBytes
   one-center:         31. kBytes
   wavefun   :      15525. kBytes
 
     INWAV:  cpu time      0.0001: real time      0.0001
 Broyden mixing: mesh for mixing (old mesh)
   NGX = 75   NGY = 75   NGZ = 75
  (NGX  =300   NGY  =300   NGZ  =300)
  gives a total of 421875 points

 initial charge density was supplied:
 charge density of overlapping atoms calculated
 number of electron      11.0000000 magnetization       1.0000000
 keeping initial charge density in first step


--------------------------------------------------------------------------------------------------------


 Maximum index for non-local projection operator         1537
 Maximum index for augmentation-charges          854 (set IRDMAX)


--------------------------------------------------------------------------------------------------------


 First call to EWALD:  gamma=   0.089
 Maximum number of real-space cells 3x 3x 3
 Maximum number of reciprocal cells 3x 3x 3

    FEWALD:  cpu time      0.0060: real time      0.0060


--------------------------------------- Ionic step        1  -------------------------------------------




--------------------------------------- Iteration      1(   1)  ---------------------------------------


    POTLOK:  cpu time     24.3984: real time     24.4065
    SETDIJ:  cpu time      6.6470: real time      6.6505
    TRIAL :  cpu time      6.8234: real time      6.8883
    CORREC:  cpu time      0.0011: real time      0.0011
    --------------------------------------------
      LOOP:  cpu time     37.8939: real time     37.9715

 eigenvalue-minimisations  :    48
 total energy-change (2. order) : 0.5479698E+02  (-0.1194680E+03)
 number of electron      11.0000000 magnetization       1.0000000
 augmentation part       11.0000000 magnetization       1.0000000

 Free energy of the ion-electron system (eV)
  ---------------------------------------------------
  alpha Z        PSCENC =         0.09141600
  Ewald energy   TEWEN  =      -123.59085203
  -Hartree energ DENC   =     -1150.60996194
  -exchange      EXHF   =         0.00000000
  -V(xc)+E(xc)   XCENC  =        64.43803236
  PAW double counting   =      1214.97526902    -1342.27554198
  entropy T*S    EENTRO =        -0.02236469
  eigenvalues    EBANDS =         0.81392765
  atomic energy  EATOM  =      1390.97705399
  ---------------------------------------------------
  free energy    TOTEN  =        54.79697838 eV

  energy without entropy =       54.81934307  energy(sigma->0) =       54.80816073


--------------------------------------------------------------------------------------------------------




--------------------------------------- Iteration      1(   2)  ---------------------------------------


    TRIAL :  cpu time      7.5799: real time      7.5821
    CORREC:  cpu time      0.0011: real time      0.0011
    --------------------------------------------
      LOOP:  cpu time      7.5837: real time      7.6020

 eigenvalue-minimisations  :    64
 total energy-change (2. order) :-0.1639867E+02  (-0.1062688E+02)
 number of electron      11.0000000 magnetization       1.0000000
 augmentation part       11.0000000 magnetization       1.0000000

 Free energy of the ion-electron system (eV)
  ---------------------------------------------------
  alpha Z        PSCENC =         0.09141600
  Ewald energy   TEWEN  =      -123.59085203
  -Hartree energ DENC   =     -1150.60996194
  -exchange      EXHF   =         0.00000000
  -V(xc)+E(xc)   XCENC  =        64.43803236
  PAW double counting   =      1214.97526902    -1342.27554198
  entropy T*S    EENTRO =        -0.02391812
  eigenvalues    EBANDS =       -15.58318531
  atomic energy  EATOM  =      1390.97705399
  ---------------------------------------------------
  free energy    TOTEN  =        38.39831199 eV

  energy without entropy =       38.42223011  energy(sigma->0) =       38.41027105


--------------------------------------------------------------------------------------------------------




--------------------------------------- Iteration      1(   3)  ---------------------------------------


    TRIAL :  cpu time      9.3227: real time      9.3247
    CORREC:  cpu time      0.0009: real time      0.0009
    --------------------------------------------
      LOOP:  cpu time      9.3257: real time      9.3439

 eigenvalue-minimisations  :    88
 total energy-change (2. order) :-0.4249080E+02  (-0.4105277E+02)
 number of electron      11.0000000 magnetization       1.0000000
 augmentation part       11.0000000 magnetization       1.0000000

 Free energy of the ion-electron system (eV)
  ---------------------------------------------------
  alpha Z        PSCENC =         0.09141600
  Ewald energy   TEWEN  =      -123.59085203
  -Hartree energ DENC   =     -1150.60996194
  -exchange      EXHF   =         0.00000000
  -V(xc)+E(xc)   XCENC  =        64.43803236
  PAW double counting   =      1214.97526902    -1342.27554198
  entropy T*S    EENTRO =        -0.00000156
  eigenvalues    EBANDS =       -58.09789828
  atomic energy  EATOM  =      1390.97705399
  ---------------------------------------------------
  free energy    TOTEN  =        -4.09248442 eV

  energy without entropy =       -4.09248286  energy(sigma->0) =       -4.09248364


--------------------------------------------------------------------------------------------------------




--------------------------------------- Iteration      1(   4)  ---------------------------------------


    TRIAL :  cpu time      7.5704: real time      7.5724
    CORREC:  cpu time      0.0007: real time      0.0007
    --------------------------------------------
      LOOP:  cpu time      7.5868: real time      7.5890

 eigenvalue-minimisations  :    64
 total energy-change (2. order) :-0.3570222E+01  (-0.3566321E+01)
 number of electron      11.0000000 magnetization       1.0000000
 augmentation part       11.0000000 magnetization       1.0000000

 Free energy of the ion-electron system (eV)
  ---------------------------------------------------
  alpha Z        PSCENC =         0.09141600
  Ewald energy   TEWEN  =      -123.59085203
  -Hartree energ DENC   =     -1150.60996194
  -exchange      EXHF   =         0.00000000
  -V(xc)+E(xc)   XCENC  =        64.43803236
  PAW double counting   =      1214.97526902    -1342.27554198
  entropy T*S    EENTRO =        -0.00000000
  eigenvalues    EBANDS =       -61.66812193
  atomic energy  EATOM  =      1390.97705399
  ---------------------------------------------------
  free energy    TOTEN  =        -7.66270651 eV

  energy without entropy =       -7.66270651  energy(sigma->0) =       -7.66270651


--------------------------------------------------------------------------------------------------------




--------------------------------------- Iteration      1(   5)  ---------------------------------------


    TRIAL :  cpu time      6.9539: real time      6.9559
    CORREC:  cpu time      0.0007: real time      0.0007
    CHARGE:  cpu time     37.3083: real time     37.7583
    --------------------------------------------
      LOOP:  cpu time     44.2650: real time     44.7311

 eigenvalue-minimisations  :    56
 total energy-change (2. order) :-0.1308993E+00  (-0.1308649E+00)
 number of electron      11.0000023 magnetization       1.0000000
 augmentation part        7.2417614 magnetization      -0.1052869

 Free energy of the ion-electron system (eV)
  ---------------------------------------------------
  alpha Z        PSCENC =         0.09141600
  Ewald energy   TEWEN  =      -123.59085203
  -Hartree energ DENC   =     -1150.60996194
  -exchange      EXHF   =         0.00000000
  -V(xc)+E(xc)   XCENC  =        64.43803236
  PAW double counting   =      1214.97526902    -1342.27554198
  entropy T*S    EENTRO =        -0.00000000
  eigenvalues    EBANDS =       -61.79902121
  atomic energy  EATOM  =      1390.97705399
  ---------------------------------------------------
  free energy    TOTEN  =        -7.79360579 eV

  energy without entropy =       -7.79360579  energy(sigma->0) =       -7.79360579


--------------------------------------------------------------------------------------------------------




--------------------------------------- Iteration      1(   6)  ---------------------------------------


    POTLOK:  cpu time     24.5193: real time     24.5283
    SETDIJ:  cpu time      6.9494: real time      6.9525
    TRIAL :  cpu time      6.4201: real time      6.4669
    CORREC:  cpu time     70.3684: real time     70.8959
    CHARGE:  cpu time     37.1653: real time     37.6172
    --------------------------------------------
      LOOP:  cpu time    145.4282: real time    146.4740

 eigenvalue-minimisations  :     0
 total energy-change (2. order) : 0.7105937E-01  (-0.7286631E-01)
 number of electron      11.0000023 magnetization       1.0000000
 augmentation part        7.1717689 magnetization      -0.1158770

 Free energy of the ion-electron system (eV)
  ---------------------------------------------------
  alpha Z        PSCENC =         0.09141600
  Ewald energy   TEWEN  =      -123.59085203
  -Hartree energ DENC   =     -1163.87217785
  -exchange      EXHF   =         0.00000000
  -V(xc)+E(xc)   XCENC  =        57.94455531
  PAW double counting   =      1223.71264416    -1353.10965944
  entropy T*S    EENTRO =        -0.00000000
  eigenvalues    EBANDS =       -39.87552657
  atomic energy  EATOM  =      1390.97705399
  ---------------------------------------------------
  free energy    TOTEN  =        -7.72254643 eV

  energy without entropy =       -7.72254643  energy(sigma->0) =       -7.72254643


--------------------------------------------------------------------------------------------------------




--------------------------------------- Iteration      1(   7)  ---------------------------------------


    POTLOK:  cpu time     24.2988: real time     24.3080
    SETDIJ:  cpu time      6.9291: real time      6.9325
    TRIAL :  cpu time      6.1388: real time      6.1408
    CORREC:  cpu time     69.8289: real time     70.5414
    CHARGE:  cpu time     37.0495: real time     37.5102
    --------------------------------------------
      LOOP:  cpu time    144.2516: real time    145.4468

 eigenvalue-minimisations  :     0
 total energy-change (2. order) :-0.7432946E-01  (-0.9507165E-01)
 number of electron      11.0000023 magnetization       0.9999999
 augmentation part        7.1846918 magnetization      -0.1711303

 Free energy of the ion-electron system (eV)
  ---------------------------------------------------
  alpha Z        PSCENC =         0.09141600
  Ewald energy   TEWEN  =      -123.59085203
  -Hartree energ DENC   =     -1153.39137555
  -exchange      EXHF   =         0.00000000
  -V(xc)+E(xc)   XCENC  =        57.29132336
  PAW double counting   =      1215.37193050    -1341.72912430
  entropy T*S    EENTRO =        -0.00000000
  eigenvalues    EBANDS =       -52.81724787
  atomic energy  EATOM  =      1390.97705399
  ---------------------------------------------------
  free energy    TOTEN  =        -7.79687588 eV

  energy without entropy =       -7.79687588  energy(sigma->0) =       -7.79687588


--------------------------------------------------------------------------------------------------------




--------------------------------------- Iteration      1(   8)  ---------------------------------------


    POTLOK:  cpu time     24.2974: real time     24.3055
    SETDIJ:  cpu time      6.9346: real time      6.9378
    TRIAL :  cpu time      6.0107: real time      6.0126
    CORREC:  cpu time     70.0191: real time     70.2298
    CHARGE:  cpu time     36.8759: real time     37.3616
    --------------------------------------------
      LOOP:  cpu time    144.1431: real time    144.8600

 eigenvalue-minimisations  :     0
 total energy-change (2. order) :-0.9486775E-01  (-0.5034057E-02)
 number of electron      11.0000023 magnetization       0.9999999
 augmentation part        7.2005883 magnetization      -0.1710268

 Free energy of the ion-electron system (eV)
  ---------------------------------------------------
  alpha Z        PSCENC =         0.09141600
  Ewald energy   TEWEN  =      -123.59085203
  -Hartree energ DENC   =     -1149.61845574
  -exchange      EXHF   =         0.00000000
  -V(xc)+E(xc)   XCENC  =        57.08669954
  PAW double counting   =      1206.40036130    -1333.30560783
  entropy T*S    EENTRO =        -0.00000000
  eigenvalues    EBANDS =       -55.93235887
  atomic energy  EATOM  =      1390.97705399
  ---------------------------------------------------
  free energy    TOTEN  =        -7.89174364 eV

  energy without entropy =       -7.89174364  energy(sigma->0) =       -7.89174364


--------------------------------------------------------------------------------------------------------




--------------------------------------- Iteration      1(   9)  ---------------------------------------


    POTLOK:  cpu time     24.1991: real time     24.2072
    SETDIJ:  cpu time      6.9894: real time      6.9934
    TRIAL :  cpu time      6.0082: real time      6.0093
    CORREC:  cpu time     69.7005: real time     70.0531
    CHARGE:  cpu time     36.7511: real time     37.3157
    --------------------------------------------
      LOOP:  cpu time    143.6531: real time    144.5950

 eigenvalue-minimisations  :     0
 total energy-change (2. order) :-0.5051345E-02  (-0.5278830E-02)
 number of electron      11.0000023 magnetization       0.9999999
 augmentation part        7.1896598 magnetization      -0.1714932

 Free energy of the ion-electron system (eV)
  ---------------------------------------------------
  alpha Z        PSCENC =         0.09141600
  Ewald energy   TEWEN  =      -123.59085203
  -Hartree energ DENC   =     -1152.35944988
  -exchange      EXHF   =         0.00000000
  -V(xc)+E(xc)   XCENC  =        57.22929870
  PAW double counting   =      1209.37547440    -1336.93036534
  entropy T*S    EENTRO =        -0.00000000
  eigenvalues    EBANDS =       -52.68937084
  atomic energy  EATOM  =      1390.97705399
  ---------------------------------------------------
  free energy    TOTEN  =        -7.89679498 eV

  energy without entropy =       -7.89679498  energy(sigma->0) =       -7.89679498


--------------------------------------------------------------------------------------------------------




--------------------------------------- Iteration      1(  10)  ---------------------------------------


    POTLOK:  cpu time     24.0615: real time     24.0692
    SETDIJ:  cpu time      7.0096: real time      7.0135
    TRIAL :  cpu time      6.0411: real time      6.0431
    CORREC:  cpu time     69.6116: real time     69.9534
    CHARGE:  cpu time     36.8403: real time     37.2322
    --------------------------------------------
      LOOP:  cpu time    143.5767: real time    144.3241

 eigenvalue-minimisations  :     0
 total energy-change (2. order) :-0.5264670E-02  (-0.2456406E-03)
 number of electron      11.0000023 magnetization       0.9999999
 augmentation part        7.1868345 magnetization      -0.1728560

 Free energy of the ion-electron system (eV)
  ---------------------------------------------------
  alpha Z        PSCENC =         0.09141600
  Ewald energy   TEWEN  =      -123.59085203
  -Hartree energ DENC   =     -1152.15152758
  -exchange      EXHF   =         0.00000000
  -V(xc)+E(xc)   XCENC  =        57.16995210
  PAW double counting   =      1211.31045098    -1338.34417848
  entropy T*S    EENTRO =        -0.00000000
  eigenvalues    EBANDS =       -53.36437464
  atomic energy  EATOM  =      1390.97705399
  ---------------------------------------------------
  free energy    TOTEN  =        -7.90205965 eV

  energy without entropy =       -7.90205965  energy(sigma->0) =       -7.90205965


--------------------------------------------------------------------------------------------------------




--------------------------------------- Iteration      1(  11)  ---------------------------------------


    POTLOK:  cpu time     24.0874: real time     24.0955
    SETDIJ:  cpu time      6.9490: real time      6.9529
    TRIAL :  cpu time      6.0061: real time      6.0074
    CORREC:  cpu time     69.1136: real time     69.8051
    CHARGE:  cpu time     36.8288: real time     37.2890
    --------------------------------------------
      LOOP:  cpu time    142.9902: real time    144.1626

 eigenvalue-minimisations  :     0
 total energy-change (2. order) :-0.2455037E-03  (-0.1223715E-03)
 number of electron      11.0000023 magnetization       0.9999999
 augmentation part        7.1888975 magnetization      -0.1733387

 Free energy of the ion-electron system (eV)
  ---------------------------------------------------
  alpha Z        PSCENC =         0.09141600
  Ewald energy   TEWEN  =      -123.59085203
  -Hartree energ DENC   =     -1151.89155595
  -exchange      EXHF   =         0.00000000
  -V(xc)+E(xc)   XCENC  =        57.15012630
  PAW double counting   =      1211.28581617    -1338.20907664
  entropy T*S    EENTRO =        -0.00000000
  eigenvalues    EBANDS =       -53.71523300
  atomic energy  EATOM  =      1390.97705399
  ---------------------------------------------------
  free energy    TOTEN  =        -7.90230516 eV

  energy without entropy =       -7.90230516  energy(sigma->0) =       -7.90230516


--------------------------------------------------------------------------------------------------------




--------------------------------------- Iteration      1(  12)  ---------------------------------------


    POTLOK:  cpu time     24.0677: real time     24.0756
    SETDIJ:  cpu time      6.9487: real time      6.9518
    TRIAL :  cpu time      6.0089: real time      6.0112
    CORREC:  cpu time     69.2864: real time     69.7056
    CHARGE:  cpu time     36.9301: real time     37.2933
    --------------------------------------------
      LOOP:  cpu time    143.2470: real time    144.0497

 eigenvalue-minimisations  :     0
 total energy-change (2. order) :-0.1274032E-03  (-0.2854765E-04)
 number of electron      11.0000023 magnetization       0.9999999
 augmentation part        7.1881084 magnetization      -0.1730302

 Free energy of the ion-electron system (eV)
  ---------------------------------------------------
  alpha Z        PSCENC =         0.09141600
  Ewald energy   TEWEN  =      -123.59085203
  -Hartree energ DENC   =     -1152.23884818
  -exchange      EXHF   =         0.00000000
  -V(xc)+E(xc)   XCENC  =        57.16941148
  PAW double counting   =      1211.61968234    -1338.64199774
  entropy T*S    EENTRO =        -0.00000000
  eigenvalues    EBANDS =       -53.28829842
  atomic energy  EATOM  =      1390.97705399
  ---------------------------------------------------
  free energy    TOTEN  =        -7.90243256 eV

  energy without entropy =       -7.90243256  energy(sigma->0) =       -7.90243256


--------------------------------------------------------------------------------------------------------




--------------------------------------- Iteration      1(  13)  ---------------------------------------


    POTLOK:  cpu time     24.0294: real time     24.0376
    SETDIJ:  cpu time      6.9438: real time      6.9478
    TRIAL :  cpu time      6.0577: real time      6.0595
    CORREC:  cpu time     69.2327: real time     69.7400
    CHARGE:  cpu time     36.7298: real time     37.2878
    --------------------------------------------
      LOOP:  cpu time    142.9993: real time    144.0860

 eigenvalue-minimisations  :     0
 total energy-change (2. order) :-0.2912541E-04  (-0.1105833E-04)
 number of electron      11.0000023 magnetization       0.9999999
 augmentation part        7.1889504 magnetization      -0.1725020

 Free energy of the ion-electron system (eV)
  ---------------------------------------------------
  alpha Z        PSCENC =         0.09141600
  Ewald energy   TEWEN  =      -123.59085203
  -Hartree energ DENC   =     -1152.13603341
  -exchange      EXHF   =         0.00000000
  -V(xc)+E(xc)   XCENC  =        57.16274009
  PAW double counting   =      1211.59483331    -1338.59005621
  entropy T*S    EENTRO =        -0.00000000
  eigenvalues    EBANDS =       -53.41156343
  atomic energy  EATOM  =      1390.97705399
  ---------------------------------------------------
  free energy    TOTEN  =        -7.90246168 eV

  energy without entropy =       -7.90246168  energy(sigma->0) =       -7.90246168


--------------------------------------------------------------------------------------------------------




--------------------------------------- Iteration      1(  14)  ---------------------------------------


    POTLOK:  cpu time     24.0038: real time     24.0119
    SETDIJ:  cpu time      6.9493: real time      6.9526
    TRIAL :  cpu time      6.0035: real time      6.0057
    CORREC:  cpu time     69.3294: real time     69.7463
    CHARGE:  cpu time     36.8370: real time     37.2835
    --------------------------------------------
      LOOP:  cpu time    143.1282: real time    144.0124

 eigenvalue-minimisations  :     0
 total energy-change (2. order) :-0.9464734E-05  (-0.4139944E-05)
 number of electron      11.0000023 magnetization       0.9999999
 augmentation part        7.1884777 magnetization      -0.1725240

 Free energy of the ion-electron system (eV)
  ---------------------------------------------------
  alpha Z        PSCENC =         0.09141600
  Ewald energy   TEWEN  =      -123.59085203
  -Hartree energ DENC   =     -1152.24046888
  -exchange      EXHF   =         0.00000000
  -V(xc)+E(xc)   XCENC  =        57.16928383
  PAW double counting   =      1211.72130575    -1338.75539139
  entropy T*S    EENTRO =        -0.00000000
  eigenvalues    EBANDS =       -53.27481843
  atomic energy  EATOM  =      1390.97705399
  ---------------------------------------------------
  free energy    TOTEN  =        -7.90247115 eV

  energy without entropy =       -7.90247115  energy(sigma->0) =       -7.90247115


--------------------------------------------------------------------------------------------------------




--------------------------------------- Iteration      1(  15)  ---------------------------------------


    POTLOK:  cpu time     24.0044: real time     24.0126
    SETDIJ:  cpu time      6.9398: real time      6.9437
    TRIAL :  cpu time      6.0081: real time      6.0100
    CORREC:  cpu time     69.2355: real time     69.7627
    CHARGE:  cpu time     36.7477: real time     37.2462
    --------------------------------------------
      LOOP:  cpu time    142.9399: real time    143.9872

 eigenvalue-minimisations  :     0
 total energy-change (2. order) :-0.2204513E-05  (-0.5375174E-06)
 number of electron      11.0000023 magnetization       0.9999999
 augmentation part        7.1883615 magnetization      -0.1725264

 Free energy of the ion-electron system (eV)
  ---------------------------------------------------
  alpha Z        PSCENC =         0.09141600
  Ewald energy   TEWEN  =      -123.59085203
  -Hartree energ DENC   =     -1152.17420303
  -exchange      EXHF   =         0.00000000
  -V(xc)+E(xc)   XCENC  =        57.16525845
  PAW double counting   =      1211.68375219    -1338.69708633
  entropy T*S    EENTRO =        -0.00000000
  eigenvalues    EBANDS =       -53.35781260
  atomic energy  EATOM  =      1390.97705399
  ---------------------------------------------------
  free energy    TOTEN  =        -7.90247335 eV

  energy without entropy =       -7.90247335  energy(sigma->0) =       -7.90247335


--------------------------------------------------------------------------------------------------------




--------------------------------------- Iteration      1(  16)  ---------------------------------------


    POTLOK:  cpu time     23.9763: real time     23.9843
    SETDIJ:  cpu time      6.9329: real time      6.9361
    TRIAL :  cpu time      6.0086: real time      6.0106
    CORREC:  cpu time     69.0213: real time     69.6495
    CHARGE:  cpu time     36.8490: real time     37.3441
    --------------------------------------------
      LOOP:  cpu time    142.7938: real time    143.9377

 eigenvalue-minimisations  :     0
 total energy-change (2. order) :-0.8922780E-07  ( 0.1535126E-05)
 number of electron      11.0000023 magnetization       0.9999999
 augmentation part        7.1884806 magnetization      -0.1725144

 Free energy of the ion-electron system (eV)
  ---------------------------------------------------
  alpha Z        PSCENC =         0.09141600
  Ewald energy   TEWEN  =      -123.59085203
  -Hartree energ DENC   =     -1152.15645125
  -exchange      EXHF   =         0.00000000
  -V(xc)+E(xc)   XCENC  =        57.16421735
  PAW double counting   =      1211.68088323    -1338.68880304
  entropy T*S    EENTRO =        -0.00000000
  eigenvalues    EBANDS =       -53.37993770
  atomic energy  EATOM  =      1390.97705399
  ---------------------------------------------------
  free energy    TOTEN  =        -7.90247344 eV

  energy without entropy =       -7.90247344  energy(sigma->0) =       -7.90247344


--------------------------------------------------------------------------------------------------------




--------------------------------------- Iteration      1(  17)  ---------------------------------------


    POTLOK:  cpu time     23.9827: real time     23.9907
    SETDIJ:  cpu time      6.9292: real time      6.9331
    TRIAL :  cpu time      6.0103: real time      6.0122
    CORREC:  cpu time     69.1473: real time     69.6870
    CHARGE:  cpu time     36.7371: real time     37.2784
    --------------------------------------------
      LOOP:  cpu time    142.8187: real time    143.9137

 eigenvalue-minimisations  :     0
 total energy-change (2. order) :-0.1795511E-05  (-0.1910911E-06)
 number of electron      11.0000023 magnetization       0.9999999
 augmentation part        7.1884295 magnetization      -0.1725116

 Free energy of the ion-electron system (eV)
  ---------------------------------------------------
  alpha Z        PSCENC =         0.09141600
  Ewald energy   TEWEN  =      -123.59085203
  -Hartree energ DENC   =     -1152.16865842
  -exchange      EXHF   =         0.00000000
  -V(xc)+E(xc)   XCENC  =        57.16507416
  PAW double counting   =      1211.70936400    -1338.72158515
  entropy T*S    EENTRO =        -0.00000000
  eigenvalues    EBANDS =       -53.36428780
  atomic energy  EATOM  =      1390.97705399
  ---------------------------------------------------
  free energy    TOTEN  =        -7.90247524 eV

  energy without entropy =       -7.90247524  energy(sigma->0) =       -7.90247524


--------------------------------------------------------------------------------------------------------




--------------------------------------- Iteration      1(  18)  ---------------------------------------


    POTLOK:  cpu time     23.9753: real time     23.9836
    SETDIJ:  cpu time      6.9229: real time      6.9263
    TRIAL :  cpu time      6.0047: real time      6.0065
    CORREC:  cpu time    277.3120: real time    279.0396
    EDDIAG:  cpu time      1.5260: real time      1.5267
    CHARGE:  cpu time     36.7651: real time     37.3492
    --------------------------------------------
      LOOP:  cpu time    352.5104: real time    354.8441

 eigenvalue-minimisations  :     0
 total energy-change (2. order) :-0.1062995E-07  (-0.1990257E-07)
 number of electron      11.0000023 magnetization       0.9999999
 augmentation part        7.1884788 magnetization      -0.1724525

 Free energy of the ion-electron system (eV)
  ---------------------------------------------------
  alpha Z        PSCENC =         0.09141600
  Ewald energy   TEWEN  =      -123.59085203
  -Hartree energ DENC   =     -1152.16018370
  -exchange      EXHF   =         0.00000000
  -V(xc)+E(xc)   XCENC  =        57.16459106
  PAW double counting   =      1211.70994975    -1338.71969334
  entropy T*S    EENTRO =        -0.00000000
  eigenvalues    EBANDS =       -53.37475698
  atomic energy  EATOM  =      1390.97705399
  ---------------------------------------------------
  free energy    TOTEN  =        -7.90247525 eV

  energy without entropy =       -7.90247525  energy(sigma->0) =       -7.90247525


--------------------------------------------------------------------------------------------------------


  average scaling for gradient   1.5744


 average (electrostatic) potential at core
  the test charge radii are     0.9430
  (the norm of the test charge is              1.0000)
       1 -74.8849
 
 
 
 E-fermi :  -4.5144     XC(G=0):  -0.1214     alpha+bet : -0.0198

 Fermi energy:        -4.5144369615

 spin component 1

 k-point     1 :       0.0000    0.0000    0.0000
  band No.  band energies     occupation 
      1      -4.9461      1.00000
      2      -4.9328      1.00000
      3      -4.9328      1.00000
      4      -4.9328      1.00000
      5      -4.9328      1.00000
      6      -4.9328      1.00000
      7      -0.8173      0.00000
      8      -0.8173      0.00000
      9      -0.8173      0.00000
     10      -0.0948      0.00000
     11       0.2522      0.00000
     12       0.3464      0.00000
 Fermi energy:        -4.5144369615

 spin component 2

 k-point     1 :       0.0000    0.0000    0.0000
  band No.  band energies     occupation 
      1      -4.7558      1.00000
      2      -4.7558      1.00000
      3      -4.7558      1.00000
      4      -4.7558      1.00000
      5      -4.7558      1.00000
      6      -3.7578      0.00000
      7      -0.1219      0.00000
      8      -0.1219      0.00000
      9      -0.1219      0.00000
     10      -0.0013      0.00000
     11       0.3743      0.00000
     12       0.3963      0.00000


--------------------------------------------------------------------------------------------------------


 soft charge-density along one line, spin component           1
         0         1         2         3         4         5         6         7         8         9
 total charge-density along one line
 
 soft charge-density along one line, spin component           2
         0         1         2         3         4         5         6         7         8         9
 total charge-density along one line
 
 pseudopotential strength for first ion, spin component:           1
-10.059   0.000  -0.000  -0.000  -0.000   0.524  -0.000   0.000
  0.000 -10.059   0.000  -0.000   0.000  -0.000   0.524  -0.000
 -0.000   0.000 -10.059   0.000   0.000   0.000  -0.000   0.524
 -0.000  -0.000   0.000 -10.059   0.000   0.000   0.000  -0.000
 -0.000   0.000   0.000   0.000 -10.059   0.000  -0.000  -0.000
  0.524  -0.000   0.000   0.000   0.000   6.864   0.000  -0.000
 -0.000   0.524  -0.000   0.000  -0.000   0.000   6.864  -0.000
  0.000  -0.000   0.524  -0.000  -0.000  -0.000  -0.000   6.864
  0.000   0.000  -0.000   0.524  -0.000  -0.000  -0.000   0.000
  0.000  -0.000  -0.000  -0.000   0.524  -0.000   0.000   0.000
 -0.000   0.000  -0.000  -0.000   0.000   0.000   0.000  -0.000
 -0.000  -0.000  -0.000  -0.000   0.000   0.000   0.000  -0.000
  0.000   0.000  -0.000  -0.000  -0.000  -0.000  -0.000   0.000
 -0.000   0.000   0.000   0.000  -0.000   0.000  -0.000  -0.000
  0.000  -0.000  -0.000   0.000   0.000  -0.000   0.000   0.000
  0.000   0.000  -0.000  -0.000  -0.000   0.000   0.000  -0.000
 -0.000   0.000   0.000   0.000   0.000   0.000   0.000   0.000
  0.000  -0.000  -0.000   0.000   0.000   0.000   0.000  -0.000
 pseudopotential strength for first ion, spin component:           2
-10.140   0.000  -0.000  -0.000  -0.000   0.591  -0.000   0.000
  0.000 -10.140   0.000  -0.000   0.000  -0.000   0.591  -0.000
 -0.000   0.000 -10.140   0.000   0.000   0.000  -0.000   0.591
 -0.000  -0.000   0.000 -10.140   0.000   0.000   0.000  -0.000
 -0.000   0.000   0.000   0.000 -10.140   0.000  -0.000  -0.000
  0.591  -0.000   0.000   0.000   0.000   6.810   0.000  -0.000
 -0.000   0.591  -0.000   0.000  -0.000   0.000   6.810  -0.000
  0.000  -0.000   0.591  -0.000  -0.000  -0.000  -0.000   6.810
  0.000   0.000  -0.000   0.591  -0.000  -0.000  -0.000   0.000
  0.000  -0.000  -0.000  -0.000   0.591  -0.000   0.000   0.000
 -0.000   0.000   0.000  -0.000   0.000   0.000   0.000  -0.000
 -0.000   0.000   0.000  -0.000   0.000   0.000   0.000  -0.000
  0.000   0.000  -0.000   0.000  -0.000  -0.000  -0.000   0.000
  0.000   0.000   0.000   0.000  -0.000   0.000  -0.000  -0.000
  0.000   0.000  -0.000   0.000   0.000  -0.000   0.000   0.000
  0.000   0.000  -0.000   0.000  -0.000   0.000   0.000  -0.000
  0.000   0.000   0.000   0.000  -0.000   0.000   0.000   0.000
  0.000  -0.000  -0.000   0.000   0.000   0.000   0.000  -0.000
 total augmentation occupancy for first ion, spin component:           1
  2.010   0.000   0.000   0.000   0.000   0.007   0.000   0.000  -0.000   0.000   0.000   0.000   0.000   0.000   0.000   0.000
  0.000   2.010  -0.000   0.000   0.000   0.000   0.007   0.000   0.000  -0.000   0.000  -0.000   0.000   0.000   0.000   0.000
  0.000  -0.000   2.010  -0.000  -0.000  -0.000  -0.000   0.007   0.000   0.000  -0.000   0.000   0.000   0.000   0.000   0.000
  0.000   0.000  -0.000   2.010  -0.000  -0.000   0.000  -0.000   0.007   0.000  -0.000   0.000   0.000   0.000   0.000   0.000
  0.000  -0.000  -0.000   0.000   2.010   0.000  -0.000   0.000   0.000   0.007   0.000  -0.000   0.000   0.000   0.000   0.000
  0.007   0.000  -0.000   0.000   0.000   0.000  -0.000   0.000   0.000   0.000   0.000   0.000   0.000   0.000   0.000   0.000
  0.000   0.007  -0.000   0.000  -0.000   0.000   0.000   0.000  -0.000  -0.000  -0.000   0.000   0.000   0.000   0.000   0.000
  0.000  -0.000   0.007  -0.000   0.000  -0.000   0.000   0.000   0.000   0.000   0.000  -0.000   0.000   0.000   0.000   0.000
  0.000   0.000   0.000   0.007   0.000   0.000   0.000   0.000   0.000  -0.000   0.000  -0.000   0.000   0.000   0.000   0.000
  0.000  -0.000   0.000   0.000   0.007  -0.000   0.000  -0.000   0.000   0.000  -0.000  -0.000   0.000   0.000   0.000   0.000
  0.000  -0.000  -0.000   0.000   0.000   0.000  -0.000   0.000   0.000  -0.000   0.843   0.045   0.000   0.000   0.000   0.000
 -0.000  -0.000   0.000  -0.000  -0.000   0.000   0.000  -0.000   0.000  -0.000   0.045   0.002   0.000   0.000   0.000   0.000
  0.000   0.000   0.000   0.000   0.000   0.000   0.000   0.000   0.000   0.000   0.000   0.000   0.000   0.000   0.000  -0.000
  0.000   0.000   0.000   0.000   0.000   0.000   0.000   0.000   0.000   0.000   0.000   0.000   0.000   0.000  -0.000  -0.000
  0.000   0.000   0.000   0.000   0.000   0.000   0.000   0.000   0.000   0.000   0.000   0.000   0.000  -0.000   0.000  -0.000
  0.000   0.000   0.000   0.000   0.000   0.000   0.000   0.000   0.000   0.000   0.000   0.000  -0.000  -0.000  -0.000   0.000
  0.000   0.000   0.000   0.000   0.000   0.000   0.000   0.000   0.000   0.000   0.000   0.000   0.000  -0.000   0.000   0.000
  0.000   0.000   0.000   0.000   0.000   0.000   0.000   0.000   0.000   0.000   0.000   0.000  -0.000   0.000  -0.000  -0.000
 total augmentation occupancy for first ion, spin component:           2
  0.008   0.000   0.000  -0.000   0.000   0.022   0.000   0.000   0.000  -0.000   0.000   0.000   0.000   0.000   0.000   0.000
  0.000   0.008  -0.000   0.000  -0.000  -0.000   0.022  -0.000  -0.000  -0.000   0.000   0.000   0.000   0.000   0.000   0.000
  0.000  -0.000   0.007   0.000   0.000   0.000   0.000   0.022  -0.000  -0.000  -0.000   0.000   0.000   0.000   0.000   0.000
 -0.000   0.000  -0.000   0.008  -0.000   0.000   0.000  -0.000   0.022   0.000   0.000  -0.000   0.000   0.000   0.000   0.000
  0.000   0.000   0.000   0.000   0.007   0.000  -0.000   0.000  -0.000   0.022  -0.000  -0.000   0.000   0.000   0.000   0.000
  0.022   0.000   0.000   0.000   0.000   0.000   0.000  -0.000   0.000  -0.000  -0.000  -0.000   0.000   0.000   0.000   0.000
 -0.000   0.022   0.000   0.000  -0.000  -0.000   0.000  -0.000   0.000   0.000  -0.000  -0.000   0.000   0.000   0.000   0.000
  0.000   0.000   0.022  -0.000  -0.000  -0.000  -0.000   0.000  -0.000  -0.000   0.000  -0.000   0.000   0.000   0.000   0.000
 -0.000   0.000   0.000   0.022  -0.000  -0.000   0.000   0.000   0.000   0.000   0.000  -0.000   0.000   0.000   0.000   0.000
 -0.000  -0.000   0.000  -0.000   0.022  -0.000   0.000   0.000  -0.000   0.000   0.000   0.000   0.000   0.000   0.000   0.000
 -0.000   0.000  -0.000  -0.000  -0.000  -0.000  -0.000   0.000   0.000   0.000   0.843   0.045   0.000   0.000   0.000   0.000
  0.000   0.000   0.000   0.000   0.000  -0.000   0.000  -0.000   0.000   0.000   0.045   0.002   0.000   0.000   0.000   0.000
  0.000   0.000   0.000   0.000   0.000   0.000   0.000   0.000   0.000   0.000   0.000   0.000  -0.000   0.000   0.000   0.000
  0.000   0.000   0.000   0.000   0.000   0.000   0.000   0.000   0.000   0.000   0.000   0.000   0.000  -0.000   0.000   0.000
  0.000   0.000   0.000   0.000   0.000   0.000   0.000   0.000   0.000   0.000   0.000   0.000   0.000   0.000  -0.000   0.000
  0.000   0.000   0.000   0.000   0.000   0.000   0.000   0.000   0.000   0.000   0.000   0.000   0.000   0.000   0.000   0.000
  0.000   0.000   0.000   0.000   0.000   0.000   0.000   0.000   0.000   0.000   0.000   0.000   0.000   0.000  -0.000  -0.000
  0.000   0.000   0.000   0.000   0.000   0.000   0.000   0.000   0.000   0.000   0.000   0.000   0.000  -0.000   0.000   0.000


------------------------ aborting loop because EDIFF is reached ----------------------------------------


    FORLOC:  cpu time      0.0797: real time      0.0796
    FORNL :  cpu time      0.7016: real time      0.7014
    STRESS:  cpu time     54.1970: real time     54.6553
    FORCOR:  cpu time     23.0912: real time     23.0996
    OFIELD:  cpu time      0.0097: real time      0.0097

  FORCE on cell =-STRESS in cart. coord.  units (eV):
  Direction    XX          YY          ZZ          XY          YZ          ZX
  --------------------------------------------------------------------------------------
  Alpha Z     0.09142     0.09142     0.09142
  Ewald     -41.19695   -41.19695   -41.19695    -0.00000    -0.00000     0.00000
  Hartree   384.04897   384.04897   384.04897    -0.00000    -0.00000    -0.00000
  E(xc)     -76.68893   -76.68895   -76.68895     0.00000     0.00000     0.00000
  Local    -432.94872  -432.94872  -432.94872    -0.00000     0.00000     0.00000
  n-local   -36.13724   -36.13653   -36.13718    -0.00032    -0.00038    -0.00001
  augment   109.91298   109.91298   109.91298     0.00000    -0.00000    -0.00000
  Kinetic    92.84049    92.84027    92.84051     0.00013     0.00015     0.00001
  Fock        0.00000     0.00000     0.00000     0.00000     0.00000     0.00000
  -------------------------------------------------------------------------------------
  Total      -0.07781    -0.07781    -0.07781    -0.00000     0.00000     0.00000
  in kB      -0.01558    -0.01558    -0.01558    -0.00000     0.00000     0.00000
  external pressure =       -0.02 kB  Pullay stress =        0.00 kB


 VOLUME and BASIS-vectors are now :
 -----------------------------------------------------------------------------
  energy-cutoff  :      520.00
  volume of cell :     8000.00
      direct lattice vectors                 reciprocal lattice vectors
    20.000000000  0.000000000  0.000000000     0.050000000  0.000000000  0.000000000
     0.000000000 20.000000000  0.000000000     0.000000000  0.050000000  0.000000000
     0.000000000  0.000000000 20.000000000     0.000000000  0.000000000  0.050000000

  length of vectors
    20.000000000 20.000000000 20.000000000     0.050000000  0.050000000  0.050000000


 FORCES acting on ions:
    Electron-Ion                     Ewald-Force                    Non-Local-Force
 -----------------------------------------------------------------------------------------------
   0.140E-12 0.509E-10 -.187E-10   -.362E-18 -.611E-17 0.342E-16   -.529E-22 0.926E-22 -.265E-22
 -----------------------------------------------------------------------------------------------
   0.403E-10 0.591E-10 0.406E-11   -.362E-18 -.611E-17 0.342E-16   -.529E-22 0.926E-22 -.265E-22
 
 
 POSITION                                       TOTAL-FORCE (eV/Angst)
 -----------------------------------------------------------------------------------
      9.00000      9.20000     12.00000         0.000000      0.000000      0.000000
 -----------------------------------------------------------------------------------
    total drift:                                0.000000      0.000000      0.000000


--------------------------------------------------------------------------------------------------------



  FREE ENERGIE OF THE ION-ELECTRON SYSTEM (eV)
  ---------------------------------------------------
  free  energy   TOTEN  =        -7.90247525 eV

  energy  without entropy=       -7.90247525  energy(sigma->0) =       -7.90247525
 


--------------------------------------------------------------------------------------------------------


    POTLOK:  cpu time     30.9995: real time     31.0127


--------------------------------------------------------------------------------------------------------


     LOOP+:  cpu time   2297.2263: real time   2312.5494
    4ORBIT:  cpu time      0.0000: real time      0.0000

 total amount of memory used by VASP MPI-rank0   403399. kBytes
=======================================================================

   base      :      30000. kBytes
   nonlr-proj:        373. kBytes
   fftplans  :      82868. kBytes
   grid      :     274602. kBytes
   one-center:         31. kBytes
   wavefun   :      15525. kBytes
 
  
  
 General timing and accounting informations for this job:
 ========================================================
  
                  Total CPU time used (sec):     2313.706
                            User time (sec):     2099.266
                          System time (sec):      214.440
                         Elapsed time (sec):     2329.979
  
                   Maximum memory used (kb):     2027236.
                   Average memory used (kb):          N/A
  
                          Minor page faults:     10851871
                          Major page faults:            0
                 Voluntary context switches:        26415
