 vasp.6.4.0 14Feb23 (build Jul 14 2023 13:46:40) complex                        
  
 executed on             LinuxIFC date 2023.07.16  13:48:50
 running   64 mpi-ranks, with    1 threads/rank, on    2 nodes
 distrk:  each k-point on   64 cores,    1 groups
 distr:  one band on NCORE=   1 cores,   64 groups


--------------------------------------------------------------------------------------------------------


 INCAR:
   SYSTEM = MgO-rocksalt
   ISMEAR = 0
   SIGMA = 0.05
   EDIFF = 1E-6
   ALGO = ALL
   ISTART = 0
   IBRION = -1
   NSW = 0
   ISYM = 2
   GGA = RE
   IVDW = 11
   ENCUT = 520
   PREC = Accurate
   LASPH = .TRUE.
   LREAL = Auto
   ISPIN = 1
   NELM = 200
   NELMIN = 8
   NCORE = 1
   KPAR = 1
   LWAVE = .FALSE.
   LCHARG = .FALSE.

 POTCAR:    PAW_PBE Au 04Oct2007                  
 POTCAR:    PAW_PBE Au 04Oct2007                  
   SHA256 =  d0044ae04e2bdce24051b198fc5c053d722a5bc6fe3c3b100514a13fc5d2db88 Au/POTCAR             
   COPYR  = (c) Copyright 04Oct2007 Georg Kresse                                                    
   COPYR  = This file is part of the software VASP. Any use, copying, and all other rights are regul
   COPYR  = If you do not have a valid VASP license, you may not use, copy or distribute this file. 
   VRHFIN =Au: s1d10                                                                                
   LEXCH  = PE                                                                                      
   EATOM  =   926.0867 eV,   68.0654 Ry                                                             
                                                                                                    
   TITEL  = PAW_PBE Au 04Oct2007                                                                    
   LULTRA =        F    use ultrasoft PP ?                                                          
   IUNSCR =        1    unscreen: 0-lin 1-nonlin 2-no                                               
   RPACOR =    2.330    partial core radius                                                         
   POMASS =  196.966; ZVAL   =   11.000    mass and valenz                                          
   RCORE  =    2.500    outmost cutoff radius                                                       
   RWIGS  =    2.840; RWIGS  =    1.503    wigner-seitz radius (au A)                               
   ENMAX  =  229.943; ENMIN  =  172.457 eV                                                          
   ICORE  =        3    local potential                                                             
   LCOR   =        T    correct aug charges                                                         
   LPAW   =        T    paw PP                                                                      
   EAUG   =  356.670                                                                                
   DEXC   =    0.000                                                                                
   RMAX   =    2.562    core radius for proj-oper                                                   
   RAUG   =    1.300    factor for augmentation sphere                                              
   RDEP   =    2.598    radius for radial grids                                                     
   RDEPT  =    2.193    core radius for aug-charge                                                  
                                                                                                    
   Atomic configuration                                                                             
   16 entries                                                                                       
     n  l   j            E        occ.                                                              
     1  0  0.50    -80748.5001   2.0000                                                             
     2  0  0.50    -14244.7466   2.0000                                                             
     2  1  1.50    -12310.9591   6.0000                                                             
     3  0  0.50     -3362.1768   2.0000                                                             
     3  1  1.50     -2801.5463   6.0000                                                             
     3  2  2.50     -2203.8206  10.0000                                                             
     4  0  0.50      -729.8168   2.0000                                                             
     4  1  1.50      -546.0527   6.0000                                                             
     4  2  2.50      -325.7302  10.0000                                                             
     4  3  3.50       -81.1472  14.0000                                                             
     5  0  0.50      -108.3201   2.0000                                                             
     5  1  1.50       -59.7479   6.0000                                                             
     5  2  2.50        -6.8783  10.0000                                                             
     6  0  0.50        -5.7602   1.0000                                                             
     6  1  1.50        -6.8029   0.0000                                                             
     5  3  2.50        -1.3606   0.0000                                                             
   Description                                                                                      
     l       E           TYP  RCUT    TYP  RCUT                                                     
     2     -6.8782861     23  2.500                                                                 
     2     -8.2388687     23  2.500                                                                 
     0     -5.7601759     23  2.500                                                                 
     0     -0.8493231     23  2.500                                                                 
     1     -2.7211652     23  2.500                                                                 
     1     27.2116520     23  2.500                                                                 
     3     -1.3605826     23  2.500                                                                 
  local pseudopotential read in
  partial core-charges read in
  partial kinetic energy density read in
  atomic valenz-charges read in
  non local Contribution for L=           2  read in
    real space projection operators read in
  non local Contribution for L=           2  read in
    real space projection operators read in
  non local Contribution for L=           0  read in
    real space projection operators read in
  non local Contribution for L=           0  read in
    real space projection operators read in
  non local Contribution for L=           1  read in
    real space projection operators read in
  non local Contribution for L=           1  read in
    real space projection operators read in
    PAW grid and wavefunctions read in
 
   number of l-projection  operators is LMAX  =           6
   number of lm-projection operators is LMMAX =          18
 
 -----------------------------------------------------------------------------
|                                                                             |
|               ----> ADVICE to this user running VASP <----                  |
|                                                                             |
|     You have a (more or less) 'small supercell' and for smaller cells       |
|     it is recommended to use the reciprocal-space projection scheme!        |
|     The real-space optimization is not efficient for small cells and it     |
|     is also less accurate ...                                               |
|     Therefore, set LREAL=.FALSE. in the INCAR file.                         |
|                                                                             |
 -----------------------------------------------------------------------------

 Optimization of the real space projectors (new method)

 maximal supplied QI-value         = 15.12
 optimisation between [QCUT,QGAM] = [ 11.64, 23.28] = [ 37.95,151.78] Ry 
 Optimized for a Real-space Cutoff    1.49 Angstroem

   l    n(q)    QCUT    max X(q) W(low)/X(q) W(high)/X(q)  e(spline) 
   2      9    11.641    60.898    0.24E-03    0.10E-03    0.19E-06
   2      9    11.641    58.894    0.25E-03    0.10E-03    0.19E-06
   0     10    11.641   109.617    0.73E-04    0.33E-04    0.11E-06
   0     10    11.641    75.026    0.71E-04    0.32E-04    0.11E-06
   1     10    11.641    16.344    0.27E-04    0.97E-04    0.16E-06
   1     10    11.641    10.160    0.23E-04    0.77E-04    0.13E-06
 -----------------------------------------------------------------------------
|                                                                             |
|               ----> ADVICE to this user running VASP <----                  |
|                                                                             |
|     You enforced a specific xc type in the INCAR file but a different       |
|     type was found in the POTCAR file.                                      |
|     I HOPE YOU KNOW WHAT YOU ARE DOING!                                     |
|                                                                             |
 -----------------------------------------------------------------------------

  PAW_PBE Au 04Oct2007                  :
 energy of atom  1       EATOM= -926.0867
 kinetic energy error for atom=    0.0034 (will be added to EATOM!!)
 
 
 POSCAR: Au
  positions in direct lattice
  velocities in cartesian coordinates
 exchange correlation table for  LEXCH =       40
   RHO(1)=    0.500       N(1)  =     2000
   RHO(2)=  100.500       N(2)  =     4000
 


--------------------------------------------------------------------------------------------------------


 ion  position               nearest neighbor table
   1  0.650  0.424  0.459-   7 2.66   6 2.68   5 2.75
   2  0.434  0.575  0.516-   3 2.63   8 2.64   6 2.73   4 2.75
   3  0.350  0.533  0.609-   2 2.63   4 2.63
   4  0.456  0.458  0.585-   3 2.63   5 2.64   6 2.73   2 2.75
   5  0.563  0.385  0.558-   4 2.64   6 2.70   1 2.75
   6  0.543  0.499  0.489-   7 2.68   1 2.68   8 2.69   5 2.70   2 2.73   4 2.73
   7  0.628  0.537  0.392-   1 2.66   6 2.68   8 2.75
   8  0.519  0.615  0.424-   2 2.64   6 2.69   7 2.75
 
  LATTYP: Found a simple cubic cell.
 ALAT       =    20.0000000000
  
  Lattice vectors:
  
 A1 = (  20.0000000000,   0.0000000000,   0.0000000000)
 A2 = (   0.0000000000,  20.0000000000,   0.0000000000)
 A3 = (   0.0000000000,   0.0000000000,  20.0000000000)


Analysis of symmetry for initial positions (statically):
=====================================================================
 Subroutine PRICEL returns:
 Original cell was already a primitive cell.
 

 Routine SETGRP: Setting up the symmetry group for a 
 simple cubic supercell.


 Subroutine GETGRP returns: Found  1 space group operations
 (whereof  1 operations were pure point group operations)
 out of a pool of 48 trial point group operations.


The static configuration has the point symmetry C_1 .


Analysis of symmetry for dynamics (positions and initial velocities):
=====================================================================
 Subroutine PRICEL returns:
 Original cell was already a primitive cell.
 

 Routine SETGRP: Setting up the symmetry group for a 
 simple cubic supercell.


 Subroutine GETGRP returns: Found  1 space group operations
 (whereof  1 operations were pure point group operations)
 out of a pool of 48 trial point group operations.


The dynamic configuration has the point symmetry C_1 .


 Subroutine INISYM returns: Found  1 space group operations
 (whereof  1 operations are pure point group operations),
 and found     1 'primitive' translations


----------------------------------------------------------------------------------------

                                     Primitive cell                                     

  volume of cell :    8000.0000

  direct lattice vectors                    reciprocal lattice vectors
    20.000000000  0.000000000  0.000000000     0.050000000  0.000000000  0.000000000
     0.000000000 20.000000000  0.000000000     0.000000000  0.050000000  0.000000000
     0.000000000  0.000000000 20.000000000     0.000000000  0.000000000  0.050000000

  length of vectors
    20.000000000 20.000000000 20.000000000     0.050000000  0.050000000  0.050000000

  position of ions in fractional coordinates (direct lattice)
     0.649654978  0.423558317  0.458565860
     0.433713692  0.575133551  0.516445547
     0.350069868  0.532548571  0.608816860
     0.455977314  0.457948338  0.585018236
     0.562772073  0.385075347  0.558032626
     0.543193335  0.498927337  0.488662771
     0.628180520  0.536636896  0.392407264
     0.519336664  0.614668210  0.423964480

  ion indices of the primitive-cell ions
   primitive index   ion index
                 1           1
                 2           2
                 3           3
                 4           4
                 5           5
                 6           6
                 7           7
                 8           8

----------------------------------------------------------------------------------------

 
 
 KPOINTS: KPOINTS created by Atomic Simulation Env

Automatic generation of k-mesh.
 Grid dimensions read from file:
 generate k-points for:    1    1    1

 Generating k-lattice:

  Cartesian coordinates                     Fractional coordinates (reciprocal lattice)
     0.050000000  0.000000000  0.000000000     1.000000000  0.000000000  0.000000000
     0.000000000  0.050000000  0.000000000     0.000000000  1.000000000  0.000000000
     0.000000000  0.000000000  0.050000000     0.000000000  0.000000000  1.000000000

  Length of vectors
     0.050000000  0.050000000  0.050000000

  Shift w.r.t. Gamma in fractional coordinates (k-lattice)
     0.000000000  0.000000000  0.000000000

 
 Subroutine IBZKPT returns following result:
 ===========================================
 
 Found      1 irreducible k-points:
 
 Following reciprocal coordinates:
            Coordinates               Weight
  0.000000  0.000000  0.000000      1.000000
 
 Following cartesian coordinates:
            Coordinates               Weight
  0.000000  0.000000  0.000000      1.000000
 


--------------------------------------------------------------------------------------------------------




 Dimension of arrays:
   k-points           NKPTS =      1   k-points in BZ     NKDIM =      1   number of bands    NBANDS=     64
   number of dos      NEDOS =    301   number of ions     NIONS =      8
   non local maximal  LDIM  =      6   non local SUM 2l+1 LMDIM =     18
   total plane-waves  NPLWV = ******
   max r-space proj   IRMAX =   5885   max aug-charges    IRDMAX=  25995
   dimension x,y,z NGX =   150 NGY =  150 NGZ =  150
   dimension x,y,z NGXF=   300 NGYF=  300 NGZF=  300
   support grid    NGXF=   300 NGYF=  300 NGZF=  300
   ions per type =               8
   NGX,Y,Z   is equivalent  to a cutoff of  12.47, 12.47, 12.47 a.u.
   NGXF,Y,Z  is equivalent  to a cutoff of  24.94, 24.94, 24.94 a.u.

 SYSTEM =  MgO-rocksalt                            
 POSCAR =  Au                                      

 Startparameter for this run:
   NWRITE =      2    write-flag & timer
   PREC   = accura    normal or accurate (medium, high low for compatibility)
   ISTART =      0    job   : 0-new  1-cont  2-samecut
   ICHARG =      2    charge: 1-file 2-atom 10-const
   ISPIN  =      1    spin polarized calculation?
   LNONCOLLINEAR =      F non collinear calculations
   LSORBIT =      F    spin-orbit coupling
   INIWAV =      1    electr: 0-lowe 1-rand  2-diag
   LASPH  =      T    aspherical Exc in radial PAW
 Electronic Relaxation 1
   ENCUT  =  520.0 eV  38.22 Ry    6.18 a.u.  37.19 37.19 37.19*2*pi/ulx,y,z
   ENINI  =  520.0     initial cutoff
   ENAUG  =  356.7 eV  augmentation charge cutoff
   NELM   =    200;   NELMIN=  8; NELMDL= -5     # of ELM steps 
   EDIFF  = 0.1E-05   stopping-criterion for ELM
   LREAL  =      T    real-space projection
   NLSPLINE    = F    spline interpolate recip. space projectors
   LCOMPAT=      F    compatible to vasp.4.4
   GGA_COMPAT  = T    GGA compatible to vasp.4.4-vasp.4.6
   LMAXPAW     = -100 max onsite density
   LMAXMIX     =    2 max onsite mixed and CHGCAR
   VOSKOWN=      0    Vosko Wilk Nusair interpolation
   ROPT   =   -0.00025
 Ionic relaxation
   EDIFFG = 0.1E-04   stopping-criterion for IOM
   NSW    =      0    number of steps for IOM
   NBLOCK =      1;   KBLOCK =      1    inner block; outer block 
   IBRION =     -1    ionic relax: 0-MD 1-quasi-New 2-CG
   NFREE  =      0    steps in history (QN), initial steepest desc. (CG)
   ISIF   =      2    stress and relaxation
   IWAVPR =     10    prediction:  0-non 1-charg 2-wave 3-comb
   ISYM   =      2    0-nonsym 1-usesym 2-fastsym
   LCORR  =      T    Harris-Foulkes like correction to forces

   POTIM  = 0.5000    time-step for ionic-motion
   TEIN   =    0.0    initial temperature
   TEBEG  =    0.0;   TEEND  =   0.0 temperature during run
   SMASS  =  -3.00    Nose mass-parameter (am)
   estimated Nose-frequenzy (Omega)   =  0.10E-29 period in steps = 0.13E+47 mass=  -0.914E-26a.u.
   SCALEE = 1.0000    scale energy and forces
   NPACO  =    256;   APACO  = 10.0  distance and # of slots for P.C.
   PSTRESS=    0.0 pullay stress

  Mass of Ions in am
   POMASS = 196.97
  Ionic Valenz
   ZVAL   =  11.00
  Atomic Wigner-Seitz radii
   RWIGS  =  -1.00
  virtual crystal weights 
   VCA    =   1.00
   NELECT =      88.0000    total number of electrons
   NUPDOWN=      -1.0000    fix difference up-down

 DOS related values:
   EMIN   =  10.00;   EMAX   =-10.00  energy-range for DOS
   EFERMI =   0.00;   METHOD = LEGACY      
   ISMEAR =     0;   SIGMA  =   0.05  broadening in eV -4-tet -1-fermi 0-gaus

 Electronic relaxation 2 (details)
   IALGO  =     58    algorithm
   LDIAG  =      T    sub-space diagonalisation (order eigenvalues)
   LSUBROT=      F    optimize rotation matrix (better conditioning)
   TURBO    =      0    0=normal 1=particle mesh
   IRESTART =      0    0=no restart 2=restart with 2 vectors
   NREBOOT  =      0    no. of reboots
   NMIN     =      0    reboot dimension
   EREF     =   0.00    reference energy to select bands
   IMIX   =      4    mixing-type and parameters
     AMIX     =   0.40;   BMIX     =  1.00
     AMIX_MAG =   1.60;   BMIX_MAG =  1.00
     AMIN     =   0.10
     WC   =   100.;   INIMIX=   1;  MIXPRE=   1;  MAXMIX= -45

 Intra band minimization:
   WEIMIN = 0.0000     energy-eigenvalue tresh-hold
   EBREAK =  0.39E-08  absolut break condition
   DEPER  =   0.30     relativ break condition  

   TIME   =   0.40     timestep for ELM

  volume/ion in A,a.u.               =    1000.00      6748.33
  Fermi-wavevector in a.u.,A,eV,Ry     =   0.364087  0.688026  1.803584  0.132560
  Thomas-Fermi vector in A             =   1.286639
 
 Write flags
   LWAVE        =      F    write WAVECAR
   LDOWNSAMPLE  =      F    k-point downsampling of WAVECAR
   LCHARG       =      F    write CHGCAR
   LVTOT        =      F    write LOCPOT, total local potential
   LVHAR        =      F    write LOCPOT, Hartree potential only
   LELF         =      F    write electronic localiz. function (ELF)
   LORBIT       =      0    0 simple, 1 ext, 2 COOP (PROOUT), +10 PAW based schemes


 Dipole corrections
   LMONO  =      F    monopole corrections only (constant potential shift)
   LDIPOL =      F    correct potential (dipole corrections)
   IDIPOL =      0    1-x, 2-y, 3-z, 4-all directions 
   EPSILON=  1.0000000 bulk dielectric constant

 Exchange correlation treatment:
   GGA     =    RE    GGA type
   LEXCH   =    40    internal setting for exchange type
   LIBXC   =     F    Libxc                    
   VOSKOWN =     0    Vosko Wilk Nusair interpolation
   LHFCALC =     F    Hartree Fock is set to
   LHFONE  =     F    Hartree Fock one center treatment
   AEXX    =    0.0000 exact exchange contribution

 Linear response parameters
   LEPSILON=     F    determine dielectric tensor
   LRPA    =     F    only Hartree local field effects (RPA)
   LNABLA  =     F    use nabla operator in PAW spheres
   LVEL    =     F    velocity operator in full k-point grid
   CSHIFT  =0.1000    complex shift for real part using Kramers Kronig
   OMEGAMAX=  -1.0    maximum frequency
   DEG_THRESHOLD= 0.2000000E-02 threshold for treating states as degnerate
   RTIME   =   -0.100 relaxation time in fs
  (WPLASMAI=    0.000 imaginary part of plasma frequency in eV, 0.658/RTIME)
   DFIELD  = 0.0000000 0.0000000 0.0000000 field for delta impulse in time
 
  Optional k-point grid parameters
   LKPOINTS_OPT  =     F    use optional k-point grid
   KPOINTS_OPT_MODE=     1    mode for optional k-point grid
 
 Orbital magnetization related:
   ORBITALMAG=     F  switch on orbital magnetization
   LCHIMAG   =     F  perturbation theory with respect to B field
   DQ        =  0.001000  dq finite difference perturbation B field
   LLRAUG    =     F  two centre corrections for induced B field
   LBONE     =     F  B-component reconstruction in AE one-centre
   LVGVCALC  =     T  calculate vGv susceptibility
   LVGVAPPL  =     F  apply vGv susceptibility instead of pGv for G=0

 Random number generation:
   RANDOM_GENERATOR = DEFAULT
   PCG_SEED         = not used


--------------------------------------------------------------------------------------------------------


 Static calculation
 charge density and potential will be updated during run
 non-spin polarized calculation
 Conjugate gradient for all bands (Freysoldt, et al. PRB 79, 241103 (2009))
 preconditioned conjugated gradient                                        
 perform sub-space diagonalisation
    before iterative eigenvector-optimisation
 modified Broyden-mixing scheme, WC =      100.0
 initial mixing is a Kerker type mixing with AMIX =  0.4000 and BMIX =      1.0000
 Hartree-type preconditioning will be used
 using additional bands           20
 real space projection scheme for non local part
 use partial core corrections
 no Harris-corrections to forces 
 use gradient corrections 
 use of overlap-Matrix (Vanderbilt PP)
 Gauss-broadening in eV      SIGMA  =   0.05


--------------------------------------------------------------------------------------------------------


  energy-cutoff  :      520.00
  volume of cell :     8000.00
      direct lattice vectors                 reciprocal lattice vectors
    20.000000000  0.000000000  0.000000000     0.050000000  0.000000000  0.000000000
     0.000000000 20.000000000  0.000000000     0.000000000  0.050000000  0.000000000
     0.000000000  0.000000000 20.000000000     0.000000000  0.000000000  0.050000000

  length of vectors
    20.000000000 20.000000000 20.000000000     0.050000000  0.050000000  0.050000000


 
 k-points in units of 2pi/SCALE and weight: KPOINTS created by Atomic Simulation Env
   0.00000000  0.00000000  0.00000000       1.000
 
 k-points in reciprocal lattice and weights: KPOINTS created by Atomic Simulation Env
   0.00000000  0.00000000  0.00000000       1.000
 
 position of ions in fractional coordinates (direct lattice) 
   0.64965498  0.42355832  0.45856586
   0.43371369  0.57513355  0.51644555
   0.35006987  0.53254857  0.60881686
   0.45597731  0.45794834  0.58501824
   0.56277207  0.38507535  0.55803263
   0.54319334  0.49892734  0.48866277
   0.62818052  0.53663690  0.39240726
   0.51933666  0.61466821  0.42396448
 
 position of ions in cartesian coordinates  (Angst):
  12.99309956  8.47116634  9.17131720
   8.67427384 11.50267102 10.32891093
   7.00139736 10.65097141 12.17633721
   9.11954627  9.15896675 11.70036471
  11.25544145  7.70150693 11.16065253
  10.86386670  9.97854675  9.77325541
  12.56361039 10.73273791  7.84814528
  10.38673329 12.29336419  8.47928959
 


--------------------------------------------------------------------------------------------------------


 k-point   1 :   0.0000 0.0000 0.0000  plane waves:  215503

 maximum and minimum number of plane-waves per node :    215503   215503

 maximum number of plane-waves:    215503
 maximum index in each direction: 
   IXMAX=   37   IYMAX=   37   IZMAX=   37
   IXMIN=  -37   IYMIN=  -37   IZMIN=  -37


 serial   3D FFT for wavefunctions
 parallel 3D FFT for charge:
    minimum data exchange during FFTs selected (reduces bandwidth)


 total amount of memory used by VASP MPI-rank0   234236. kBytes
=======================================================================

   base      :      30000. kBytes
   nonlr-proj:       7982. kBytes
   fftplans  :      28721. kBytes
   grid      :     157056. kBytes
   one-center:        124. kBytes
   wavefun   :      10353. kBytes
 
     INWAV:  cpu time      0.0003: real time      0.0005
 Broyden mixing: mesh for mixing (old mesh)
   NGX = 75   NGY = 75   NGZ = 75
  (NGX  =300   NGY  =300   NGZ  =300)
  gives a total of 421875 points

 initial charge density was supplied:
 charge density of overlapping atoms calculated
 number of electron      88.0000000 magnetization 
 keeping initial charge density in first step


--------------------------------------------------------------------------------------------------------


 Maximum index for non-local projection operator         5684
 Maximum index for augmentation-charges         1019 (set IRDMAX)


--------------------------------------------------------------------------------------------------------


 First call to EWALD:  gamma=   0.089
 Maximum number of real-space cells 3x 3x 3
 Maximum number of reciprocal cells 3x 3x 3

    FEWALD:  cpu time      0.0074: real time      0.0085


--------------------------------------- Ionic step        1  -------------------------------------------




--------------------------------------- Iteration      1(   1)  ---------------------------------------


    POTLOK:  cpu time      1.0167: real time      1.0272
    SETDIJ:  cpu time      0.7393: real time      0.7403
    TRIAL :  cpu time      1.5138: real time      1.5799
    CORREC:  cpu time      0.0014: real time      0.0014
    --------------------------------------------
      LOOP:  cpu time      3.2801: real time      3.3587

 eigenvalue-minimisations  :   128
 total energy-change (2. order) : 0.6787461E+03  (-0.1690667E+04)
 number of electron      88.0000000 magnetization 
 augmentation part       88.0000000 magnetization 

 Free energy of the ion-electron system (eV)
  ---------------------------------------------------
  alpha Z        PSCENC =         9.31836840
  Ewald energy   TEWEN  =      6122.30460365
  -Hartree energ DENC   =    -13221.26928793
  -exchange      EXHF   =         0.00000000
  -V(xc)+E(xc)   XCENC  =       113.39563257
  PAW double counting   =      6996.65316917    -6804.19380968
  entropy T*S    EENTRO =        -0.01352433
  eigenvalues    EBANDS =        60.02715186
  atomic energy  EATOM  =      7402.52374884
  ---------------------------------------------------
  free energy    TOTEN  =       678.74605255 eV

  energy without entropy =      678.75957688  energy(sigma->0) =      678.75281471


--------------------------------------------------------------------------------------------------------




--------------------------------------- Iteration      1(   2)  ---------------------------------------


    TRIAL :  cpu time      2.6433: real time      2.6488
    CORREC:  cpu time      0.0009: real time      0.0009
    --------------------------------------------
      LOOP:  cpu time      2.6606: real time      2.6663

 eigenvalue-minimisations  :   256
 total energy-change (2. order) :-0.5210433E+03  (-0.5210286E+03)
 number of electron      88.0000000 magnetization 
 augmentation part       88.0000000 magnetization 

 Free energy of the ion-electron system (eV)
  ---------------------------------------------------
  alpha Z        PSCENC =         9.31836840
  Ewald energy   TEWEN  =      6122.30460365
  -Hartree energ DENC   =    -13221.26928793
  -exchange      EXHF   =         0.00000000
  -V(xc)+E(xc)   XCENC  =       113.39563257
  PAW double counting   =      6996.65316917    -6804.19380968
  entropy T*S    EENTRO =        -0.00000443
  eigenvalues    EBANDS =      -461.02966677
  atomic energy  EATOM  =      7402.52374884
  ---------------------------------------------------
  free energy    TOTEN  =       157.70275381 eV

  energy without entropy =      157.70275824  energy(sigma->0) =      157.70275602


--------------------------------------------------------------------------------------------------------




--------------------------------------- Iteration      1(   3)  ---------------------------------------


    TRIAL :  cpu time      2.5689: real time      2.5699
    CORREC:  cpu time      0.0005: real time      0.0005
    --------------------------------------------
      LOOP:  cpu time      2.5711: real time      2.5862

 eigenvalue-minimisations  :   256
 total energy-change (2. order) :-0.1717706E+03  (-0.1717706E+03)
 number of electron      88.0000000 magnetization 
 augmentation part       88.0000000 magnetization 

 Free energy of the ion-electron system (eV)
  ---------------------------------------------------
  alpha Z        PSCENC =         9.31836840
  Ewald energy   TEWEN  =      6122.30460365
  -Hartree energ DENC   =    -13221.26928793
  -exchange      EXHF   =         0.00000000
  -V(xc)+E(xc)   XCENC  =       113.39563257
  PAW double counting   =      6996.65316917    -6804.19380968
  entropy T*S    EENTRO =        -0.00000000
  eigenvalues    EBANDS =      -632.80026407
  atomic energy  EATOM  =      7402.52374884
  ---------------------------------------------------
  free energy    TOTEN  =       -14.06783905 eV

  energy without entropy =      -14.06783905  energy(sigma->0) =      -14.06783905


--------------------------------------------------------------------------------------------------------




--------------------------------------- Iteration      1(   4)  ---------------------------------------


    TRIAL :  cpu time      1.3444: real time      1.3444
    CORREC:  cpu time      0.0004: real time      0.0004
    --------------------------------------------
      LOOP:  cpu time      1.3464: real time      1.3605

 eigenvalue-minimisations  :   128
 total energy-change (2. order) :-0.2225883E+01  (-0.2225883E+01)
 number of electron      88.0000000 magnetization 
 augmentation part       88.0000000 magnetization 

 Free energy of the ion-electron system (eV)
  ---------------------------------------------------
  alpha Z        PSCENC =         9.31836840
  Ewald energy   TEWEN  =      6122.30460365
  -Hartree energ DENC   =    -13221.26928793
  -exchange      EXHF   =         0.00000000
  -V(xc)+E(xc)   XCENC  =       113.39563257
  PAW double counting   =      6996.65316917    -6804.19380968
  entropy T*S    EENTRO =        -0.00000000
  eigenvalues    EBANDS =      -635.02614667
  atomic energy  EATOM  =      7402.52374884
  ---------------------------------------------------
  free energy    TOTEN  =       -16.29372166 eV

  energy without entropy =      -16.29372166  energy(sigma->0) =      -16.29372166


--------------------------------------------------------------------------------------------------------




--------------------------------------- Iteration      1(   5)  ---------------------------------------


    TRIAL :  cpu time      2.5629: real time      2.5639
    CORREC:  cpu time      0.0005: real time      0.0005
    CHARGE:  cpu time      0.4545: real time      0.4560
    --------------------------------------------
      LOOP:  cpu time      3.0196: real time      3.0360

 eigenvalue-minimisations  :   256
 total energy-change (2. order) :-0.2860752E-01  (-0.2860752E-01)
 number of electron      88.0000002 magnetization 
 augmentation part       31.5538354 magnetization 

 Free energy of the ion-electron system (eV)
  ---------------------------------------------------
  alpha Z        PSCENC =         9.31836840
  Ewald energy   TEWEN  =      6122.30460365
  -Hartree energ DENC   =    -13221.26928793
  -exchange      EXHF   =         0.00000000
  -V(xc)+E(xc)   XCENC  =       113.39563257
  PAW double counting   =      6996.65316917    -6804.19380968
  entropy T*S    EENTRO =        -0.00000000
  eigenvalues    EBANDS =      -635.05475419
  atomic energy  EATOM  =      7402.52374884
  ---------------------------------------------------
  free energy    TOTEN  =       -16.32232917 eV

  energy without entropy =      -16.32232917  energy(sigma->0) =      -16.32232917


--------------------------------------------------------------------------------------------------------




--------------------------------------- Iteration      1(   6)  ---------------------------------------


    POTLOK:  cpu time      0.9767: real time      0.9871
    SETDIJ:  cpu time      0.7272: real time      0.7278
    TRIAL :  cpu time      0.8976: real time      0.9692
    CORREC:  cpu time      2.3438: real time      2.3443
    CHARGE:  cpu time      0.4052: real time      0.4056
    --------------------------------------------
      LOOP:  cpu time      5.3670: real time      5.4508

 eigenvalue-minimisations  :     0
 total energy-change (2. order) : 0.2703737E+01  (-0.1391966E+01)
 number of electron      88.0000002 magnetization 
 augmentation part       32.2294156 magnetization 

 Free energy of the ion-electron system (eV)
  ---------------------------------------------------
  alpha Z        PSCENC =         9.31836840
  Ewald energy   TEWEN  =      6122.30460365
  -Hartree energ DENC   =    -13141.05127392
  -exchange      EXHF   =         0.00000000
  -V(xc)+E(xc)   XCENC  =       109.39439249
  PAW double counting   =      7852.45622491    -7676.42038033
  entropy T*S    EENTRO =        -0.00000000
  eigenvalues    EBANDS =      -692.14427650
  atomic energy  EATOM  =      7402.52374884
  ---------------------------------------------------
  free energy    TOTEN  =       -13.61859245 eV

  energy without entropy =      -13.61859245  energy(sigma->0) =      -13.61859245


--------------------------------------------------------------------------------------------------------




--------------------------------------- Iteration      1(   7)  ---------------------------------------


    POTLOK:  cpu time      0.9752: real time      0.9759
    SETDIJ:  cpu time      0.7318: real time      0.7324
    TRIAL :  cpu time      0.8083: real time      0.8077
    CORREC:  cpu time      2.3316: real time      2.3315
    CHARGE:  cpu time      0.3847: real time      0.3846
    --------------------------------------------
      LOOP:  cpu time      5.2339: real time      5.2495

 eigenvalue-minimisations  :     0
 total energy-change (2. order) :-0.1388853E+01  (-0.1156693E+00)
 number of electron      88.0000002 magnetization 
 augmentation part       32.2491125 magnetization 

 Free energy of the ion-electron system (eV)
  ---------------------------------------------------
  alpha Z        PSCENC =         9.31836840
  Ewald energy   TEWEN  =      6122.30460365
  -Hartree energ DENC   =    -13204.29298917
  -exchange      EXHF   =         0.00000000
  -V(xc)+E(xc)   XCENC  =       111.76147773
  PAW double counting   =      7916.79105152    -7739.32833080
  entropy T*S    EENTRO =        -0.00000000
  eigenvalues    EBANDS =      -634.08537564
  atomic energy  EATOM  =      7402.52374884
  ---------------------------------------------------
  free energy    TOTEN  =       -15.00744547 eV

  energy without entropy =      -15.00744547  energy(sigma->0) =      -15.00744547


--------------------------------------------------------------------------------------------------------




--------------------------------------- Iteration      1(   8)  ---------------------------------------


    POTLOK:  cpu time      0.9770: real time      0.9784
    SETDIJ:  cpu time      0.7263: real time      0.7261
    TRIAL :  cpu time      0.7627: real time      0.7629
    CORREC:  cpu time      2.3435: real time      2.3447
    CHARGE:  cpu time      0.4094: real time      0.4094
    --------------------------------------------
      LOOP:  cpu time      5.2214: real time      5.2380

 eigenvalue-minimisations  :     0
 total energy-change (2. order) :-0.1155320E+00  (-0.5773757E-01)
 number of electron      88.0000002 magnetization 
 augmentation part       32.2807975 magnetization 

 Free energy of the ion-electron system (eV)
  ---------------------------------------------------
  alpha Z        PSCENC =         9.31836840
  Ewald energy   TEWEN  =      6122.30460365
  -Hartree energ DENC   =    -13181.38642065
  -exchange      EXHF   =         0.00000000
  -V(xc)+E(xc)   XCENC  =       111.55130199
  PAW double counting   =      7884.47226464    -7706.81656306
  entropy T*S    EENTRO =        -0.00000000
  eigenvalues    EBANDS =      -657.09028124
  atomic energy  EATOM  =      7402.52374884
  ---------------------------------------------------
  free energy    TOTEN  =       -15.12297743 eV

  energy without entropy =      -15.12297743  energy(sigma->0) =      -15.12297743


--------------------------------------------------------------------------------------------------------




--------------------------------------- Iteration      1(   9)  ---------------------------------------


    POTLOK:  cpu time      0.9755: real time      0.9758
    SETDIJ:  cpu time      0.7287: real time      0.7294
    TRIAL :  cpu time      0.7773: real time      0.7775
    CORREC:  cpu time      2.3121: real time      2.3138
    CHARGE:  cpu time      0.3841: real time      0.3837
    --------------------------------------------
      LOOP:  cpu time      5.1939: real time      5.1965

 eigenvalue-minimisations  :     0
 total energy-change (2. order) :-0.5836651E-01  (-0.1532007E-01)
 number of electron      88.0000002 magnetization 
 augmentation part       32.3163180 magnetization 

 Free energy of the ion-electron system (eV)
  ---------------------------------------------------
  alpha Z        PSCENC =         9.31836840
  Ewald energy   TEWEN  =      6122.30460365
  -Hartree energ DENC   =    -13185.08546888
  -exchange      EXHF   =         0.00000000
  -V(xc)+E(xc)   XCENC  =       111.55307303
  PAW double counting   =      7869.29679680    -7691.38006393
  entropy T*S    EENTRO =        -0.00000000
  eigenvalues    EBANDS =      -653.71240185
  atomic energy  EATOM  =      7402.52374884
  ---------------------------------------------------
  free energy    TOTEN  =       -15.18134394 eV

  energy without entropy =      -15.18134394  energy(sigma->0) =      -15.18134394


--------------------------------------------------------------------------------------------------------




--------------------------------------- Iteration      1(  10)  ---------------------------------------


    POTLOK:  cpu time      0.9540: real time      0.9543
    SETDIJ:  cpu time      0.7245: real time      0.7251
    TRIAL :  cpu time      0.7806: real time      0.7810
    CORREC:  cpu time      2.2574: real time      2.2570
    CHARGE:  cpu time      0.3795: real time      0.3802
    --------------------------------------------
      LOOP:  cpu time      5.0986: real time      5.1139

 eigenvalue-minimisations  :     0
 total energy-change (2. order) :-0.1532932E-01  (-0.4539212E-02)
 number of electron      88.0000002 magnetization 
 augmentation part       32.3047409 magnetization 

 Free energy of the ion-electron system (eV)
  ---------------------------------------------------
  alpha Z        PSCENC =         9.31836840
  Ewald energy   TEWEN  =      6122.30460365
  -Hartree energ DENC   =    -13192.12760817
  -exchange      EXHF   =         0.00000000
  -V(xc)+E(xc)   XCENC  =       111.73004965
  PAW double counting   =      7871.16483439    -7692.99099807
  entropy T*S    EENTRO =        -0.00000000
  eigenvalues    EBANDS =      -647.11967195
  atomic energy  EATOM  =      7402.52374884
  ---------------------------------------------------
  free energy    TOTEN  =       -15.19667326 eV

  energy without entropy =      -15.19667326  energy(sigma->0) =      -15.19667326


--------------------------------------------------------------------------------------------------------




--------------------------------------- Iteration      1(  11)  ---------------------------------------


    POTLOK:  cpu time      0.9146: real time      0.9148
    SETDIJ:  cpu time      0.7253: real time      0.7260
    TRIAL :  cpu time      0.7666: real time      0.7657
    CORREC:  cpu time      2.2364: real time      2.2378
    CHARGE:  cpu time      0.3828: real time      0.3826
    --------------------------------------------
      LOOP:  cpu time      5.0283: real time      5.0436

 eigenvalue-minimisations  :     0
 total energy-change (2. order) :-0.4546959E-02  (-0.1171642E-02)
 number of electron      88.0000002 magnetization 
 augmentation part       32.3095466 magnetization 

 Free energy of the ion-electron system (eV)
  ---------------------------------------------------
  alpha Z        PSCENC =         9.31836840
  Ewald energy   TEWEN  =      6122.30460365
  -Hartree energ DENC   =    -13188.84420967
  -exchange      EXHF   =         0.00000000
  -V(xc)+E(xc)   XCENC  =       111.66456489
  PAW double counting   =      7863.19673734    -7684.91156588
  entropy T*S    EENTRO =        -0.00000000
  eigenvalues    EBANDS =      -650.45346780
  atomic energy  EATOM  =      7402.52374884
  ---------------------------------------------------
  free energy    TOTEN  =       -15.20122022 eV

  energy without entropy =      -15.20122022  energy(sigma->0) =      -15.20122022


--------------------------------------------------------------------------------------------------------




--------------------------------------- Iteration      1(  12)  ---------------------------------------


    POTLOK:  cpu time      0.9053: real time      0.9056
    SETDIJ:  cpu time      0.7257: real time      0.7263
    TRIAL :  cpu time      0.7807: real time      0.7811
    CORREC:  cpu time      2.2423: real time      2.2436
    CHARGE:  cpu time      0.3834: real time      0.3831
    --------------------------------------------
      LOOP:  cpu time      5.0399: real time      5.0559

 eigenvalue-minimisations  :     0
 total energy-change (2. order) :-0.1170849E-02  (-0.2510081E-03)
 number of electron      88.0000002 magnetization 
 augmentation part       32.3122273 magnetization 

 Free energy of the ion-electron system (eV)
  ---------------------------------------------------
  alpha Z        PSCENC =         9.31836840
  Ewald energy   TEWEN  =      6122.30460365
  -Hartree energ DENC   =    -13189.39408856
  -exchange      EXHF   =         0.00000000
  -V(xc)+E(xc)   XCENC  =       111.68501696
  PAW double counting   =      7861.46658992    -7683.12615890
  entropy T*S    EENTRO =        -0.00000000
  eigenvalues    EBANDS =      -649.98047137
  atomic energy  EATOM  =      7402.52374884
  ---------------------------------------------------
  free energy    TOTEN  =       -15.20239107 eV

  energy without entropy =      -15.20239107  energy(sigma->0) =      -15.20239107


--------------------------------------------------------------------------------------------------------




--------------------------------------- Iteration      1(  13)  ---------------------------------------


    POTLOK:  cpu time      0.9026: real time      0.9031
    SETDIJ:  cpu time      0.7263: real time      0.7269
    TRIAL :  cpu time      0.7641: real time      0.7643
    CORREC:  cpu time      2.2346: real time      2.2350
    CHARGE:  cpu time      0.3938: real time      0.3944
    --------------------------------------------
      LOOP:  cpu time      5.0240: real time      5.0416

 eigenvalue-minimisations  :     0
 total energy-change (2. order) :-0.2504431E-03  (-0.6906351E-04)
 number of electron      88.0000002 magnetization 
 augmentation part       32.3113561 magnetization 

 Free energy of the ion-electron system (eV)
  ---------------------------------------------------
  alpha Z        PSCENC =         9.31836840
  Ewald energy   TEWEN  =      6122.30460365
  -Hartree energ DENC   =    -13190.00631778
  -exchange      EXHF   =         0.00000000
  -V(xc)+E(xc)   XCENC  =       111.69742513
  PAW double counting   =      7861.28221776    -7682.92932720
  entropy T*S    EENTRO =        -0.00000000
  eigenvalues    EBANDS =      -649.39336032
  atomic energy  EATOM  =      7402.52374884
  ---------------------------------------------------
  free energy    TOTEN  =       -15.20264151 eV

  energy without entropy =      -15.20264151  energy(sigma->0) =      -15.20264151


--------------------------------------------------------------------------------------------------------




--------------------------------------- Iteration      1(  14)  ---------------------------------------


    POTLOK:  cpu time      0.9015: real time      0.9018
    SETDIJ:  cpu time      0.7259: real time      0.7258
    TRIAL :  cpu time      0.7800: real time      0.7804
    CORREC:  cpu time      2.2435: real time      2.2447
    CHARGE:  cpu time      0.3817: real time      0.3814
    --------------------------------------------
      LOOP:  cpu time      5.0488: real time      5.0504

 eigenvalue-minimisations  :     0
 total energy-change (2. order) :-0.6958318E-04  (-0.1339913E-04)
 number of electron      88.0000002 magnetization 
 augmentation part       32.3118590 magnetization 

 Free energy of the ion-electron system (eV)
  ---------------------------------------------------
  alpha Z        PSCENC =         9.31836840
  Ewald energy   TEWEN  =      6122.30460365
  -Hartree energ DENC   =    -13189.73314979
  -exchange      EXHF   =         0.00000000
  -V(xc)+E(xc)   XCENC  =       111.69070407
  PAW double counting   =      7860.69334290    -7682.33918737
  entropy T*S    EENTRO =        -0.00000000
  eigenvalues    EBANDS =      -649.66114179
  atomic energy  EATOM  =      7402.52374884
  ---------------------------------------------------
  free energy    TOTEN  =       -15.20271109 eV

  energy without entropy =      -15.20271109  energy(sigma->0) =      -15.20271109


--------------------------------------------------------------------------------------------------------




--------------------------------------- Iteration      1(  15)  ---------------------------------------


    POTLOK:  cpu time      0.8991: real time      0.8996
    SETDIJ:  cpu time      0.7274: real time      0.7280
    TRIAL :  cpu time      0.7605: real time      0.7601
    CORREC:  cpu time      2.2375: real time      2.2379
    CHARGE:  cpu time      0.3849: real time      0.3851
    --------------------------------------------
      LOOP:  cpu time      5.0121: real time      5.0276

 eigenvalue-minimisations  :     0
 total energy-change (2. order) :-0.1306968E-04  (-0.1867721E-05)
 number of electron      88.0000002 magnetization 
 augmentation part       32.3117496 magnetization 

 Free energy of the ion-electron system (eV)
  ---------------------------------------------------
  alpha Z        PSCENC =         9.31836840
  Ewald energy   TEWEN  =      6122.30460365
  -Hartree energ DENC   =    -13189.77417070
  -exchange      EXHF   =         0.00000000
  -V(xc)+E(xc)   XCENC  =       111.69213523
  PAW double counting   =      7860.82056220    -7682.46546917
  entropy T*S    EENTRO =        -0.00000000
  eigenvalues    EBANDS =      -649.62250262
  atomic energy  EATOM  =      7402.52374884
  ---------------------------------------------------
  free energy    TOTEN  =       -15.20272416 eV

  energy without entropy =      -15.20272416  energy(sigma->0) =      -15.20272416


--------------------------------------------------------------------------------------------------------




--------------------------------------- Iteration      1(  16)  ---------------------------------------


    POTLOK:  cpu time      0.9086: real time      0.9089
    SETDIJ:  cpu time      0.7270: real time      0.7276
    TRIAL :  cpu time      0.7853: real time      0.7844
    CORREC:  cpu time      2.2381: real time      2.2395
    CHARGE:  cpu time      0.3819: real time      0.3816
    --------------------------------------------
      LOOP:  cpu time      5.0435: real time      5.0585

 eigenvalue-minimisations  :     0
 total energy-change (2. order) :-0.1887807E-05  (-0.5439223E-06)
 number of electron      88.0000002 magnetization 
 augmentation part       32.3116889 magnetization 

 Free energy of the ion-electron system (eV)
  ---------------------------------------------------
  alpha Z        PSCENC =         9.31836840
  Ewald energy   TEWEN  =      6122.30460365
  -Hartree energ DENC   =    -13189.75169175
  -exchange      EXHF   =         0.00000000
  -V(xc)+E(xc)   XCENC  =       111.69153720
  PAW double counting   =      7860.81765919    -7682.46295163
  entropy T*S    EENTRO =        -0.00000000
  eigenvalues    EBANDS =      -649.64399996
  atomic energy  EATOM  =      7402.52374884
  ---------------------------------------------------
  free energy    TOTEN  =       -15.20272605 eV

  energy without entropy =      -15.20272605  energy(sigma->0) =      -15.20272605


--------------------------------------------------------------------------------------------------------




--------------------------------------- Iteration      1(  17)  ---------------------------------------


    POTLOK:  cpu time      0.9051: real time      0.9056
    SETDIJ:  cpu time      0.7255: real time      0.7262
    TRIAL :  cpu time      0.7636: real time      0.7638
    CORREC:  cpu time      2.2434: real time      2.2417
    EDDIAG:  cpu time      0.3309: real time      0.3316
    CHARGE:  cpu time      0.3853: real time      0.3852
    --------------------------------------------
      LOOP:  cpu time      5.3696: real time      5.3701

 eigenvalue-minimisations  :     0
 total energy-change (2. order) :-0.5477959E-06  (-0.1960738E-06)
 number of electron      88.0000002 magnetization 
 augmentation part       32.3116890 magnetization 

 Free energy of the ion-electron system (eV)
  ---------------------------------------------------
  alpha Z        PSCENC =         9.31836840
  Ewald energy   TEWEN  =      6122.30460365
  -Hartree energ DENC   =    -13189.74464472
  -exchange      EXHF   =         0.00000000
  -V(xc)+E(xc)   XCENC  =       111.69130340
  PAW double counting   =      7860.80966650    -7682.45520665
  entropy T*S    EENTRO =        -0.00000000
  eigenvalues    EBANDS =      -649.65056602
  atomic energy  EATOM  =      7402.52374884
  ---------------------------------------------------
  free energy    TOTEN  =       -15.20272660 eV

  energy without entropy =      -15.20272660  energy(sigma->0) =      -15.20272660


--------------------------------------------------------------------------------------------------------


  average scaling for gradient   1.1333


 average (electrostatic) potential at core
  the test charge radii are     1.2098
  (the norm of the test charge is              1.0000)
       1 -76.7854       2 -76.9855       3 -76.6529       4 -76.9853       5 -76.8359
       6 -77.5715       7 -76.7857       8 -76.8363
 
 
 
 E-fermi :  -4.8357     XC(G=0):  -0.5053     alpha+bet : -0.2375

 Fermi energy:        -4.8357335908

 k-point     1 :       0.0000    0.0000    0.0000
  band No.  band energies     occupation 
      1     -10.7057      2.00000
      2      -9.9862      2.00000
      3      -9.9044      2.00000
      4      -9.7852      2.00000
      5      -9.1229      2.00000
      6      -8.8844      2.00000
      7      -8.7875      2.00000
      8      -8.5641      2.00000
      9      -8.5366      2.00000
     10      -8.2867      2.00000
     11      -8.2593      2.00000
     12      -8.1533      2.00000
     13      -7.9752      2.00000
     14      -7.9047      2.00000
     15      -7.7951      2.00000
     16      -7.7561      2.00000
     17      -7.7092      2.00000
     18      -7.4238      2.00000
     19      -7.4151      2.00000
     20      -7.2572      2.00000
     21      -7.1171      2.00000
     22      -7.0914      2.00000
     23      -6.9301      2.00000
     24      -6.8300      2.00000
     25      -6.7780      2.00000
     26      -6.7735      2.00000
     27      -6.7403      2.00000
     28      -6.7364      2.00000
     29      -6.7197      2.00000
     30      -6.6820      2.00000
     31      -6.6121      2.00000
     32      -6.5701      2.00000
     33      -6.5537      2.00000
     34      -6.4728      2.00000
     35      -6.3964      2.00000
     36      -6.3240      2.00000
     37      -6.2822      2.00000
     38      -6.1704      2.00000
     39      -6.1002      2.00000
     40      -6.0615      2.00000
     41      -5.9420      2.00000
     42      -5.9353      2.00000
     43      -5.7259      2.00000
     44      -5.0662      2.00000
     45      -4.2513      0.00000
     46      -3.7215      0.00000
     47      -2.8159      0.00000
     48      -2.3471      0.00000
     49      -2.1910      0.00000
     50      -1.4183      0.00000
     51      -1.2167      0.00000
     52      -0.9331      0.00000
     53      -0.6903      0.00000
     54      -0.6409      0.00000
     55       0.1034      0.00000
     56       0.1409      0.00000
     57       0.2587      0.00000
     58       0.4122      0.00000
     59       0.4969      0.00000
     60       0.5217      0.00000
     61       0.5308      0.00000
     62       0.5437      0.00000
     63       0.5606      0.00000
     64       0.6955      0.00000


--------------------------------------------------------------------------------------------------------


 soft charge-density along one line, spin component           1
         0         1         2         3         4         5         6         7         8         9
 total charge-density along one line
 
 pseudopotential strength for first ion, spin component:           1
 -9.218   0.023  -0.034   0.018   0.003  -9.338   0.022  -0.033
  0.023  -9.203   0.014   0.021  -0.024   0.022  -9.323   0.014
 -0.034   0.014  -9.186   0.010  -0.003  -0.033   0.014  -9.307
  0.018   0.021   0.010  -9.188   0.018   0.017   0.021   0.010
  0.003  -0.024  -0.003   0.018  -9.210   0.003  -0.023  -0.002
 -9.338   0.022  -0.033   0.017   0.003  -9.442   0.021  -0.032
  0.022  -9.323   0.014   0.021  -0.023   0.021  -9.428   0.014
 -0.033   0.014  -9.307   0.010  -0.002  -0.032   0.014  -9.412
  0.017   0.021   0.010  -9.309   0.017   0.017   0.020   0.009
  0.003  -0.023  -0.002   0.017  -9.331   0.003  -0.023  -0.002
 -0.019  -0.021  -0.008  -0.019  -0.004  -0.019  -0.021  -0.008
 -0.027  -0.031  -0.011  -0.028  -0.007  -0.027  -0.031  -0.011
  0.016   0.001   0.012   0.000   0.020   0.016   0.001   0.011
  0.000  -0.021   0.002   0.016   0.001   0.000  -0.020   0.002
 -0.021   0.000  -0.010   0.002   0.016  -0.020   0.000  -0.009
  0.018   0.001   0.013   0.001   0.022   0.018   0.001   0.013
  0.001  -0.023   0.003   0.017   0.001   0.001  -0.022   0.003
 -0.024   0.001  -0.011   0.003   0.018  -0.023   0.001  -0.011
 total augmentation occupancy for first ion, spin component:           1
  3.228   0.136   0.235  -0.178   0.215  -1.283  -0.009  -0.365   0.189  -0.151   0.723  -0.205   0.165  -0.037  -0.099   0.008
  0.136   2.997   0.087  -0.237   0.258  -0.009  -1.070   0.002   0.212  -0.373   0.784  -0.114   0.081  -0.100  -0.001  -0.004
  0.235   0.087   2.982  -0.144   0.198  -0.365   0.001  -0.909   0.157  -0.162   0.306  -0.095   0.095  -0.049  -0.048   0.007
 -0.178  -0.237  -0.144   3.403  -0.511   0.189   0.213   0.157  -1.313   0.525   0.734  -0.164  -0.083   0.207  -0.138  -0.000
  0.215   0.258   0.198  -0.511   3.367  -0.151  -0.373  -0.162   0.524  -1.310   0.142   0.006   0.157  -0.150   0.116   0.017
 -1.283  -0.009  -0.365   0.189  -0.151   1.286  -0.088   0.466  -0.198   0.102  -0.620   0.186  -0.201   0.036   0.136   0.009
 -0.009  -1.070   0.001   0.213  -0.373  -0.088   1.091  -0.069  -0.197   0.465  -0.706   0.133  -0.081   0.119   0.006   0.005
 -0.365   0.002  -0.909   0.157  -0.162   0.466  -0.069   0.812  -0.167   0.134  -0.258   0.083  -0.116   0.050   0.068   0.005
  0.189   0.212   0.157  -1.313   0.524  -0.198  -0.197  -0.167   1.207  -0.536  -0.653   0.171   0.069  -0.223   0.143   0.000
 -0.151  -0.373  -0.162   0.525  -1.310   0.102   0.465   0.134  -0.536   1.232  -0.130   0.001  -0.173   0.144  -0.135   0.005
  0.723   0.784   0.306   0.734   0.142  -0.620  -0.706  -0.258  -0.653  -0.130   2.180  -0.402   0.186   0.030  -0.206  -0.013
 -0.205  -0.114  -0.095  -0.164   0.006   0.186   0.133   0.083   0.171   0.001  -0.402   0.108  -0.044  -0.020   0.064   0.003
  0.165   0.081   0.095  -0.083   0.157  -0.201  -0.081  -0.116   0.069  -0.173   0.186  -0.044   0.069  -0.032  -0.008  -0.004
 -0.037  -0.100  -0.049   0.207  -0.150   0.036   0.119   0.050  -0.223   0.144   0.030  -0.020  -0.032   0.065  -0.029   0.001
 -0.099  -0.001  -0.048  -0.138   0.116   0.136   0.006   0.068   0.143  -0.135  -0.206   0.064  -0.008  -0.029   0.061   0.001
  0.008  -0.004   0.007  -0.000   0.017   0.009   0.005   0.005   0.000   0.005  -0.013   0.003  -0.004   0.001   0.001   0.001
 -0.000  -0.017   0.002   0.012   0.005  -0.000  -0.004  -0.001   0.006  -0.006  -0.002   0.001   0.001  -0.002   0.001  -0.000
 -0.013   0.000  -0.006   0.008   0.014  -0.007  -0.001  -0.004  -0.007   0.004   0.014  -0.003   0.001   0.001  -0.003  -0.000


------------------------ aborting loop because EDIFF is reached ----------------------------------------


    FORLOC:  cpu time      0.0749: real time      0.0748
    FORNL :  cpu time      0.5658: real time      0.5664
    STRESS:  cpu time      1.6011: real time      1.6020
    FORCOR:  cpu time      0.7988: real time      0.7992
    OFIELD:  cpu time      0.0010: real time      0.0010

 ---------------------------------------------------------------------------------------------

         DFTD3 V3.0 Rev 1        
 IVDW         = 11
 DF revpbe    
 parameters
 VDW_S6       =    1.0000
 VDW_S8       =    1.0100
 VDW_SR       =    0.9230
 rs18     =    1.0000
 alpha6   =   14.0000
 alpha8   =   16.0000
 k1-k3    =   16.0000    1.3333   -4.0000
 VDW_RADIUS   =   50.2022 A
 VDW_CNRADIUS =   21.1671 A
 Edisp (eV)   -0.82244

 E6    (eV) :    -0.4115
 E8    (eV) :    -0.4110
 % E8        : 49.97
    FORVDW:  cpu time      0.0178: real time      0.0178

  FORCE on cell =-STRESS in cart. coord.  units (eV):
  Direction    XX          YY          ZZ          XY          YZ          ZX
  --------------------------------------------------------------------------------------
  Alpha Z     9.31837     9.31837     9.31837
  Ewald    3062.62586  1961.76121  1097.91385 -1730.38331 -1855.07339 -2794.14042
  Hartree  5257.53478  4279.95989  3652.25531 -1340.87683 -1409.21587 -2196.53767
  E(xc)    -395.71384  -396.30621  -397.36423    -1.78346    -2.03015    -2.75002
  Local   -9679.20208 -7603.27100 -6128.54792  3047.83455  3235.60774  4956.63451
  n-local   -19.79210   -19.15687   -12.55526     8.95275    11.07696    12.87767
  augment   535.96839   536.70705   539.60762     4.23263     5.08708     6.26323
  Kinetic  1231.94931  1233.28388  1241.15970    11.08785    13.50605    16.17480
  Fock        0.00000     0.00000     0.00000     0.00000     0.00000     0.00000
  vdW         0.22287     0.41712     0.22979    -0.11949    -0.21269    -0.09304
  -------------------------------------------------------------------------------------
  Total       2.91157     2.71343     2.01722    -1.05531    -1.25428    -1.57093
  in kB       0.58311     0.54343     0.40399    -0.21135    -0.25120    -0.31461
  external pressure =        0.51 kB  Pullay stress =        0.00 kB


 VOLUME and BASIS-vectors are now :
 -----------------------------------------------------------------------------
  energy-cutoff  :      520.00
  volume of cell :     8000.00
      direct lattice vectors                 reciprocal lattice vectors
    20.000000000  0.000000000  0.000000000     0.050000000  0.000000000  0.000000000
     0.000000000 20.000000000  0.000000000     0.000000000  0.050000000  0.000000000
     0.000000000  0.000000000 20.000000000     0.000000000  0.000000000  0.050000000

  length of vectors
    20.000000000 20.000000000 20.000000000     0.050000000  0.050000000  0.050000000


 FORCES acting on ions:
    Electron-Ion                     Ewald-Force                    Non-Local-Force
 -----------------------------------------------------------------------------------------------
   -.550E+03 0.397E+03 0.152E+03   0.547E+03 -.394E+03 -.152E+03   0.328E+01 -.366E+01 0.283E-01
   0.376E+03 -.437E+03 0.286E+02   -.374E+03 0.435E+03 -.288E+02   -.213E+01 0.200E+01 0.153E+00
   0.559E+03 -.966E+02 -.348E+03   -.554E+03 0.957E+02 0.344E+03   -.580E+01 0.973E+00 0.355E+01
   0.231E+03 0.325E+03 -.418E+03   -.230E+03 -.324E+03 0.416E+03   -.149E+01 -.135E+01 0.212E+01
   -.170E+03 0.595E+03 -.321E+03   0.167E+03 -.591E+03 0.320E+03   0.275E+01 -.483E+01 0.157E+01
   -.644E+02 0.752E+01 0.338E+02   0.639E+02 -.742E+01 -.335E+02   0.539E+00 -.102E+00 -.337E+00
   -.437E+03 -.203E+03 0.502E+03   0.435E+03 0.200E+03 -.499E+03   0.209E+01 0.257E+01 -.363E+01
   0.540E+02 -.589E+03 0.371E+03   -.550E+02 0.585E+03 -.367E+03   0.104E+01 0.428E+01 -.374E+01
 -----------------------------------------------------------------------------------------------
   -.279E+00 0.121E+00 0.294E+00   -.171E-12 0.114E-12 -.171E-12   0.279E+00 -.110E+00 -.284E+00
 
 
 POSITION                                       TOTAL-FORCE (eV/Angst)
 -----------------------------------------------------------------------------------
     12.99310      8.47117      9.17132         0.343680     -0.245652     -0.094864
      8.67427     11.50267     10.32891        -0.162735      0.299558     -0.094978
      7.00140     10.65097     12.17634        -0.340961      0.058798      0.211055
      9.11955      9.15897     11.70036        -0.057476     -0.258443      0.232671
     11.25544      7.70151     11.16065         0.053650     -0.352572      0.228500
     10.86387      9.97855      9.77326        -0.031810      0.004399      0.025537
     12.56361     10.73274      7.84815         0.276850      0.124031     -0.312720
     10.38673     12.29336      8.47929        -0.081198      0.369881     -0.195201
 -----------------------------------------------------------------------------------
    total drift:                                0.000203      0.010679      0.010051


--------------------------------------------------------------------------------------------------------



  FREE ENERGIE OF THE ION-ELECTRON SYSTEM (eV)
  ---------------------------------------------------
  free  energy   TOTEN  =       -16.02516261 eV

  energy  without entropy=      -16.02516261  energy(sigma->0) =      -16.02516261
 


--------------------------------------------------------------------------------------------------------


    POTLOK:  cpu time      1.6450: real time      1.6453


--------------------------------------------------------------------------------------------------------


     LOOP+:  cpu time     80.0328: real time     80.3951
    4ORBIT:  cpu time      0.0000: real time      0.0000

 total amount of memory used by VASP MPI-rank0   234236. kBytes
=======================================================================

   base      :      30000. kBytes
   nonlr-proj:       7982. kBytes
   fftplans  :      28721. kBytes
   grid      :     157056. kBytes
   one-center:        124. kBytes
   wavefun   :      10353. kBytes
 
  
  
 General timing and accounting informations for this job:
 ========================================================
  
                  Total CPU time used (sec):       93.569
                            User time (sec):       90.985
                          System time (sec):        2.584
                         Elapsed time (sec):       94.849
  
                   Maximum memory used (kb):     1190664.
                   Average memory used (kb):          N/A
  
                          Minor page faults:       108356
                          Major page faults:            0
                 Voluntary context switches:         5741
