 **********************************************************************
                          MRCC program system
 **********************************************************************
 
                              Written by
     Mihaly Kallay, Peter R. Nagy, David Mester, Laszlo Gyevi-Nagy,
        Jozsef Csoka, P. Bernat Szabo, Zoltan Rolik, Gyula Samu,
     Jozsef Csontos, Bence Hegely, Adam Ganyecz, Istvan Ladjanszki,
       Lorant Szegedy, Bence Ladoczki, Klara Petrov, Mate Farkas,
                    Pal D. Mezei, and Reka A. Horvath
 
        Department of Physical Chemistry and Materials Science
            Budapest University of Technology and Economics
                  Budapest P.O.Box 91, H-1521 Hungary
 
                              www.mrcc.hu
 
                      Release date: March 18, 2022

 ************************ 2022-08-16 06:13:47 *************************
 Executing minp...

 Reading input from MINP...
 
 Input file:
 
calc=LNO-CCSD(T)
scftype=rhf
verbosity=3
mem=190GB
symm=off
unit=angs
scfiguess=small
scfmaxit=1000
scfalg=locfit1


lcorthr=tight
ccmaxit=400
usedisk=0
ccsdalg=dfdirect
ccsdthreads=4
ccsdmkl=thr
ptthreads=4

charge=0
core=8

basis=special
aug-cc-pVDZ-PP
aug-cc-pVDZ-PP
aug-cc-pVDZ
cc-pVDZ
cc-pVDZ
cc-pVDZ
cc-pVDZ
cc-pVDZ
aug-cc-pVDZ
aug-cc-pVDZ
aug-cc-pVDZ
aug-cc-pVDZ
aug-cc-pVDZ
aug-cc-pVDZ
aug-cc-pVDZ
aug-cc-pVDZ
aug-cc-pVDZ
aug-cc-pVDZ
aug-cc-pVDZ
aug-cc-pVDZ

basis_sm=special
def2-SVP
def2-SVP
def2-SVP
def2-SVP
def2-SVP
def2-SVP
def2-SVP
def2-SVP
def2-SVP
def2-SVP
def2-SVP
def2-SVP
def2-SVP
def2-SVP
def2-SVP
def2-SVP
def2-SVP
def2-SVP
def2-SVP
def2-SVP

dfbasis_scf=special
def2-QZVPP-RI-JK
def2-QZVPP-RI-JK
def2-QZVPP-RI-JK
def2-QZVPP-RI-JK
def2-QZVPP-RI-JK
def2-QZVPP-RI-JK
def2-QZVPP-RI-JK
def2-QZVPP-RI-JK
def2-QZVPP-RI-JK
def2-QZVPP-RI-JK
def2-QZVPP-RI-JK
def2-QZVPP-RI-JK
def2-QZVPP-RI-JK
def2-QZVPP-RI-JK
def2-QZVPP-RI-JK
def2-QZVPP-RI-JK
def2-QZVPP-RI-JK
def2-QZVPP-RI-JK
def2-QZVPP-RI-JK
def2-QZVPP-RI-JK

dfbasis_cor=special
aug-cc-pVDZ-PP-RI
aug-cc-pVDZ-PP-RI
aug-cc-pVDZ-RI
cc-pVDZ-RI
cc-pVDZ-RI
cc-pVDZ-RI
cc-pVDZ-RI
cc-pVDZ-RI
aug-cc-pVDZ-RI
aug-cc-pVDZ-RI
aug-cc-pVDZ-RI
aug-cc-pVDZ-RI
aug-cc-pVDZ-RI
aug-cc-pVDZ-RI
aug-cc-pVDZ-RI
aug-cc-pVDZ-RI
aug-cc-pVDZ-RI
aug-cc-pVDZ-RI
aug-cc-pVDZ-RI
aug-cc-pVDZ-RI

ecp=special
MCDHF-ECP-60
MCDHF-ECP-60
none
none
none
none
none
none
none
none
none
none
none
none
none
none
none
none
none
none

unit=angs
geom=xyz
20
Au2 Mg5 O13 ECP32
Au    0.00000000000    0.00000000000    4.64731605675
Au    0.00000000000    0.00000000000    2.15064105535
O     0.00000000000    0.00000000000    0.00000000000
Mg   -2.11388582115    0.00000000000    0.00000000000
Mg    0.00000000000    2.11388582115    0.00000000000
Mg    2.11388582115    0.00000000000    0.00000000000
Mg    0.00000000000   -2.11388582115    0.00000000000
Mg    0.00000000000    0.00000000000   -2.11388582115
O    -2.11388582115    2.11388582115    0.00000000000
O     2.11388582115    2.11388582115    0.00000000000
O     2.11388582115   -2.11388582115    0.00000000000
O    -2.11388582115   -2.11388582115    0.00000000000
O    -2.11388582115    0.00000000000   -2.11388582115
O     0.00000000000    2.11388582115   -2.11388582115
O     2.11388582115    0.00000000000   -2.11388582115
O     0.00000000000   -2.11388582115   -2.11388582115
O    -4.22777164231    0.00000000000    0.00000000000
O     0.00000000000    4.22777164231    0.00000000000
O     4.22777164231    0.00000000000    0.00000000000
O     0.00000000000   -4.22777164231    0.00000000000

ghost=serialno
3-20

 
 
 Checking keyword combinations...
 
 Keywords:
 
 active=none
 agrid=ld0006-ld0590
 agrid_pssp=ld0006-ld0194
 agrid_pssp_sm=ld0006-ld0074
 basis=special
 basis_sm=special
 basopt=off
 bfbasis=none
 bfgsmem=10
 bfgstol=1.0d-3
 bpcompo=0.985
 bpcompv=0.98
 bpdfo=0.985
 bpocc=0.99995d0
 bppdo=0.999d0
 bppdv=0.98
 bpedo=0.99995d0
 bpedv=0.995d0
 calc=ccsd(t)
 ccmaxit=400
 ccprog=ccsd
 ccsdalg=dfdirect
 ccsdmkl=thr
 ccsdrest=off
 ccsdthreads=4
 cctol=5
 charge=0
 cialg=direct
 ciguess=off
 cmpgrp=auto
 comprest=off
 core=8
 corembed=off
 csapprox=off
 cvs=off
 dboc=off
 delocsomofact=
 dendec=cholesky
 dens=0
 dfalg=lineq
 dfbasis_cab=none
 dfbasis_cor=special
 dfbasis_scf=special
 dfbasis_scf_sm=special
 dfintran=drpa
 dft=off
 dhexc=adc(2)
 diag=david
 docc=
 domrad=10.d0
 drpaalg=auto
 dual=off
 dual_df=off
 ecp=special
 edisp=off
 edisp_embed=off
 embed=off
 etemp=300
 epert=none
 eps=
 espcharge=off
 excrad=1.0
 excrad_fin=0.100000000D-02
 fitting=coulomb
 fmm=off
 fmmord=8
 freq=off
 gamma=1.d0
 gauss=spher
 geom=xyz
 gopt=off
 ghost=serialno
 gtol=7
 grdens=off
 gridbatch_cos=2000
 grtol=10
 guido_ct=off
 hamilton=dc
 iface=none
 intalg=auto
 itol=10
 laptol=1.d-3
 lccoporder=lccfirst
 lcorthr=tight
 lccrest=off
 lmp2dens=on
 lnoepso=3e-6
 lnoepsv=3e-7
 boysalg=jacobi
 localcc=2021
 localcorrsymm=off
 locintrf=direct
 mact=
 maxact=off
 maxdim=100
 maxex=0
 maxmicroit=100
 mcscfiguess=hf
 mem=190gb
 mmprog=
 molden=on
 mpitasks=1
 mulmet=3
 mult=
 nacto=0
 nactv=0
 naf_amp=1.d-2
 naf_cor=1e-2
 naf_scf=off
 nafalg=albe
 naftyp=jpq
 nchol=auto
 ndeps=1e-3
 nstate=1
 nsing=0
 nto=off
 ntrip=0
 occ=
 occri=off
 oniom=off
 oniom_eechg=off
 oniom_pcm=off
 oniom_qcorr=off
 optalg=
 optmaxit=50
 optetol=1e-6
 optex=0
 optgtol=1e-4
 optstol=1e-3
 orblocc=off
 orbloce=off
 orbloco=boys
 orblocv=pao
 orblocguess=cholesky
 osveps=-1.d0
 ovirt=off
 ovltol=1e-7
 ovosnorb=80.0
 pcm=off
 popul=off
 pressure=100000
 pssp=off
 ptfreq=0.0
 ptthreads=4
 qro=off
 qscf=off
 qmmm=off
 redcost_exc=off
 redcost_tddft=0.985d0
 refdet=none
 rest=0
 rgrid=log3
 rism=off
 rohfcore=standard
 rohftype=semicanonical
 scfalg=locfit1
 scf_conv=difficult
 scfdamp=0.0d0
 scfdamp_mode=off
 scfdamp_end=1000
 scfdamp_dampstep=0.d0
 scfdamp_dtol=0.0d0
 scfdamp_maxfact=0.0d0
 scfdamp_minfact=0.0d0
 scfdiis=on
 scfdiis_dtol=0.0d0
 scfdiis_end=1000
 scfdiis_start=2
 scfdiis_step=1
 scfdiis_watch=off
 scfdiis_wrange=10
 scfdiis_wlimit=5
 scfdiis_delmax=2
 scfdtol=7
 scfext=10
 scfguessdens=
 scfiguess=small
 scfloc=pm
 scflshift=0.20
 scflshift_end=8
 scflshift_dtol=0.0
 scflshift_gaptol=0.20
 scfmaxit=1000
 scftype=rhf
 scftol=6
 scspe=1.d0
 scsph=1.d0
 scsps=1.2d0
 scsps_t=1.2d0
 scspt=0.33333333333333
 scspt_t=0.33333333333333
 scspv=1.d0
 spairtol=-1.d0
 sqmprog=
 subminp=top
 symm=0
 talg=lapl
 temp=298.15
 test=off
 theodore=off
 tlmo=0.999
 tpao=0.94
 tprint=off
 uncontract=off
 unit=angs
 usedisk=0
 verbosity=3
 wpairtol=3.d-6
 
 Calculating integrals for small-basis SCF...

 ************************ 2022-08-16 06:13:48 *************************
 Executing integ...

 Allocation of 190.0 Gbytes of memory...
 
 
 Number of atoms:                 20
 Charge:                           0
 Number of electrons:             38
 Number of core electrons:        16
 Spin multiplicity:                1
 
                 Cartesian coordinates [bohr]      Atomic mass [AMU]  Z
   1  Au    0.00000000    0.00000000    8.78215457   196.966543      79
   2  Au    0.00000000    0.00000000    4.06412259   196.966543      79
   3  O     0.00000000    0.00000000    0.00000000     0.000000       0
   4  Mg   -3.99466526    0.00000000    0.00000000     0.000000       0
   5  Mg    0.00000000    3.99466526    0.00000000     0.000000       0
   6  Mg    3.99466526    0.00000000    0.00000000     0.000000       0
   7  Mg    0.00000000   -3.99466526    0.00000000     0.000000       0
   8  Mg    0.00000000    0.00000000   -3.99466526     0.000000       0
   9  O    -3.99466526    3.99466526    0.00000000     0.000000       0
  10  O     3.99466526    3.99466526    0.00000000     0.000000       0
  11  O     3.99466526   -3.99466526    0.00000000     0.000000       0
  12  O    -3.99466526   -3.99466526    0.00000000     0.000000       0
  13  O    -3.99466526    0.00000000   -3.99466526     0.000000       0
  14  O     0.00000000    3.99466526   -3.99466526     0.000000       0
  15  O     3.99466526    0.00000000   -3.99466526     0.000000       0
  16  O     0.00000000   -3.99466526   -3.99466526     0.000000       0
  17  O    -7.98933052    0.00000000    0.00000000     0.000000       0
  18  O     0.00000000    7.98933052    0.00000000     0.000000       0
  19  O     7.98933052    0.00000000    0.00000000     0.000000       0
  20  O     0.00000000   -7.98933052    0.00000000     0.000000       0
 
 This molecule is a prolate symmetric top.
 
 Point group: C4v 
 Computational point group: C1  
 
 Cartesian coordinates in standard orientation [bohr]
   1  Au    0.00000000    0.00000000    2.93486895
   2  Au    0.00000000    0.00000000   -1.78316303
   3  O     0.00000000    0.00000000   -5.84728562
   4  Mg    3.99466526   -0.00000000   -5.84728562
   5  Mg    0.00000000    3.99466526   -5.84728562
   6  Mg   -3.99466526    0.00000000   -5.84728562
   7  Mg   -0.00000000   -3.99466526   -5.84728562
   8  Mg    0.00000000    0.00000000   -9.84195088
   9  O     3.99466526    3.99466526   -5.84728562
  10  O    -3.99466526    3.99466526   -5.84728562
  11  O    -3.99466526   -3.99466526   -5.84728562
  12  O     3.99466526   -3.99466526   -5.84728562
  13  O     3.99466526   -0.00000000   -9.84195088
  14  O     0.00000000    3.99466526   -9.84195088
  15  O    -3.99466526    0.00000000   -9.84195088
  16  O    -0.00000000   -3.99466526   -9.84195088
  17  O     7.98933052   -0.00000000   -5.84728562
  18  O     0.00000000    7.98933052   -5.84728562
  19  O    -7.98933052    0.00000000   -5.84728562
  20  O    -0.00000000   -7.98933052   -5.84728562
 
 Nuclear repulsion energy [au]:         76.514954066808
 
 
 Basis set information:
 
 Maximum angular momentum: i
 Maximum number of contracted Gaussians:   13
 Maximum number of primitive Gaussians:    16
 Spherical harmonic GTOs are used.
 
 
 Conventional basis set:
 
   1  Au def2-svp [ 7s 6p 5d 1f | 6s 3p 2d 1f ]
   2  Au def2-svp [ 7s 6p 5d 1f | 6s 3p 2d 1f ]
   3  O  def2-svp [ 7s 4p 1d | 3s 2p 1d ]
   4  Mg def2-svp [ 10s 7p 1d | 4s 3p 1d ]
   5  Mg def2-svp [ 10s 7p 1d | 4s 3p 1d ]
   6  Mg def2-svp [ 10s 7p 1d | 4s 3p 1d ]
   7  Mg def2-svp [ 10s 7p 1d | 4s 3p 1d ]
   8  Mg def2-svp [ 10s 7p 1d | 4s 3p 1d ]
   9  O  def2-svp [ 7s 4p 1d | 3s 2p 1d ]
  10  O  def2-svp [ 7s 4p 1d | 3s 2p 1d ]
  11  O  def2-svp [ 7s 4p 1d | 3s 2p 1d ]
  12  O  def2-svp [ 7s 4p 1d | 3s 2p 1d ]
  13  O  def2-svp [ 7s 4p 1d | 3s 2p 1d ]
  14  O  def2-svp [ 7s 4p 1d | 3s 2p 1d ]
  15  O  def2-svp [ 7s 4p 1d | 3s 2p 1d ]
  16  O  def2-svp [ 7s 4p 1d | 3s 2p 1d ]
  17  O  def2-svp [ 7s 4p 1d | 3s 2p 1d ]
  18  O  def2-svp [ 7s 4p 1d | 3s 2p 1d ]
  19  O  def2-svp [ 7s 4p 1d | 3s 2p 1d ]
  20  O  def2-svp [ 7s 4p 1d | 3s 2p 1d ]
 
 Basis functions:
            1             2             3             4             5             6             7             8             9            10
    0    1Au1s         1Au2s         1Au3s         1Au4s         1Au5s         1Au6s         1Au1pz        1Au1py        1Au1px        1Au2pz    
    1    1Au2py        1Au2px        1Au3pz        1Au3py        1Au3px        1Au1d-2       1Au1d-1       1Au1d0        1Au1d+1       1Au1d+2   
    2    1Au2d-2       1Au2d-1       1Au2d0        1Au2d+1       1Au2d+2       1Au1f-3       1Au1f-2       1Au1f-1       1Au1f0        1Au1f+1   
    3    1Au1f+2       1Au1f+3       2Au1s         2Au2s         2Au3s         2Au4s         2Au5s         2Au6s         2Au1pz        2Au1py    
    4    2Au1px        2Au2pz        2Au2py        2Au2px        2Au3pz        2Au3py        2Au3px        2Au1d-2       2Au1d-1       2Au1d0    
    5    2Au1d+1       2Au1d+2       2Au2d-2       2Au2d-1       2Au2d0        2Au2d+1       2Au2d+2       2Au1f-3       2Au1f-2       2Au1f-1   
    6    2Au1f0        2Au1f+1       2Au1f+2       2Au1f+3       3O1s          3O2s          3O3s          3O1pz         3O1py         3O1px     
    7    3O2pz         3O2py         3O2px         3O1d-2        3O1d-1        3O1d0         3O1d+1        3O1d+2        4Mg1s         4Mg2s     
    8    4Mg3s         4Mg4s         4Mg1pz        4Mg1py        4Mg1px        4Mg2pz        4Mg2py        4Mg2px        4Mg3pz        4Mg3py    
    9    4Mg3px        4Mg1d-2       4Mg1d-1       4Mg1d0        4Mg1d+1       4Mg1d+2       5Mg1s         5Mg2s         5Mg3s         5Mg4s     
   10    5Mg1pz        5Mg1py        5Mg1px        5Mg2pz        5Mg2py        5Mg2px        5Mg3pz        5Mg3py        5Mg3px        5Mg1d-2   
   11    5Mg1d-1       5Mg1d0        5Mg1d+1       5Mg1d+2       6Mg1s         6Mg2s         6Mg3s         6Mg4s         6Mg1pz        6Mg1py    
   12    6Mg1px        6Mg2pz        6Mg2py        6Mg2px        6Mg3pz        6Mg3py        6Mg3px        6Mg1d-2       6Mg1d-1       6Mg1d0    
   13    6Mg1d+1       6Mg1d+2       7Mg1s         7Mg2s         7Mg3s         7Mg4s         7Mg1pz        7Mg1py        7Mg1px        7Mg2pz    
   14    7Mg2py        7Mg2px        7Mg3pz        7Mg3py        7Mg3px        7Mg1d-2       7Mg1d-1       7Mg1d0        7Mg1d+1       7Mg1d+2   
   15    8Mg1s         8Mg2s         8Mg3s         8Mg4s         8Mg1pz        8Mg1py        8Mg1px        8Mg2pz        8Mg2py        8Mg2px    
   16    8Mg3pz        8Mg3py        8Mg3px        8Mg1d-2       8Mg1d-1       8Mg1d0        8Mg1d+1       8Mg1d+2       9O1s          9O2s      
   17    9O3s          9O1pz         9O1py         9O1px         9O2pz         9O2py         9O2px         9O1d-2        9O1d-1        9O1d0     
   18    9O1d+1        9O1d+2       10O1s         10O2s         10O3s         10O1pz        10O1py        10O1px        10O2pz        10O2py     
   19   10O2px        10O1d-2       10O1d-1       10O1d0        10O1d+1       10O1d+2       11O1s         11O2s         11O3s         11O1pz     
   20   11O1py        11O1px        11O2pz        11O2py        11O2px        11O1d-2       11O1d-1       11O1d0        11O1d+1       11O1d+2    
   21   12O1s         12O2s         12O3s         12O1pz        12O1py        12O1px        12O2pz        12O2py        12O2px        12O1d-2    
   22   12O1d-1       12O1d0        12O1d+1       12O1d+2       13O1s         13O2s         13O3s         13O1pz        13O1py        13O1px     
   23   13O2pz        13O2py        13O2px        13O1d-2       13O1d-1       13O1d0        13O1d+1       13O1d+2       14O1s         14O2s      
   24   14O3s         14O1pz        14O1py        14O1px        14O2pz        14O2py        14O2px        14O1d-2       14O1d-1       14O1d0     
   25   14O1d+1       14O1d+2       15O1s         15O2s         15O3s         15O1pz        15O1py        15O1px        15O2pz        15O2py     
   26   15O2px        15O1d-2       15O1d-1       15O1d0        15O1d+1       15O1d+2       16O1s         16O2s         16O3s         16O1pz     
   27   16O1py        16O1px        16O2pz        16O2py        16O2px        16O1d-2       16O1d-1       16O1d0        16O1d+1       16O1d+2    
   28   17O1s         17O2s         17O3s         17O1pz        17O1py        17O1px        17O2pz        17O2py        17O2px        17O1d-2    
   29   17O1d-1       17O1d0        17O1d+1       17O1d+2       18O1s         18O2s         18O3s         18O1pz        18O1py        18O1px     
   30   18O2pz        18O2py        18O2px        18O1d-2       18O1d-1       18O1d0        18O1d+1       18O1d+2       19O1s         19O2s      
   31   19O3s         19O1pz        19O1py        19O1px        19O2pz        19O2py        19O2px        19O1d-2       19O1d-1       19O1d0     
   32   19O1d+1       19O1d+2       20O1s         20O2s         20O3s         20O1pz        20O1py        20O1px        20O2pz        20O2py     
   33   20O2px        20O1d-2       20O1d-1       20O1d0        20O1d+1       20O1d+2    
 
 Maximum number of basis functions per shell:   10
 Total number of basis functions:    336
 
 
 Fitting basis set for the SCF calculation:
 
   1  Au def2-qzvpp-ri-jk [ 13s 12p 11d 9f 5g 3h 2i | 13s 11p 10d 8f 4g 3h 2i ]
   2  Au def2-qzvpp-ri-jk [ 13s 12p 11d 9f 5g 3h 2i | 13s 11p 10d 8f 4g 3h 2i ]
   3  O  def2-qzvpp-ri-jk [ 14s 10p 6d 2f 1g | 10s 8p 4d 2f 1g ]
   4  Mg def2-qzvpp-ri-jk [ 16s 12p 9d 4f 1g | 13s 9p 7d 4f 1g ]
   5  Mg def2-qzvpp-ri-jk [ 16s 12p 9d 4f 1g | 13s 9p 7d 4f 1g ]
   6  Mg def2-qzvpp-ri-jk [ 16s 12p 9d 4f 1g | 13s 9p 7d 4f 1g ]
   7  Mg def2-qzvpp-ri-jk [ 16s 12p 9d 4f 1g | 13s 9p 7d 4f 1g ]
   8  Mg def2-qzvpp-ri-jk [ 16s 12p 9d 4f 1g | 13s 9p 7d 4f 1g ]
   9  O  def2-qzvpp-ri-jk [ 14s 10p 6d 2f 1g | 10s 8p 4d 2f 1g ]
  10  O  def2-qzvpp-ri-jk [ 14s 10p 6d 2f 1g | 10s 8p 4d 2f 1g ]
  11  O  def2-qzvpp-ri-jk [ 14s 10p 6d 2f 1g | 10s 8p 4d 2f 1g ]
  12  O  def2-qzvpp-ri-jk [ 14s 10p 6d 2f 1g | 10s 8p 4d 2f 1g ]
  13  O  def2-qzvpp-ri-jk [ 14s 10p 6d 2f 1g | 10s 8p 4d 2f 1g ]
  14  O  def2-qzvpp-ri-jk [ 14s 10p 6d 2f 1g | 10s 8p 4d 2f 1g ]
  15  O  def2-qzvpp-ri-jk [ 14s 10p 6d 2f 1g | 10s 8p 4d 2f 1g ]
  16  O  def2-qzvpp-ri-jk [ 14s 10p 6d 2f 1g | 10s 8p 4d 2f 1g ]
  17  O  def2-qzvpp-ri-jk [ 14s 10p 6d 2f 1g | 10s 8p 4d 2f 1g ]
  18  O  def2-qzvpp-ri-jk [ 14s 10p 6d 2f 1g | 10s 8p 4d 2f 1g ]
  19  O  def2-qzvpp-ri-jk [ 14s 10p 6d 2f 1g | 10s 8p 4d 2f 1g ]
  20  O  def2-qzvpp-ri-jk [ 14s 10p 6d 2f 1g | 10s 8p 4d 2f 1g ]
 
 Basis functions:
            1             2             3             4             5             6             7             8             9            10
    0    1Au1s         1Au2s         1Au3s         1Au4s         1Au5s         1Au6s         1Au7s         1Au8s         1Au9s         1Au10s    
    1    1Au11s        1Au12s        1Au13s        1Au1pz        1Au1py        1Au1px        1Au2pz        1Au2py        1Au2px        1Au3pz    
    2    1Au3py        1Au3px        1Au4pz        1Au4py        1Au4px        1Au5pz        1Au5py        1Au5px        1Au6pz        1Au6py    
    3    1Au6px        1Au7pz        1Au7py        1Au7px        1Au8pz        1Au8py        1Au8px        1Au9pz        1Au9py        1Au9px    
    4    1Au10pz       1Au10py       1Au10px       1Au11pz       1Au11py       1Au11px       1Au1d-2       1Au1d-1       1Au1d0        1Au1d+1   
    5    1Au1d+2       1Au2d-2       1Au2d-1       1Au2d0        1Au2d+1       1Au2d+2       1Au3d-2       1Au3d-1       1Au3d0        1Au3d+1   
    6    1Au3d+2       1Au4d-2       1Au4d-1       1Au4d0        1Au4d+1       1Au4d+2       1Au5d-2       1Au5d-1       1Au5d0        1Au5d+1   
    7    1Au5d+2       1Au6d-2       1Au6d-1       1Au6d0        1Au6d+1       1Au6d+2       1Au7d-2       1Au7d-1       1Au7d0        1Au7d+1   
    8    1Au7d+2       1Au8d-2       1Au8d-1       1Au8d0        1Au8d+1       1Au8d+2       1Au9d-2       1Au9d-1       1Au9d0        1Au9d+1   
    9    1Au9d+2       1Au10d-2      1Au10d-1      1Au10d0       1Au10d+1      1Au10d+2      1Au1f-3       1Au1f-2       1Au1f-1       1Au1f0    
   10    1Au1f+1       1Au1f+2       1Au1f+3       1Au2f-3       1Au2f-2       1Au2f-1       1Au2f0        1Au2f+1       1Au2f+2       1Au2f+3   
   11    1Au3f-3       1Au3f-2       1Au3f-1       1Au3f0        1Au3f+1       1Au3f+2       1Au3f+3       1Au4f-3       1Au4f-2       1Au4f-1   
   12    1Au4f0        1Au4f+1       1Au4f+2       1Au4f+3       1Au5f-3       1Au5f-2       1Au5f-1       1Au5f0        1Au5f+1       1Au5f+2   
   13    1Au5f+3       1Au6f-3       1Au6f-2       1Au6f-1       1Au6f0        1Au6f+1       1Au6f+2       1Au6f+3       1Au7f-3       1Au7f-2   
   14    1Au7f-1       1Au7f0        1Au7f+1       1Au7f+2       1Au7f+3       1Au8f-3       1Au8f-2       1Au8f-1       1Au8f0        1Au8f+1   
   15    1Au8f+2       1Au8f+3       1Au1g-4       1Au1g-3       1Au1g-2       1Au1g-1       1Au1g0        1Au1g+1       1Au1g+2       1Au1g+3   
   16    1Au1g+4       1Au2g-4       1Au2g-3       1Au2g-2       1Au2g-1       1Au2g0        1Au2g+1       1Au2g+2       1Au2g+3       1Au2g+4   
   17    1Au3g-4       1Au3g-3       1Au3g-2       1Au3g-1       1Au3g0        1Au3g+1       1Au3g+2       1Au3g+3       1Au3g+4       1Au4g-4   
   18    1Au4g-3       1Au4g-2       1Au4g-1       1Au4g0        1Au4g+1       1Au4g+2       1Au4g+3       1Au4g+4       1Au1h-5       1Au1h-4   
   19    1Au1h-3       1Au1h-2       1Au1h-1       1Au1h0        1Au1h+1       1Au1h+2       1Au1h+3       1Au1h+4       1Au1h+5       1Au2h-5   
   20    1Au2h-4       1Au2h-3       1Au2h-2       1Au2h-1       1Au2h0        1Au2h+1       1Au2h+2       1Au2h+3       1Au2h+4       1Au2h+5   
   21    1Au3h-5       1Au3h-4       1Au3h-3       1Au3h-2       1Au3h-1       1Au3h0        1Au3h+1       1Au3h+2       1Au3h+3       1Au3h+4   
   22    1Au3h+5       1Au1i-6       1Au1i-5       1Au1i-4       1Au1i-3       1Au1i-2       1Au1i-1       1Au1i0        1Au1i+1       1Au1i+2   
   23    1Au1i+3       1Au1i+4       1Au1i+5       1Au1i+6       1Au2i-6       1Au2i-5       1Au2i-4       1Au2i-3       1Au2i-2       1Au2i-1   
   24    1Au2i0        1Au2i+1       1Au2i+2       1Au2i+3       1Au2i+4       1Au2i+5       1Au2i+6       2Au1s         2Au2s         2Au3s     
   25    2Au4s         2Au5s         2Au6s         2Au7s         2Au8s         2Au9s         2Au10s        2Au11s        2Au12s        2Au13s    
   26    2Au1pz        2Au1py        2Au1px        2Au2pz        2Au2py        2Au2px        2Au3pz        2Au3py        2Au3px        2Au4pz    
   27    2Au4py        2Au4px        2Au5pz        2Au5py        2Au5px        2Au6pz        2Au6py        2Au6px        2Au7pz        2Au7py    
   28    2Au7px        2Au8pz        2Au8py        2Au8px        2Au9pz        2Au9py        2Au9px        2Au10pz       2Au10py       2Au10px   
   29    2Au11pz       2Au11py       2Au11px       2Au1d-2       2Au1d-1       2Au1d0        2Au1d+1       2Au1d+2       2Au2d-2       2Au2d-1   
   30    2Au2d0        2Au2d+1       2Au2d+2       2Au3d-2       2Au3d-1       2Au3d0        2Au3d+1       2Au3d+2       2Au4d-2       2Au4d-1   
   31    2Au4d0        2Au4d+1       2Au4d+2       2Au5d-2       2Au5d-1       2Au5d0        2Au5d+1       2Au5d+2       2Au6d-2       2Au6d-1   
   32    2Au6d0        2Au6d+1       2Au6d+2       2Au7d-2       2Au7d-1       2Au7d0        2Au7d+1       2Au7d+2       2Au8d-2       2Au8d-1   
   33    2Au8d0        2Au8d+1       2Au8d+2       2Au9d-2       2Au9d-1       2Au9d0        2Au9d+1       2Au9d+2       2Au10d-2      2Au10d-1  
   34    2Au10d0       2Au10d+1      2Au10d+2      2Au1f-3       2Au1f-2       2Au1f-1       2Au1f0        2Au1f+1       2Au1f+2       2Au1f+3   
   35    2Au2f-3       2Au2f-2       2Au2f-1       2Au2f0        2Au2f+1       2Au2f+2       2Au2f+3       2Au3f-3       2Au3f-2       2Au3f-1   
   36    2Au3f0        2Au3f+1       2Au3f+2       2Au3f+3       2Au4f-3       2Au4f-2       2Au4f-1       2Au4f0        2Au4f+1       2Au4f+2   
   37    2Au4f+3       2Au5f-3       2Au5f-2       2Au5f-1       2Au5f0        2Au5f+1       2Au5f+2       2Au5f+3       2Au6f-3       2Au6f-2   
   38    2Au6f-1       2Au6f0        2Au6f+1       2Au6f+2       2Au6f+3       2Au7f-3       2Au7f-2       2Au7f-1       2Au7f0        2Au7f+1   
   39    2Au7f+2       2Au7f+3       2Au8f-3       2Au8f-2       2Au8f-1       2Au8f0        2Au8f+1       2Au8f+2       2Au8f+3       2Au1g-4   
   40    2Au1g-3       2Au1g-2       2Au1g-1       2Au1g0        2Au1g+1       2Au1g+2       2Au1g+3       2Au1g+4       2Au2g-4       2Au2g-3   
   41    2Au2g-2       2Au2g-1       2Au2g0        2Au2g+1       2Au2g+2       2Au2g+3       2Au2g+4       2Au3g-4       2Au3g-3       2Au3g-2   
   42    2Au3g-1       2Au3g0        2Au3g+1       2Au3g+2       2Au3g+3       2Au3g+4       2Au4g-4       2Au4g-3       2Au4g-2       2Au4g-1   
   43    2Au4g0        2Au4g+1       2Au4g+2       2Au4g+3       2Au4g+4       2Au1h-5       2Au1h-4       2Au1h-3       2Au1h-2       2Au1h-1   
   44    2Au1h0        2Au1h+1       2Au1h+2       2Au1h+3       2Au1h+4       2Au1h+5       2Au2h-5       2Au2h-4       2Au2h-3       2Au2h-2   
   45    2Au2h-1       2Au2h0        2Au2h+1       2Au2h+2       2Au2h+3       2Au2h+4       2Au2h+5       2Au3h-5       2Au3h-4       2Au3h-3   
   46    2Au3h-2       2Au3h-1       2Au3h0        2Au3h+1       2Au3h+2       2Au3h+3       2Au3h+4       2Au3h+5       2Au1i-6       2Au1i-5   
   47    2Au1i-4       2Au1i-3       2Au1i-2       2Au1i-1       2Au1i0        2Au1i+1       2Au1i+2       2Au1i+3       2Au1i+4       2Au1i+5   
   48    2Au1i+6       2Au2i-6       2Au2i-5       2Au2i-4       2Au2i-3       2Au2i-2       2Au2i-1       2Au2i0        2Au2i+1       2Au2i+2   
   49    2Au2i+3       2Au2i+4       2Au2i+5       2Au2i+6       3O1s          3O2s          3O3s          3O4s          3O5s          3O6s      
   50    3O7s          3O8s          3O9s          3O10s         3O1pz         3O1py         3O1px         3O2pz         3O2py         3O2px     
   51    3O3pz         3O3py         3O3px         3O4pz         3O4py         3O4px         3O5pz         3O5py         3O5px         3O6pz     
   52    3O6py         3O6px         3O7pz         3O7py         3O7px         3O8pz         3O8py         3O8px         3O1d-2        3O1d-1    
   53    3O1d0         3O1d+1        3O1d+2        3O2d-2        3O2d-1        3O2d0         3O2d+1        3O2d+2        3O3d-2        3O3d-1    
   54    3O3d0         3O3d+1        3O3d+2        3O4d-2        3O4d-1        3O4d0         3O4d+1        3O4d+2        3O1f-3        3O1f-2    
   55    3O1f-1        3O1f0         3O1f+1        3O1f+2        3O1f+3        3O2f-3        3O2f-2        3O2f-1        3O2f0         3O2f+1    
   56    3O2f+2        3O2f+3        3O1g-4        3O1g-3        3O1g-2        3O1g-1        3O1g0         3O1g+1        3O1g+2        3O1g+3    
   57    3O1g+4        4Mg1s         4Mg2s         4Mg3s         4Mg4s         4Mg5s         4Mg6s         4Mg7s         4Mg8s         4Mg9s     
   58    4Mg10s        4Mg11s        4Mg12s        4Mg13s        4Mg1pz        4Mg1py        4Mg1px        4Mg2pz        4Mg2py        4Mg2px    
   59    4Mg3pz        4Mg3py        4Mg3px        4Mg4pz        4Mg4py        4Mg4px        4Mg5pz        4Mg5py        4Mg5px        4Mg6pz    
   60    4Mg6py        4Mg6px        4Mg7pz        4Mg7py        4Mg7px        4Mg8pz        4Mg8py        4Mg8px        4Mg9pz        4Mg9py    
   61    4Mg9px        4Mg1d-2       4Mg1d-1       4Mg1d0        4Mg1d+1       4Mg1d+2       4Mg2d-2       4Mg2d-1       4Mg2d0        4Mg2d+1   
   62    4Mg2d+2       4Mg3d-2       4Mg3d-1       4Mg3d0        4Mg3d+1       4Mg3d+2       4Mg4d-2       4Mg4d-1       4Mg4d0        4Mg4d+1   
   63    4Mg4d+2       4Mg5d-2       4Mg5d-1       4Mg5d0        4Mg5d+1       4Mg5d+2       4Mg6d-2       4Mg6d-1       4Mg6d0        4Mg6d+1   
   64    4Mg6d+2       4Mg7d-2       4Mg7d-1       4Mg7d0        4Mg7d+1       4Mg7d+2       4Mg1f-3       4Mg1f-2       4Mg1f-1       4Mg1f0    
   65    4Mg1f+1       4Mg1f+2       4Mg1f+3       4Mg2f-3       4Mg2f-2       4Mg2f-1       4Mg2f0        4Mg2f+1       4Mg2f+2       4Mg2f+3   
   66    4Mg3f-3       4Mg3f-2       4Mg3f-1       4Mg3f0        4Mg3f+1       4Mg3f+2       4Mg3f+3       4Mg4f-3       4Mg4f-2       4Mg4f-1   
   67    4Mg4f0        4Mg4f+1       4Mg4f+2       4Mg4f+3       4Mg1g-4       4Mg1g-3       4Mg1g-2       4Mg1g-1       4Mg1g0        4Mg1g+1   
   68    4Mg1g+2       4Mg1g+3       4Mg1g+4       5Mg1s         5Mg2s         5Mg3s         5Mg4s         5Mg5s         5Mg6s         5Mg7s     
   69    5Mg8s         5Mg9s         5Mg10s        5Mg11s        5Mg12s        5Mg13s        5Mg1pz        5Mg1py        5Mg1px        5Mg2pz    
   70    5Mg2py        5Mg2px        5Mg3pz        5Mg3py        5Mg3px        5Mg4pz        5Mg4py        5Mg4px        5Mg5pz        5Mg5py    
   71    5Mg5px        5Mg6pz        5Mg6py        5Mg6px        5Mg7pz        5Mg7py        5Mg7px        5Mg8pz        5Mg8py        5Mg8px    
   72    5Mg9pz        5Mg9py        5Mg9px        5Mg1d-2       5Mg1d-1       5Mg1d0        5Mg1d+1       5Mg1d+2       5Mg2d-2       5Mg2d-1   
   73    5Mg2d0        5Mg2d+1       5Mg2d+2       5Mg3d-2       5Mg3d-1       5Mg3d0        5Mg3d+1       5Mg3d+2       5Mg4d-2       5Mg4d-1   
   74    5Mg4d0        5Mg4d+1       5Mg4d+2       5Mg5d-2       5Mg5d-1       5Mg5d0        5Mg5d+1       5Mg5d+2       5Mg6d-2       5Mg6d-1   
   75    5Mg6d0        5Mg6d+1       5Mg6d+2       5Mg7d-2       5Mg7d-1       5Mg7d0        5Mg7d+1       5Mg7d+2       5Mg1f-3       5Mg1f-2   
   76    5Mg1f-1       5Mg1f0        5Mg1f+1       5Mg1f+2       5Mg1f+3       5Mg2f-3       5Mg2f-2       5Mg2f-1       5Mg2f0        5Mg2f+1   
   77    5Mg2f+2       5Mg2f+3       5Mg3f-3       5Mg3f-2       5Mg3f-1       5Mg3f0        5Mg3f+1       5Mg3f+2       5Mg3f+3       5Mg4f-3   
   78    5Mg4f-2       5Mg4f-1       5Mg4f0        5Mg4f+1       5Mg4f+2       5Mg4f+3       5Mg1g-4       5Mg1g-3       5Mg1g-2       5Mg1g-1   
   79    5Mg1g0        5Mg1g+1       5Mg1g+2       5Mg1g+3       5Mg1g+4       6Mg1s         6Mg2s         6Mg3s         6Mg4s         6Mg5s     
   80    6Mg6s         6Mg7s         6Mg8s         6Mg9s         6Mg10s        6Mg11s        6Mg12s        6Mg13s        6Mg1pz        6Mg1py    
   81    6Mg1px        6Mg2pz        6Mg2py        6Mg2px        6Mg3pz        6Mg3py        6Mg3px        6Mg4pz        6Mg4py        6Mg4px    
   82    6Mg5pz        6Mg5py        6Mg5px        6Mg6pz        6Mg6py        6Mg6px        6Mg7pz        6Mg7py        6Mg7px        6Mg8pz    
   83    6Mg8py        6Mg8px        6Mg9pz        6Mg9py        6Mg9px        6Mg1d-2       6Mg1d-1       6Mg1d0        6Mg1d+1       6Mg1d+2   
   84    6Mg2d-2       6Mg2d-1       6Mg2d0        6Mg2d+1       6Mg2d+2       6Mg3d-2       6Mg3d-1       6Mg3d0        6Mg3d+1       6Mg3d+2   
   85    6Mg4d-2       6Mg4d-1       6Mg4d0        6Mg4d+1       6Mg4d+2       6Mg5d-2       6Mg5d-1       6Mg5d0        6Mg5d+1       6Mg5d+2   
   86    6Mg6d-2       6Mg6d-1       6Mg6d0        6Mg6d+1       6Mg6d+2       6Mg7d-2       6Mg7d-1       6Mg7d0        6Mg7d+1       6Mg7d+2   
   87    6Mg1f-3       6Mg1f-2       6Mg1f-1       6Mg1f0        6Mg1f+1       6Mg1f+2       6Mg1f+3       6Mg2f-3       6Mg2f-2       6Mg2f-1   
   88    6Mg2f0        6Mg2f+1       6Mg2f+2       6Mg2f+3       6Mg3f-3       6Mg3f-2       6Mg3f-1       6Mg3f0        6Mg3f+1       6Mg3f+2   
   89    6Mg3f+3       6Mg4f-3       6Mg4f-2       6Mg4f-1       6Mg4f0        6Mg4f+1       6Mg4f+2       6Mg4f+3       6Mg1g-4       6Mg1g-3   
   90    6Mg1g-2       6Mg1g-1       6Mg1g0        6Mg1g+1       6Mg1g+2       6Mg1g+3       6Mg1g+4       7Mg1s         7Mg2s         7Mg3s     
   91    7Mg4s         7Mg5s         7Mg6s         7Mg7s         7Mg8s         7Mg9s         7Mg10s        7Mg11s        7Mg12s        7Mg13s    
   92    7Mg1pz        7Mg1py        7Mg1px        7Mg2pz        7Mg2py        7Mg2px        7Mg3pz        7Mg3py        7Mg3px        7Mg4pz    
   93    7Mg4py        7Mg4px        7Mg5pz        7Mg5py        7Mg5px        7Mg6pz        7Mg6py        7Mg6px        7Mg7pz        7Mg7py    
   94    7Mg7px        7Mg8pz        7Mg8py        7Mg8px        7Mg9pz        7Mg9py        7Mg9px        7Mg1d-2       7Mg1d-1       7Mg1d0    
   95    7Mg1d+1       7Mg1d+2       7Mg2d-2       7Mg2d-1       7Mg2d0        7Mg2d+1       7Mg2d+2       7Mg3d-2       7Mg3d-1       7Mg3d0    
   96    7Mg3d+1       7Mg3d+2       7Mg4d-2       7Mg4d-1       7Mg4d0        7Mg4d+1       7Mg4d+2       7Mg5d-2       7Mg5d-1       7Mg5d0    
   97    7Mg5d+1       7Mg5d+2       7Mg6d-2       7Mg6d-1       7Mg6d0        7Mg6d+1       7Mg6d+2       7Mg7d-2       7Mg7d-1       7Mg7d0    
   98    7Mg7d+1       7Mg7d+2       7Mg1f-3       7Mg1f-2       7Mg1f-1       7Mg1f0        7Mg1f+1       7Mg1f+2       7Mg1f+3       7Mg2f-3   
   99    7Mg2f-2       7Mg2f-1       7Mg2f0        7Mg2f+1       7Mg2f+2       7Mg2f+3       7Mg3f-3       7Mg3f-2       7Mg3f-1       7Mg3f0    
  100    7Mg3f+1       7Mg3f+2       7Mg3f+3       7Mg4f-3       7Mg4f-2       7Mg4f-1       7Mg4f0        7Mg4f+1       7Mg4f+2       7Mg4f+3   
  101    7Mg1g-4       7Mg1g-3       7Mg1g-2       7Mg1g-1       7Mg1g0        7Mg1g+1       7Mg1g+2       7Mg1g+3       7Mg1g+4       8Mg1s     
  102    8Mg2s         8Mg3s         8Mg4s         8Mg5s         8Mg6s         8Mg7s         8Mg8s         8Mg9s         8Mg10s        8Mg11s    
  103    8Mg12s        8Mg13s        8Mg1pz        8Mg1py        8Mg1px        8Mg2pz        8Mg2py        8Mg2px        8Mg3pz        8Mg3py    
  104    8Mg3px        8Mg4pz        8Mg4py        8Mg4px        8Mg5pz        8Mg5py        8Mg5px        8Mg6pz        8Mg6py        8Mg6px    
  105    8Mg7pz        8Mg7py        8Mg7px        8Mg8pz        8Mg8py        8Mg8px        8Mg9pz        8Mg9py        8Mg9px        8Mg1d-2   
  106    8Mg1d-1       8Mg1d0        8Mg1d+1       8Mg1d+2       8Mg2d-2       8Mg2d-1       8Mg2d0        8Mg2d+1       8Mg2d+2       8Mg3d-2   
  107    8Mg3d-1       8Mg3d0        8Mg3d+1       8Mg3d+2       8Mg4d-2       8Mg4d-1       8Mg4d0        8Mg4d+1       8Mg4d+2       8Mg5d-2   
  108    8Mg5d-1       8Mg5d0        8Mg5d+1       8Mg5d+2       8Mg6d-2       8Mg6d-1       8Mg6d0        8Mg6d+1       8Mg6d+2       8Mg7d-2   
  109    8Mg7d-1       8Mg7d0        8Mg7d+1       8Mg7d+2       8Mg1f-3       8Mg1f-2       8Mg1f-1       8Mg1f0        8Mg1f+1       8Mg1f+2   
  110    8Mg1f+3       8Mg2f-3       8Mg2f-2       8Mg2f-1       8Mg2f0        8Mg2f+1       8Mg2f+2       8Mg2f+3       8Mg3f-3       8Mg3f-2   
  111    8Mg3f-1       8Mg3f0        8Mg3f+1       8Mg3f+2       8Mg3f+3       8Mg4f-3       8Mg4f-2       8Mg4f-1       8Mg4f0        8Mg4f+1   
  112    8Mg4f+2       8Mg4f+3       8Mg1g-4       8Mg1g-3       8Mg1g-2       8Mg1g-1       8Mg1g0        8Mg1g+1       8Mg1g+2       8Mg1g+3   
  113    8Mg1g+4       9O1s          9O2s          9O3s          9O4s          9O5s          9O6s          9O7s          9O8s          9O9s      
  114    9O10s         9O1pz         9O1py         9O1px         9O2pz         9O2py         9O2px         9O3pz         9O3py         9O3px     
  115    9O4pz         9O4py         9O4px         9O5pz         9O5py         9O5px         9O6pz         9O6py         9O6px         9O7pz     
  116    9O7py         9O7px         9O8pz         9O8py         9O8px         9O1d-2        9O1d-1        9O1d0         9O1d+1        9O1d+2    
  117    9O2d-2        9O2d-1        9O2d0         9O2d+1        9O2d+2        9O3d-2        9O3d-1        9O3d0         9O3d+1        9O3d+2    
  118    9O4d-2        9O4d-1        9O4d0         9O4d+1        9O4d+2        9O1f-3        9O1f-2        9O1f-1        9O1f0         9O1f+1    
  119    9O1f+2        9O1f+3        9O2f-3        9O2f-2        9O2f-1        9O2f0         9O2f+1        9O2f+2        9O2f+3        9O1g-4    
  120    9O1g-3        9O1g-2        9O1g-1        9O1g0         9O1g+1        9O1g+2        9O1g+3        9O1g+4       10O1s         10O2s      
  121   10O3s         10O4s         10O5s         10O6s         10O7s         10O8s         10O9s         10O10s        10O1pz        10O1py     
  122   10O1px        10O2pz        10O2py        10O2px        10O3pz        10O3py        10O3px        10O4pz        10O4py        10O4px     
  123   10O5pz        10O5py        10O5px        10O6pz        10O6py        10O6px        10O7pz        10O7py        10O7px        10O8pz     
  124   10O8py        10O8px        10O1d-2       10O1d-1       10O1d0        10O1d+1       10O1d+2       10O2d-2       10O2d-1       10O2d0     
  125   10O2d+1       10O2d+2       10O3d-2       10O3d-1       10O3d0        10O3d+1       10O3d+2       10O4d-2       10O4d-1       10O4d0     
  126   10O4d+1       10O4d+2       10O1f-3       10O1f-2       10O1f-1       10O1f0        10O1f+1       10O1f+2       10O1f+3       10O2f-3    
  127   10O2f-2       10O2f-1       10O2f0        10O2f+1       10O2f+2       10O2f+3       10O1g-4       10O1g-3       10O1g-2       10O1g-1    
  128   10O1g0        10O1g+1       10O1g+2       10O1g+3       10O1g+4       11O1s         11O2s         11O3s         11O4s         11O5s      
  129   11O6s         11O7s         11O8s         11O9s         11O10s        11O1pz        11O1py        11O1px        11O2pz        11O2py     
  130   11O2px        11O3pz        11O3py        11O3px        11O4pz        11O4py        11O4px        11O5pz        11O5py        11O5px     
  131   11O6pz        11O6py        11O6px        11O7pz        11O7py        11O7px        11O8pz        11O8py        11O8px        11O1d-2    
  132   11O1d-1       11O1d0        11O1d+1       11O1d+2       11O2d-2       11O2d-1       11O2d0        11O2d+1       11O2d+2       11O3d-2    
  133   11O3d-1       11O3d0        11O3d+1       11O3d+2       11O4d-2       11O4d-1       11O4d0        11O4d+1       11O4d+2       11O1f-3    
  134   11O1f-2       11O1f-1       11O1f0        11O1f+1       11O1f+2       11O1f+3       11O2f-3       11O2f-2       11O2f-1       11O2f0     
  135   11O2f+1       11O2f+2       11O2f+3       11O1g-4       11O1g-3       11O1g-2       11O1g-1       11O1g0        11O1g+1       11O1g+2    
  136   11O1g+3       11O1g+4       12O1s         12O2s         12O3s         12O4s         12O5s         12O6s         12O7s         12O8s      
  137   12O9s         12O10s        12O1pz        12O1py        12O1px        12O2pz        12O2py        12O2px        12O3pz        12O3py     
  138   12O3px        12O4pz        12O4py        12O4px        12O5pz        12O5py        12O5px        12O6pz        12O6py        12O6px     
  139   12O7pz        12O7py        12O7px        12O8pz        12O8py        12O8px        12O1d-2       12O1d-1       12O1d0        12O1d+1    
  140   12O1d+2       12O2d-2       12O2d-1       12O2d0        12O2d+1       12O2d+2       12O3d-2       12O3d-1       12O3d0        12O3d+1    
  141   12O3d+2       12O4d-2       12O4d-1       12O4d0        12O4d+1       12O4d+2       12O1f-3       12O1f-2       12O1f-1       12O1f0     
  142   12O1f+1       12O1f+2       12O1f+3       12O2f-3       12O2f-2       12O2f-1       12O2f0        12O2f+1       12O2f+2       12O2f+3    
  143   12O1g-4       12O1g-3       12O1g-2       12O1g-1       12O1g0        12O1g+1       12O1g+2       12O1g+3       12O1g+4       13O1s      
  144   13O2s         13O3s         13O4s         13O5s         13O6s         13O7s         13O8s         13O9s         13O10s        13O1pz     
  145   13O1py        13O1px        13O2pz        13O2py        13O2px        13O3pz        13O3py        13O3px        13O4pz        13O4py     
  146   13O4px        13O5pz        13O5py        13O5px        13O6pz        13O6py        13O6px        13O7pz        13O7py        13O7px     
  147   13O8pz        13O8py        13O8px        13O1d-2       13O1d-1       13O1d0        13O1d+1       13O1d+2       13O2d-2       13O2d-1    
  148   13O2d0        13O2d+1       13O2d+2       13O3d-2       13O3d-1       13O3d0        13O3d+1       13O3d+2       13O4d-2       13O4d-1    
  149   13O4d0        13O4d+1       13O4d+2       13O1f-3       13O1f-2       13O1f-1       13O1f0        13O1f+1       13O1f+2       13O1f+3    
  150   13O2f-3       13O2f-2       13O2f-1       13O2f0        13O2f+1       13O2f+2       13O2f+3       13O1g-4       13O1g-3       13O1g-2    
  151   13O1g-1       13O1g0        13O1g+1       13O1g+2       13O1g+3       13O1g+4       14O1s         14O2s         14O3s         14O4s      
  152   14O5s         14O6s         14O7s         14O8s         14O9s         14O10s        14O1pz        14O1py        14O1px        14O2pz     
  153   14O2py        14O2px        14O3pz        14O3py        14O3px        14O4pz        14O4py        14O4px        14O5pz        14O5py     
  154   14O5px        14O6pz        14O6py        14O6px        14O7pz        14O7py        14O7px        14O8pz        14O8py        14O8px     
  155   14O1d-2       14O1d-1       14O1d0        14O1d+1       14O1d+2       14O2d-2       14O2d-1       14O2d0        14O2d+1       14O2d+2    
  156   14O3d-2       14O3d-1       14O3d0        14O3d+1       14O3d+2       14O4d-2       14O4d-1       14O4d0        14O4d+1       14O4d+2    
  157   14O1f-3       14O1f-2       14O1f-1       14O1f0        14O1f+1       14O1f+2       14O1f+3       14O2f-3       14O2f-2       14O2f-1    
  158   14O2f0        14O2f+1       14O2f+2       14O2f+3       14O1g-4       14O1g-3       14O1g-2       14O1g-1       14O1g0        14O1g+1    
  159   14O1g+2       14O1g+3       14O1g+4       15O1s         15O2s         15O3s         15O4s         15O5s         15O6s         15O7s      
  160   15O8s         15O9s         15O10s        15O1pz        15O1py        15O1px        15O2pz        15O2py        15O2px        15O3pz     
  161   15O3py        15O3px        15O4pz        15O4py        15O4px        15O5pz        15O5py        15O5px        15O6pz        15O6py     
  162   15O6px        15O7pz        15O7py        15O7px        15O8pz        15O8py        15O8px        15O1d-2       15O1d-1       15O1d0     
  163   15O1d+1       15O1d+2       15O2d-2       15O2d-1       15O2d0        15O2d+1       15O2d+2       15O3d-2       15O3d-1       15O3d0     
  164   15O3d+1       15O3d+2       15O4d-2       15O4d-1       15O4d0        15O4d+1       15O4d+2       15O1f-3       15O1f-2       15O1f-1    
  165   15O1f0        15O1f+1       15O1f+2       15O1f+3       15O2f-3       15O2f-2       15O2f-1       15O2f0        15O2f+1       15O2f+2    
  166   15O2f+3       15O1g-4       15O1g-3       15O1g-2       15O1g-1       15O1g0        15O1g+1       15O1g+2       15O1g+3       15O1g+4    
  167   16O1s         16O2s         16O3s         16O4s         16O5s         16O6s         16O7s         16O8s         16O9s         16O10s     
  168   16O1pz        16O1py        16O1px        16O2pz        16O2py        16O2px        16O3pz        16O3py        16O3px        16O4pz     
  169   16O4py        16O4px        16O5pz        16O5py        16O5px        16O6pz        16O6py        16O6px        16O7pz        16O7py     
  170   16O7px        16O8pz        16O8py        16O8px        16O1d-2       16O1d-1       16O1d0        16O1d+1       16O1d+2       16O2d-2    
  171   16O2d-1       16O2d0        16O2d+1       16O2d+2       16O3d-2       16O3d-1       16O3d0        16O3d+1       16O3d+2       16O4d-2    
  172   16O4d-1       16O4d0        16O4d+1       16O4d+2       16O1f-3       16O1f-2       16O1f-1       16O1f0        16O1f+1       16O1f+2    
  173   16O1f+3       16O2f-3       16O2f-2       16O2f-1       16O2f0        16O2f+1       16O2f+2       16O2f+3       16O1g-4       16O1g-3    
  174   16O1g-2       16O1g-1       16O1g0        16O1g+1       16O1g+2       16O1g+3       16O1g+4       17O1s         17O2s         17O3s      
  175   17O4s         17O5s         17O6s         17O7s         17O8s         17O9s         17O10s        17O1pz        17O1py        17O1px     
  176   17O2pz        17O2py        17O2px        17O3pz        17O3py        17O3px        17O4pz        17O4py        17O4px        17O5pz     
  177   17O5py        17O5px        17O6pz        17O6py        17O6px        17O7pz        17O7py        17O7px        17O8pz        17O8py     
  178   17O8px        17O1d-2       17O1d-1       17O1d0        17O1d+1       17O1d+2       17O2d-2       17O2d-1       17O2d0        17O2d+1    
  179   17O2d+2       17O3d-2       17O3d-1       17O3d0        17O3d+1       17O3d+2       17O4d-2       17O4d-1       17O4d0        17O4d+1    
  180   17O4d+2       17O1f-3       17O1f-2       17O1f-1       17O1f0        17O1f+1       17O1f+2       17O1f+3       17O2f-3       17O2f-2    
  181   17O2f-1       17O2f0        17O2f+1       17O2f+2       17O2f+3       17O1g-4       17O1g-3       17O1g-2       17O1g-1       17O1g0     
  182   17O1g+1       17O1g+2       17O1g+3       17O1g+4       18O1s         18O2s         18O3s         18O4s         18O5s         18O6s      
  183   18O7s         18O8s         18O9s         18O10s        18O1pz        18O1py        18O1px        18O2pz        18O2py        18O2px     
  184   18O3pz        18O3py        18O3px        18O4pz        18O4py        18O4px        18O5pz        18O5py        18O5px        18O6pz     
  185   18O6py        18O6px        18O7pz        18O7py        18O7px        18O8pz        18O8py        18O8px        18O1d-2       18O1d-1    
  186   18O1d0        18O1d+1       18O1d+2       18O2d-2       18O2d-1       18O2d0        18O2d+1       18O2d+2       18O3d-2       18O3d-1    
  187   18O3d0        18O3d+1       18O3d+2       18O4d-2       18O4d-1       18O4d0        18O4d+1       18O4d+2       18O1f-3       18O1f-2    
  188   18O1f-1       18O1f0        18O1f+1       18O1f+2       18O1f+3       18O2f-3       18O2f-2       18O2f-1       18O2f0        18O2f+1    
  189   18O2f+2       18O2f+3       18O1g-4       18O1g-3       18O1g-2       18O1g-1       18O1g0        18O1g+1       18O1g+2       18O1g+3    
  190   18O1g+4       19O1s         19O2s         19O3s         19O4s         19O5s         19O6s         19O7s         19O8s         19O9s      
  191   19O10s        19O1pz        19O1py        19O1px        19O2pz        19O2py        19O2px        19O3pz        19O3py        19O3px     
  192   19O4pz        19O4py        19O4px        19O5pz        19O5py        19O5px        19O6pz        19O6py        19O6px        19O7pz     
  193   19O7py        19O7px        19O8pz        19O8py        19O8px        19O1d-2       19O1d-1       19O1d0        19O1d+1       19O1d+2    
  194   19O2d-2       19O2d-1       19O2d0        19O2d+1       19O2d+2       19O3d-2       19O3d-1       19O3d0        19O3d+1       19O3d+2    
  195   19O4d-2       19O4d-1       19O4d0        19O4d+1       19O4d+2       19O1f-3       19O1f-2       19O1f-1       19O1f0        19O1f+1    
  196   19O1f+2       19O1f+3       19O2f-3       19O2f-2       19O2f-1       19O2f0        19O2f+1       19O2f+2       19O2f+3       19O1g-4    
  197   19O1g-3       19O1g-2       19O1g-1       19O1g0        19O1g+1       19O1g+2       19O1g+3       19O1g+4       20O1s         20O2s      
  198   20O3s         20O4s         20O5s         20O6s         20O7s         20O8s         20O9s         20O10s        20O1pz        20O1py     
  199   20O1px        20O2pz        20O2py        20O2px        20O3pz        20O3py        20O3px        20O4pz        20O4py        20O4px     
  200   20O5pz        20O5py        20O5px        20O6pz        20O6py        20O6px        20O7pz        20O7py        20O7px        20O8pz     
  201   20O8py        20O8px        20O1d-2       20O1d-1       20O1d0        20O1d+1       20O1d+2       20O2d-2       20O2d-1       20O2d0     
  202   20O2d+1       20O2d+2       20O3d-2       20O3d-1       20O3d0        20O3d+1       20O3d+2       20O4d-2       20O4d-1       20O4d0     
  203   20O4d+1       20O4d+2       20O1f-3       20O1f-2       20O1f-1       20O1f0        20O1f+1       20O1f+2       20O1f+3       20O2f-3    
  204   20O2f-2       20O2f-1       20O2f0        20O2f+1       20O2f+2       20O2f+3       20O1g-4       20O1g-3       20O1g-2       20O1g-1    
  205   20O1g0        20O1g+1       20O1g+2       20O1g+3       20O1g+4    
 
 Maximum number of basis functions per shell:   56
 Total number of basis functions:   2055
 
 
 Effective core potentials:
 
   1  Au mcdhf-ecp-60        
   2  Au mcdhf-ecp-60        
 
 Initializing the SAD routines for the initial guess...
 Checking the files required for the initial guess...
 Atomic density files have been found for the atoms with the following serial numbers:
  
 Atomic density files have not been found for the atoms with the following serial numbers:
  1 2
 Generating SCFDENSITIES.Au.def2-svp.0
 CPU time [min]:     0.069                   Wall time [min]:     0.141
 
 Character table for point group C1:
 
          E  
    A     1
 
 Number of basis functions per irrep:
    A     336
 
 
 Calculation of overlap integrals...
 CPU time [min]:     0.072                   Wall time [min]:     0.142
 
 Calculation of the square root of the overlap matrix...
 Minimum eigenvalue of the overlap matrix: 0.791724E-03
 CPU time [min]:     0.105                   Wall time [min]:     0.143
 
 Calculation of kinetic energy integrals...
 CPU time [min]:     0.107                   Wall time [min]:     0.144
 Calculation of dipole moment integrals...
 CPU time [min]:     0.108                   Wall time [min]:     0.144
 Calculation of nuclear attraction integrals...
 CPU time [min]:     0.110                   Wall time [min]:     0.144
 Calculation of core potential integrals...
 CPU time [min]:     0.295                   Wall time [min]:     0.268
 
 Calculation of prescreening integrals...
 CPU time [min]:     0.602                   Wall time [min]:     0.284
 
 Calculation of two-center Coulomb integrals...
   1% done.
  12% done.
  23% done.
  34% done.
  45% done.
  57% done.
  69% done.
  80% done.
  91% done.
 100% done.
 CPU time [min]:     0.614                   Wall time [min]:     0.284
 
 Cholesky decomposition of the two-center matrix...
 Reciprocal of the condition number:  0.542953E-06
 Warning! Ill-conditioned two-center integral matrix.
 This may result in convergence problems.
 CPU time [min]:     0.749                   Wall time [min]:     0.293
 
 
 Running small-basis SCF...

 ************************ 2022-08-16 06:14:06 *************************
 Executing scf...

 @scfsetup: integrals calculated directly
            mrcc/integ direct run
 @scfsetup: calculating on full matrices
            not using symmetry adapted basis
 @scfsetup: diis switched on
 @scfsetup: number of steps to extrapolate from  10
 @scfsetup: tolerance in energy deviation    0.100000E-05
            tolerance in density deviation    0.100000E-06
 @scfsetup: maximum number of iterations:1000
 @scfsetup: restricted closed shell hf calc
 @scfsetup: starting scf from superposition of atomic densities
 @scfsetup: occupation set:
            from initial orbitals
 @scfsetup: Parameter-set for SCF acceleration: difficult
 @scfsetup: diis runs from iteration:   2
 @scfsetup: diis runs to iteration:1000
 @scfsetup: diis runs in every iteration
 @scfsetup: diiswatch is disabled                   
 @scfsetup: diis dtol criteria to switch on:      0.0000E+00
           (or the iteration number below is reached)
 @scfsetup: damping is turned off.
 @scfsetup: dynamic level shifting
            tolarance in HOMO-LUMO gap:  0.200
            tolarance in density deviation:     0.0000E+00
            iteration step criteria to turn level shifting off: 8
 Allocation of 190.0 Gbytes of memory...
 ======================================================================
 ITERATION STEP   1
 CPU time [min]:     0.022                   Wall time [min]:     0.006
 

 SCF control                  : initial
 Damping factor/level shift   : 0.000/0.200
 DIIS [start/end/frequency]   :   2 /*** /  1

 Constructing Fock-matrix...
 
 Pipek-Mezey localization...
 Step  Convergence
   1  11.100498650945
   2   6.950830114946
   3   4.729747752684
   4   2.361145151430
   5   1.048434568869
   6   0.009319454005
   7   0.000000573682
 CPU time [min]:     0.037                   Wall time [min]:     0.007
 
 Constructing local fitting domains...
 Maximum number of atoms in fitting domains:   12
 Average number of atoms in fitting domains:    9.6
 
 First step of Coulomb + first step of exchange...
 Exchange contribution is evaluated for MOs 1 to 19.
   1% done.
  12% done.
  24% done.
  35% done.
  46% done.
  58% done.
  69% done.
  81% done.
  92% done.
 100% done.
 Fitting and assembly step of exchange...
 CPU time [min]:     0.367                   Wall time [min]:     0.023
 
 Second step of Coulomb...
   1% done.
  12% done.
  24% done.
  35% done.
  46% done.
  58% done.
  69% done.
  81% done.
  92% done.
 100% done.
 CPU time [min]:     0.466                   Wall time [min]:     0.028
 
 Gradient norm:      3.2202E+00
 RMS of [F,P]:                                         0.01019271645249
 RMS of difference density:                            0.00782390126510
 Gap [au]:  0.19677791
 ALPHA OCC:  19
 BETA  OCC:  19
 
 ***HARTREE-FOCK ENERGY IN STEP   1 IS       -268.8931880601723492 [AU]
 ======================================================================
 ITERATION STEP   2
 CPU time [min]:     0.488                   Wall time [min]:     0.029
 

 SCF control                  : diis
 Damping factor/level shift   : 0.000/0.200
 DIIS [start/end/frequency]   :   2 /*** /  1

 Constructing Fock-matrix...
 
 Pipek-Mezey localization...
 Step  Convergence
   1   1.028202184360
   2   0.033792089717
   3   0.003267793670
   4   0.000243983202
   5   0.000020227405
   6   0.000002481755
   7   0.000000695160
 CPU time [min]:     0.503                   Wall time [min]:     0.030
 
 Constructing local fitting domains...
 Maximum number of atoms in fitting domains:   20
 Average number of atoms in fitting domains:   10.1
 
 First step of Coulomb + first step of exchange...
 Exchange contribution is evaluated for MOs 1 to 19.
   1% done.
  12% done.
  24% done.
  35% done.
  46% done.
  58% done.
  69% done.
  81% done.
  92% done.
 100% done.
 Fitting and assembly step of exchange...
 CPU time [min]:     1.037                   Wall time [min]:     0.057
 
 Second step of Coulomb...
   1% done.
  12% done.
  24% done.
  35% done.
  46% done.
  58% done.
  69% done.
  81% done.
  92% done.
 100% done.
 CPU time [min]:     1.135                   Wall time [min]:     0.062
 
 Gradient norm:      3.2547E-01
 DIIS is running in this iteration step.
 RMS of [F,P]:                                         0.00370343103563
 RMS of difference density:                            0.00462879406900
 Gap [au]:  0.28450043
 ALPHA OCC:  19
 BETA  OCC:  19
 
 ***HARTREE-FOCK ENERGY IN STEP   2 IS       -269.4335543465696219 [AU]
 
 Step comparison  Energy Drift [au]  DIIS error drift  Gradient drift
        1            5.4037E-01         6.4893E-03       2.8948E+00
        2            2.6943E+02         1.0000E-07       2.8948E+00
 ======================================================================
 ITERATION STEP   3
 CPU time [min]:     1.160                   Wall time [min]:     0.063
 

 SCF control                  : diis
 Damping factor/level shift   : 0.000/0.000
 DIIS [start/end/frequency]   :   2 /*** /  1

 Constructing Fock-matrix...
 
 Pipek-Mezey localization...
 Step  Convergence
   1   1.803659900123
   2   2.676077174754
   3   0.240704594800
   4   0.002750175868
   5   0.008005733391
   6   0.001179076476
   7   0.000179025520
   8   0.000024646904
   9   0.000003645525
  10   0.000000504374
 CPU time [min]:     1.175                   Wall time [min]:     0.064
 
 Constructing local fitting domains...
 Maximum number of atoms in fitting domains:   12
 Average number of atoms in fitting domains:    9.6
 
 First step of Coulomb + first step of exchange...
 Exchange contribution is evaluated for MOs 1 to 19.
   1% done.
  12% done.
  24% done.
  35% done.
  46% done.
  58% done.
  69% done.
  81% done.
  92% done.
 100% done.
 Fitting and assembly step of exchange...
 CPU time [min]:     1.698                   Wall time [min]:     0.090
 
 Second step of Coulomb...
   1% done.
  12% done.
  24% done.
  35% done.
  46% done.
  58% done.
  69% done.
  81% done.
  92% done.
 100% done.
 CPU time [min]:     1.796                   Wall time [min]:     0.095
 
 Gradient norm:      9.4374E-02
 DIIS is running in this iteration step.
 RMS of [F,P]:                                         0.00130284873411
 RMS of difference density:                            0.00120048248005
 Gap [au]:  0.27077047
 ALPHA OCC:  19
 BETA  OCC:  19
 
 ***HARTREE-FOCK ENERGY IN STEP   3 IS       -269.5485626152640179 [AU]
 
 Step comparison  Energy Drift [au]  DIIS error drift  Gradient drift
        2            1.1501E-01         2.4006E-03       2.3109E-01
 ======================================================================
 ITERATION STEP   4
 CPU time [min]:     1.820                   Wall time [min]:     0.096
 

 SCF control                  : diis
 Damping factor/level shift   : 0.000/0.000
 DIIS [start/end/frequency]   :   2 /*** /  1

 Constructing Fock-matrix...
 
 Pipek-Mezey localization...
 Step  Convergence
   1   1.935910330280
   2   2.772573227939
   3   0.608665654121
   4   0.086496735660
   5   0.009029981446
   6   0.000888362748
   7   0.000109803971
   8   0.000014929043
   9   0.000000867563
 CPU time [min]:     1.835                   Wall time [min]:     0.097
 
 Constructing local fitting domains...
 Local fitting domains are unchanged.
 
 First step of Coulomb + first step of exchange...
 Exchange contribution is evaluated for MOs 1 to 19.
   1% done.
  12% done.
  24% done.
  35% done.
  46% done.
  58% done.
  69% done.
  81% done.
  92% done.
 100% done.
 Fitting and assembly step of exchange...
 CPU time [min]:     2.359                   Wall time [min]:     0.123
 
 Second step of Coulomb...
   1% done.
  12% done.
  24% done.
  35% done.
  46% done.
  58% done.
  69% done.
  81% done.
  92% done.
 100% done.
 CPU time [min]:     2.457                   Wall time [min]:     0.128
 
 Gradient norm:      1.8191E-02
 DIIS is running in this iteration step.
 RMS of [F,P]:                                         0.00014480282722
 RMS of difference density:                            0.00049837416113
 Gap [au]:  0.27844202
 ALPHA OCC:  19
 BETA  OCC:  19
 
 ***HARTREE-FOCK ENERGY IN STEP   4 IS       -269.5673590206303061 [AU]
 
 Step comparison  Energy Drift [au]  DIIS error drift  Gradient drift
        3            1.8796E-02         1.1580E-03       7.6184E-02
 ======================================================================
 ITERATION STEP   5
 CPU time [min]:     2.482                   Wall time [min]:     0.129
 

 SCF control                  : diis
 Damping factor/level shift   : 0.000/0.000
 DIIS [start/end/frequency]   :   2 /*** /  1

 Constructing Fock-matrix...
 
 Pipek-Mezey localization...
 Step  Convergence
   1   9.137770074220
   2   4.277257790271
   3   2.516398385597
   4   1.343820778752
   5   0.051065291317
   6   0.000743511941
   7   0.000030522108
   8   0.000001998401
   9   0.000000120462
  10   0.000000008373
  11   0.000000000558
  12   0.000000000037
  13   0.000000000002
  14   0.000000000000
 CPU time [min]:     2.497                   Wall time [min]:     0.130
 
 Constructing local fitting domains...
 Local fitting domains are unchanged.
 
 First step of Coulomb + first step of exchange...
 Exchange contribution is evaluated for MOs 1 to 19.
   1% done.
  12% done.
  24% done.
  35% done.
  46% done.
  58% done.
  69% done.
  81% done.
  92% done.
 100% done.
 Fitting and assembly step of exchange...
 CPU time [min]:     3.024                   Wall time [min]:     0.157
 
 Second step of Coulomb...
   1% done.
  12% done.
  24% done.
  35% done.
  46% done.
  58% done.
  69% done.
  81% done.
  92% done.
 100% done.
 CPU time [min]:     3.123                   Wall time [min]:     0.161
 
 Gradient norm:      1.2442E-02
 DIIS is running in this iteration step.
 RMS of [F,P]:                                         0.00009898190441
 RMS of difference density:                            0.00033106668527
 Gap [au]:  0.28075518
 ALPHA OCC:  19
 BETA  OCC:  19
 
 ***HARTREE-FOCK ENERGY IN STEP   5 IS       -269.5682117448920394 [AU]
 
 Step comparison  Energy Drift [au]  DIIS error drift  Gradient drift
        4            8.5272E-04         4.5821E-05       5.7485E-03
 ======================================================================
 ITERATION STEP   6
 CPU time [min]:     3.160                   Wall time [min]:     0.163
 

 SCF control                  : diis
 Damping factor/level shift   : 0.000/0.000
 DIIS [start/end/frequency]   :   2 /*** /  1

 Constructing Fock-matrix...
 
 Pipek-Mezey localization...
 Step  Convergence
   1   6.933211558551
   2   5.007440649966
   3   4.539820535530
   4   3.137303918623
   5   1.209447365782
   6   0.432297884093
   7   0.323695276363
   8   0.000012820372
   9   0.000000288981
  10   0.000000009460
  11   0.000000000413
  12   0.000000000020
  13   0.000000000001
  14   0.000000000000
 CPU time [min]:     3.178                   Wall time [min]:     0.164
 
 Constructing local fitting domains...
 Local fitting domains are unchanged.
 
 First step of Coulomb + first step of exchange...
 Exchange contribution is evaluated for MOs 1 to 19.
   1% done.
  12% done.
  24% done.
  35% done.
  46% done.
  58% done.
  69% done.
  81% done.
  92% done.
 100% done.
 Fitting and assembly step of exchange...
 CPU time [min]:     3.708                   Wall time [min]:     0.191
 
 Second step of Coulomb...
   1% done.
  12% done.
  24% done.
  35% done.
  46% done.
  58% done.
  69% done.
  81% done.
  92% done.
 100% done.
 CPU time [min]:     3.807                   Wall time [min]:     0.196
 
 Gradient norm:      4.3597E-03
 DIIS is running in this iteration step.
 RMS of [F,P]:                                         0.00001780620078
 RMS of difference density:                            0.00009245639470
 Gap [au]:  0.28141713
 ALPHA OCC:  19
 BETA  OCC:  19
 
 ***HARTREE-FOCK ENERGY IN STEP   6 IS       -269.5685074206345462 [AU]
 
 Step comparison  Energy Drift [au]  DIIS error drift  Gradient drift
        5            2.9568E-04         8.1176E-05       8.0823E-03
 ======================================================================
 ITERATION STEP   7
 CPU time [min]:     3.843                   Wall time [min]:     0.198
 

 SCF control                  : diis
 Damping factor/level shift   : 0.000/0.000
 DIIS [start/end/frequency]   :   2 /*** /  1

 Constructing Fock-matrix...
 
 Pipek-Mezey localization...
 Step  Convergence
   1   8.275138042207
   2   3.560869351294
   3   3.689009283502
   4   1.655933315545
   5   1.057387550956
   6   0.028938991906
   7   0.000208957799
   8   0.000004990376
   9   0.000000169102
  10   0.000000006085
  11   0.000000000336
  12   0.000000000017
  13   0.000000000001
 CPU time [min]:     3.861                   Wall time [min]:     0.199
 
 Constructing local fitting domains...
 Local fitting domains are unchanged.
 
 First step of Coulomb + first step of exchange...
 Exchange contribution is evaluated for MOs 1 to 19.
   1% done.
  12% done.
  24% done.
  35% done.
  46% done.
  58% done.
  69% done.
  81% done.
  92% done.
 100% done.
 Fitting and assembly step of exchange...
 CPU time [min]:     4.393                   Wall time [min]:     0.225
 
 Second step of Coulomb...
   1% done.
  12% done.
  24% done.
  35% done.
  46% done.
  58% done.
  69% done.
  81% done.
  92% done.
 100% done.
 CPU time [min]:     4.492                   Wall time [min]:     0.230
 
 Gradient norm:      2.1406E-03
 DIIS is running in this iteration step.
 RMS of [F,P]:                                         0.00000687853489
 RMS of difference density:                            0.00003547805060
 Gap [au]:  0.28167106
 ALPHA OCC:  19
 BETA  OCC:  19
 
 ***HARTREE-FOCK ENERGY IN STEP   7 IS       -269.5685361946501075 [AU]
 
 Step comparison  Energy Drift [au]  DIIS error drift  Gradient drift
        6            2.8774E-05         1.0928E-05       2.2191E-03
 ======================================================================
 ITERATION STEP   8
 CPU time [min]:     4.517                   Wall time [min]:     0.232
 

 SCF control                  : diis
 Damping factor/level shift   : 0.000/0.000
 DIIS [start/end/frequency]   :   2 /*** /  1

 Constructing Fock-matrix...
 
 Pipek-Mezey localization...
 Step  Convergence
   1   4.724251523012
   2   4.637109187505
   3   2.544714350550
   4   2.082502265616
   5   0.917577578299
   6   0.707550441854
   7   0.003097784815
   8   0.000008084804
   9   0.000000634045
  10   0.000000019950
  11   0.000000001479
  12   0.000000000104
  13   0.000000000008
  14   0.000000000001
 CPU time [min]:     4.532                   Wall time [min]:     0.232
 
 Constructing local fitting domains...
 Local fitting domains are unchanged.
 
 First step of Coulomb + first step of exchange...
 Exchange contribution is evaluated for MOs 1 to 19.
   1% done.
  12% done.
  24% done.
  35% done.
  46% done.
  58% done.
  69% done.
  81% done.
  92% done.
 100% done.
 Fitting and assembly step of exchange...
 CPU time [min]:     5.055                   Wall time [min]:     0.259
 
 Second step of Coulomb...
   1% done.
  12% done.
  24% done.
  35% done.
  46% done.
  58% done.
  69% done.
  81% done.
  92% done.
 100% done.
 CPU time [min]:     5.153                   Wall time [min]:     0.263
 
 Gradient norm:      6.1461E-04
 DIIS is running in this iteration step.
 RMS of [F,P]:                                         0.00000279792251
 RMS of difference density:                            0.00001379207650
 Gap [au]:  0.28167983
 ALPHA OCC:  19
 BETA  OCC:  19
 
 ***HARTREE-FOCK ENERGY IN STEP   8 IS       -269.5685418654542786 [AU]
 
 Step comparison  Energy Drift [au]  DIIS error drift  Gradient drift
        7            5.6708E-06         4.0806E-06       1.5260E-03
 ======================================================================
 ITERATION STEP   9
 CPU time [min]:     5.178                   Wall time [min]:     0.265
 

 SCF control                  : diis
 Damping factor/level shift   : 0.000/0.000
 DIIS [start/end/frequency]   :   2 /*** /  1

 Constructing Fock-matrix...
 
 Pipek-Mezey localization...
 Step  Convergence
   1   6.747258624956
   2   4.555833939089
   3   1.590623202951
   4   0.348372507268
   5   0.221663702914
   6   0.000329663920
   7   0.000008306275
   8   0.000000601411
   9   0.000000037497
  10   0.000000003050
  11   0.000000000224
  12   0.000000000017
  13   0.000000000001
  14   0.000000000000
 CPU time [min]:     5.194                   Wall time [min]:     0.266
 
 Constructing local fitting domains...
 Local fitting domains are unchanged.
 
 First step of Coulomb + first step of exchange...
 Exchange contribution is evaluated for MOs 1 to 19.
   1% done.
  12% done.
  24% done.
  35% done.
  46% done.
  58% done.
  69% done.
  81% done.
  92% done.
 100% done.
 Fitting and assembly step of exchange...
 CPU time [min]:     5.716                   Wall time [min]:     0.292
 
 Second step of Coulomb...
   1% done.
  12% done.
  24% done.
  35% done.
  46% done.
  58% done.
  69% done.
  81% done.
  92% done.
 100% done.
 CPU time [min]:     5.814                   Wall time [min]:     0.297
 
 Gradient norm:      1.4358E-04
 DIIS is running in this iteration step.
 RMS of [F,P]:                                         0.00000109997169
 RMS of difference density:                            0.00000402316215
 Gap [au]:  0.28167605
 ALPHA OCC:  19
 BETA  OCC:  19
 
 ***HARTREE-FOCK ENERGY IN STEP   9 IS       -269.5685425553249956 [AU]
 
 Step comparison  Energy Drift [au]  DIIS error drift  Gradient drift
        8            6.8987E-07         1.6980E-06       4.7103E-04
 ======================================================================
 ITERATION STEP  10
 CPU time [min]:     5.850                   Wall time [min]:     0.298
 

 SCF control                  : diis
 Damping factor/level shift   : 0.000/0.000
 DIIS [start/end/frequency]   :   2 /*** /  1

 Constructing Fock-matrix...
 
 Pipek-Mezey localization...
 Step  Convergence
   1   6.609963597417
   2   3.224587227566
   3   3.001133021678
   4   1.610703716019
   5   0.137807089322
   6   0.181782242448
   7   0.000007207068
   8   0.000000136299
   9   0.000000013149
  10   0.000000000680
  11   0.000000000055
  12   0.000000000003
  13   0.000000000000
 CPU time [min]:     5.868                   Wall time [min]:     0.299
 
 Constructing local fitting domains...
 Local fitting domains are unchanged.
 
 First step of Coulomb + first step of exchange...
 Exchange contribution is evaluated for MOs 1 to 19.
   1% done.
  12% done.
  24% done.
  35% done.
  46% done.
  58% done.
  69% done.
  81% done.
  92% done.
 100% done.
 Fitting and assembly step of exchange...
 CPU time [min]:     6.398                   Wall time [min]:     0.326
 
 Second step of Coulomb...
   1% done.
  12% done.
  24% done.
  35% done.
  46% done.
  58% done.
  69% done.
  81% done.
  92% done.
 100% done.
 CPU time [min]:     6.497                   Wall time [min]:     0.331
 
 Gradient norm:      3.7602E-05
 DIIS is running in this iteration step.
 RMS of [F,P]:                                         0.00000024841738
 RMS of difference density:                            0.00000153752901
 Gap [au]:  0.28167229
 ALPHA OCC:  19
 BETA  OCC:  19
 
 ***HARTREE-FOCK ENERGY IN STEP  10 IS       -269.5685426121531236 [AU]
 
 Step comparison  Energy Drift [au]  DIIS error drift  Gradient drift
        9            5.6828E-08         8.5155E-07       1.0598E-04
 ======================================================================
 ITERATION STEP  11
 CPU time [min]:     6.535                   Wall time [min]:     0.333
 

 SCF control                  : diis
 Damping factor/level shift   : 0.000/0.000
 DIIS [start/end/frequency]   :   2 /*** /  1

 Constructing Fock-matrix...
 
 Pipek-Mezey localization...
 Step  Convergence
   1   8.442406607862
   2   5.518280236677
   3   3.129081694826
   4   2.066774994137
   5   0.194553648771
   6   0.000420649305
   7   0.000019745609
   8   0.000001296006
   9   0.000000040691
  10   0.000000004339
  11   0.000000000170
  12   0.000000000008
  13   0.000000000000
 CPU time [min]:     6.553                   Wall time [min]:     0.334
 
 Constructing local fitting domains...
 Local fitting domains are unchanged.
 
 First step of Coulomb + first step of exchange...
 Exchange contribution is evaluated for MOs 1 to 19.
   1% done.
  12% done.
  24% done.
  35% done.
  46% done.
  58% done.
  69% done.
  81% done.
  92% done.
 100% done.
 Fitting and assembly step of exchange...
 CPU time [min]:     7.082                   Wall time [min]:     0.360
 
 Second step of Coulomb...
   1% done.
  12% done.
  24% done.
  35% done.
  46% done.
  58% done.
  69% done.
  81% done.
  92% done.
 100% done.
 CPU time [min]:     7.181                   Wall time [min]:     0.365
 
 Gradient norm:      4.5159E-06
 DIIS is running in this iteration step.
 RMS of [F,P]:                                         0.00000003569022
 RMS of difference density:                            0.00000017016456
 Gap [au]:  0.28167281
 ALPHA OCC:  19
 BETA  OCC:  19
 
 ***HARTREE-FOCK ENERGY IN STEP  11 IS       -269.5685426159191707 [AU]
 
 Step comparison  Energy Drift [au]  DIIS error drift  Gradient drift
       10            3.7660E-09         2.1273E-07       3.3086E-05
 ======================================================================
 ITERATION STEP  12
 CPU time [min]:     7.206                   Wall time [min]:     0.367
 

 SCF control                  : diis
 Damping factor/level shift   : 0.000/0.000
 DIIS [start/end/frequency]   :   2 /*** /  1

 Constructing Fock-matrix...
 
 Pipek-Mezey localization...
 Step  Convergence
   1   7.337654185805
   2   2.682196278636
   3   0.569927813671
   4   0.031423958200
   5   0.299819499367
   6   0.000001837169
   7   0.000000050340
   8   0.000000003886
   9   0.000000000151
  10   0.000000000012
  11   0.000000000001
 CPU time [min]:     7.222                   Wall time [min]:     0.367
 
 Constructing local fitting domains...
 Local fitting domains are unchanged.
 
 First step of Coulomb + first step of exchange...
 Exchange contribution is evaluated for MOs 1 to 19.
   1% done.
  12% done.
  24% done.
  35% done.
  46% done.
  58% done.
  69% done.
  81% done.
  92% done.
 100% done.
 Fitting and assembly step of exchange...
 CPU time [min]:     7.744                   Wall time [min]:     0.394
 
 Second step of Coulomb...
   1% done.
  12% done.
  24% done.
  35% done.
  46% done.
  58% done.
  69% done.
  81% done.
  92% done.
 100% done.
 CPU time [min]:     7.844                   Wall time [min]:     0.399
 
 Gradient norm:      1.6750E-06
 DIIS is running in this iteration step.
 RMS of [F,P]:                                         0.00000001334504
 RMS of difference density:                            0.00000005724647
 Gap [au]:  0.28167299
 ALPHA OCC:  19
 BETA  OCC:  19
 
 ***HARTREE-FOCK ENERGY IN STEP  12 IS       -269.5685426159838585 [AU]
 
 Step comparison  Energy Drift [au]  DIIS error drift  Gradient drift
       11            6.4688E-11         2.2345E-08       2.8409E-06
 
 The SCF iteration has converged.
 An extra iteration will be performed to calculate accurate SCF energy.
 
 ======================================================================
 ITERATION STEP  13
 CPU time [min]:     7.869                   Wall time [min]:     0.400
 

 SCF control                  : diis
 Damping factor/level shift   : 0.000/0.000
 DIIS [start/end/frequency]   :   2 /*** /  1

 Constructing Fock-matrix...
 
 Pipek-Mezey localization...
 Step  Convergence
   1   7.715190133015
   2   5.207676439804
   3   3.685530536793
   4   1.635614754586
   5   0.122679251127
   6   0.084618414523
   7   0.000020145743
   8   0.000000527453
   9   0.000000019182
  10   0.000000000817
  11   0.000000000031
  12   0.000000000002
  13   0.000000000000
 CPU time [min]:     7.884                   Wall time [min]:     0.401
 
 Constructing local fitting domains...
 Maximum number of atoms in fitting domains:   20
 Average number of atoms in fitting domains:   20.0
 
 First step of Coulomb + first step of exchange...
 Exchange contribution is evaluated for MOs 1 to 19.
   1% done.
  12% done.
  24% done.
  35% done.
  46% done.
  58% done.
  69% done.
  81% done.
  92% done.
 100% done.
 CPU time [min]:     8.172                   Wall time [min]:     0.415
 
 Fitting and assembly step of exchange...
 CPU time [min]:     8.207                   Wall time [min]:     0.417
 
 Second step of Coulomb...
   1% done.
  12% done.
  24% done.
  35% done.
  46% done.
  58% done.
  69% done.
  81% done.
  92% done.
 100% done.
 CPU time [min]:     8.307                   Wall time [min]:     0.422
 
 Gradient norm:      6.2838E-07
 RMS of [F,P]:                                         0.00000000729749
 RMS of difference density:                            0.00000004281695
 Gap [au]:  0.28167297
 ALPHA OCC:  19
 BETA  OCC:  19
 
 ***HARTREE-FOCK ENERGY IN STEP  13 IS       -269.5685430189598151 [AU]
 
 Step comparison  Energy Drift [au]  DIIS error drift  Gradient drift
       12            4.0298E-07         6.0475E-09       1.0466E-06
 ======================================================================
 
 SUCCESS...
 THE SCF ITERATION HAS CONVERGED!
 
                   A   
 FINAL ALPHA OCC:  19
 FINAL BETA  OCC:  19
 
 ***FINAL HARTREE-FOCK ENERGY:       -269.5685430189598151 [AU]
 
 Orbital energies [au]:
      Irrep         Alpha          Beta
    1   A         -4.664355      -4.664355
    2   A         -4.663263      -4.663263
    3   A         -2.740687      -2.740687
    4   A         -2.724965      -2.724965
    5   A         -2.724965      -2.724965
    6   A         -2.723970      -2.723970
    7   A         -2.723510      -2.723510
    8   A         -2.723510      -2.723510
    9   A         -0.514803      -0.514803
   10   A         -0.489606      -0.489606
   11   A         -0.489606      -0.489606
   12   A         -0.451601      -0.451601
   13   A         -0.451559      -0.451559
   14   A         -0.437590      -0.437590
   15   A         -0.437525      -0.437525
   16   A         -0.416563      -0.416563
   17   A         -0.416563      -0.416563
   18   A         -0.402352      -0.402352
   19   A         -0.291178      -0.291178
 
   20   A         -0.009505      -0.009505
   21   A          0.039016       0.039016
   22   A          0.040018       0.040018
   23   A          0.040018       0.040018
   24   A          0.065405       0.065405
   25   A          0.075592       0.075592
   26   A          0.084815       0.084815
   27   A          0.084815       0.084815
   28   A          0.096582       0.096582
   29   A          0.131082       0.131082
   30   A          0.132677       0.132677
   31   A          0.132677       0.132677
   32   A          0.141136       0.141136
   33   A          0.144695       0.144695
   34   A          0.144695       0.144695
   35   A          0.171146       0.171146
   36   A          0.176280       0.176280
   37   A          0.178550       0.178550
   38   A          0.178550       0.178550
   39   A          0.189778       0.189778
   40   A          0.201766       0.201766
   41   A          0.201766       0.201766
   42   A          0.213286       0.213286
   43   A          0.214045       0.214045
   44   A          0.232494       0.232494
   45   A          0.232494       0.232494
   46   A          0.238082       0.238082
   47   A          0.262321       0.262321
   48   A          0.284399       0.284399
   49   A          0.288092       0.288092
   50   A          0.288092       0.288092
   51   A          0.304014       0.304014
   52   A          0.304354       0.304354
   53   A          0.325568       0.325568
   54   A          0.380446       0.380446
   55   A          0.399216       0.399216
   56   A          0.399216       0.399216
   57   A          0.401409       0.401409
   58   A          0.414034       0.414034
   59   A          0.417763       0.417763
   60   A          0.420268       0.420268
   61   A          0.420268       0.420268
   62   A          0.449089       0.449089
   63   A          0.449089       0.449089
   64   A          0.449963       0.449963
   65   A          0.463836       0.463836
   66   A          0.470033       0.470033
   67   A          0.471921       0.471921
   68   A          0.471921       0.471921
   69   A          0.489764       0.489764
   70   A          0.506393       0.506393
   71   A          0.506393       0.506393
   72   A          0.517129       0.517129
   73   A          0.517883       0.517883
   74   A          0.524325       0.524325
   75   A          0.530368       0.530368
   76   A          0.530368       0.530368
   77   A          0.536003       0.536003
   78   A          0.551766       0.551766
   79   A          0.551766       0.551766
   80   A          0.565757       0.565757
   81   A          0.585940       0.585940
   82   A          0.604532       0.604532
   83   A          0.604532       0.604532
   84   A          0.610606       0.610606
   85   A          0.615134       0.615134
   86   A          0.632991       0.632991
   87   A          0.634171       0.634171
   88   A          0.649375       0.649375
   89   A          0.649375       0.649375
   90   A          0.655086       0.655086
   91   A          0.667227       0.667227
   92   A          0.671797       0.671797
   93   A          0.676545       0.676545
   94   A          0.697544       0.697544
   95   A          0.697544       0.697544
   96   A          0.698523       0.698523
   97   A          0.735722       0.735722
   98   A          0.735722       0.735722
   99   A          0.747409       0.747409
  100   A          0.757142       0.757142
  101   A          0.757142       0.757142
  102   A          0.763731       0.763731
  103   A          0.788302       0.788302
  104   A          0.791918       0.791918
  105   A          0.791918       0.791918
  106   A          0.812615       0.812615
  107   A          0.820850       0.820850
  108   A          0.820850       0.820850
  109   A          0.833627       0.833627
[...]
 Number of fitting functions:  1712 (100.00%)
 Number of occupied orbitals:    11
 Number of virtual  orbitals:   478
 Number of Cholesky vectors:      8
 MP2 energy in ED [au]:          -0.063268777047
 Number of occupied LNOs:        11 (100.00%)
 Number of virtual  LNOs:        72  (15.06%)
 tol*100>norm                    21  4.456892540527820E-004
 tol*100>norm                    25  4.459775406225677E-004
 tol*100>norm                    75  4.442967373013413E-004
 tol*100>norm                    79  4.479504306700598E-004
 Number of Cholesky vectors:      6
 MP2 energy in LIS [au]:         -0.063238133719
 Correction for frozen LNO [au]: -0.000030643328     (0.048%)
 Number of NAFs:                252  (14.72%)
 CPU time [min]:    32.391                   Wall time [min]:     1.741
 

 Direct DF-CCSD(T) calculation
 
 Convergence criterion:  1.0E-05
 
 Number of occupied/virtual/auxiliary orbitals:    11    72   252
     75.91 MB is the minimal memory requirement for (T)
     45.64 MB is the minimal memory requirement for CCSD
 
 MP2 correlation energy [au]:       -0.640445564475
 
 LMP2 domain correlation energy contribution [au]:       -0.063247947332
 
 CPU time [min]:    32.426                   Wall time [min]:     1.743
 
 
 Starting CCSD iterations...
 
                     Residual norm       Correlation Energy
 Iteration  1        0.186118344221       -0.568346409011
 Iteration  2        0.058131691040       -0.587944171785
 Iteration  3        0.017997127193       -0.591349316980
 Iteration  4        0.007665165668       -0.590424355983
 Iteration  5        0.004188926885       -0.590330093443
 Iteration  6        0.002163866625       -0.590603354435
 Iteration  7        0.001039210202       -0.590610740698
 Iteration  8        0.000362617916       -0.590575331751
 Iteration  9        0.000156527915       -0.590577295064
 Iteration 10        0.000049831202       -0.590579118337
 
 CCSD iteration has converged in 10 steps.
      144.60 MB memory was utilized by CCSD
 
 T1 diagnostic:      2.179E-02            D1 diagnostic:      6.702E-02
 
 T1 contribution [au]:                         0.000000000000
 CCSD correlation energy [au]:                -0.057837686415
 
 CPU time [min]:    33.109                   Wall time [min]:     1.779
 
 Calculation of (T) correction...
 
 Laplace threshold, nquadmin:  1.00E-03   4
 Number of quadrature points:    4
 
       94.62 MB memory is utilized for (T)

 0%       25%       50%       75%       100%
 |---------|---------|---------|---------| 
 
 (T) correction [au]:                   -0.002057385769
 CCSD(T) correlation energy [au]:       -0.059895072183
 
 CPU time [min]:    33.369                   Wall time [min]:     1.794
 
 MO:     8
 Number of atoms in domain:      20
 Number of atomic orbitals:     497
 Number of atoms for local DF:   20
 Number of fitting functions:  1712 (100.00%)
 Number of occupied orbitals:    11
 Number of virtual  orbitals:   478
 Number of Cholesky vectors:      8
 MP2 energy in ED [au]:          -0.063244494600
 Number of occupied LNOs:        11 (100.00%)
 Number of virtual  LNOs:        71  (14.85%)
 tol*100>norm                    21  4.456892540527819E-004
 tol*100>norm                    25  4.459775406225676E-004
 tol*100>norm                    75  4.442967373013413E-004
 tol*100>norm                    79  4.479504306700596E-004
 Number of Cholesky vectors:      6
 MP2 energy in LIS [au]:         -0.063212120754
 Correction for frozen LNO [au]: -0.000032373846     (0.051%)
 Number of NAFs:                251  (14.66%)
 CPU time [min]:    37.443                   Wall time [min]:     2.011
 

 Direct DF-CCSD(T) calculation
 
 Convergence criterion:  1.0E-05
 
 Number of occupied/virtual/auxiliary orbitals:    11    71   251
     73.63 MB is the minimal memory requirement for (T)
     44.72 MB is the minimal memory requirement for CCSD
 
 MP2 correlation energy [au]:       -0.639510236428
 
 LMP2 domain correlation energy contribution [au]:       -0.063222382211
 
 CPU time [min]:    37.478                   Wall time [min]:     2.013
 
 
 Starting CCSD iterations...
 
                     Residual norm       Correlation Energy
 Iteration  1        0.185861600789       -0.567603971602
 Iteration  2        0.058009195140       -0.587176716620
 Iteration  3        0.017996228227       -0.590564424909
 Iteration  4        0.007680607410       -0.589642656465
 Iteration  5        0.004198667054       -0.589553610185
 Iteration  6        0.002150508282       -0.589825567369
 Iteration  7        0.001024444392       -0.589831510598
 Iteration  8        0.000356736783       -0.589796728845
 Iteration  9        0.000153599280       -0.589798854939
 Iteration 10        0.000048842858       -0.589800574806
 
 CCSD iteration has converged in 10 steps.
      138.14 MB memory was utilized by CCSD
 
 T1 diagnostic:      2.181E-02            D1 diagnostic:      6.725E-02
 
 T1 contribution [au]:                         0.000000000000
 CCSD correlation energy [au]:                -0.057817021409
 
 CPU time [min]:    38.071                   Wall time [min]:     2.045
 
 Calculation of (T) correction...
 
 Laplace threshold, nquadmin:  1.00E-03   4
 Number of quadrature points:    4
 
       91.52 MB memory is utilized for (T)

 0%       25%       50%       75%       100%
 |---------|---------|---------|---------| 
 
 (T) correction [au]:                   -0.002053196594
 CCSD(T) correlation energy [au]:       -0.059870218002
 
 CPU time [min]:    38.359                   Wall time [min]:     2.062
 
 MO:     9
 Number of atoms in domain:      20
 Number of atomic orbitals:     497
 Number of atoms for local DF:   20
 Number of fitting functions:  1712 (100.00%)
 Number of occupied orbitals:    11
 Number of virtual  orbitals:   478
 Number of Cholesky vectors:      8
 MP2 energy in ED [au]:          -0.063254738700
 Number of occupied LNOs:        11 (100.00%)
 Number of virtual  LNOs:        72  (15.06%)
 tol*100>norm                    21  4.456892540527819E-004
 tol*100>norm                    25  4.459775406225679E-004
 tol*100>norm                    75  4.442967373013415E-004
 tol*100>norm                    79  4.479504306700597E-004
 Number of Cholesky vectors:      6
 MP2 energy in LIS [au]:         -0.063224468048
 Correction for frozen LNO [au]: -0.000030270651     (0.048%)
 Number of NAFs:                253  (14.78%)
 CPU time [min]:    42.560                   Wall time [min]:     2.284
 

 Direct DF-CCSD(T) calculation
 
 Convergence criterion:  1.0E-05
 
 Number of occupied/virtual/auxiliary orbitals:    11    72   253
     76.02 MB is the minimal memory requirement for (T)
     45.72 MB is the minimal memory requirement for CCSD
 
 MP2 correlation energy [au]:       -0.641322103065
 
 LMP2 domain correlation energy contribution [au]:       -0.063234458487
 
 CPU time [min]:    42.594                   Wall time [min]:     2.285
 
 
 Starting CCSD iterations...
 
                     Residual norm       Correlation Energy
 Iteration  1        0.186408357794       -0.569021394017
 Iteration  2        0.058235999383       -0.588654779491
 Iteration  3        0.017985749271       -0.592060674929
 Iteration  4        0.007643988527       -0.591137671086
 Iteration  5        0.004169029272       -0.591043142498
 Iteration  6        0.002150570129       -0.591314815973
 Iteration  7        0.001032275047       -0.591323161249
 Iteration  8        0.000360269215       -0.591287455330
 Iteration  9        0.000155206570       -0.591289417431
 Iteration 10        0.000049321227       -0.591291216070
 
 CCSD iteration has converged in 10 steps.
      144.67 MB memory was utilized by CCSD
 
 T1 diagnostic:      2.172E-02            D1 diagnostic:      6.681E-02
 
 T1 contribution [au]:                         0.000000000000
 CCSD correlation energy [au]:                -0.057825241984
 
 CPU time [min]:    43.181                   Wall time [min]:     2.317
 
 Calculation of (T) correction...
 
 Laplace threshold, nquadmin:  1.00E-03   4
 Number of quadrature points:    4
 
       94.70 MB memory is utilized for (T)

 0%       25%       50%       75%       100%
 |---------|---------|---------|---------| 
 
 (T) correction [au]:                   -0.002055855748
 CCSD(T) correlation energy [au]:       -0.059881097732
 
 CPU time [min]:    43.461                   Wall time [min]:     2.333
 
 MO:    10
 Number of atoms in domain:      20
 Number of atomic orbitals:     497
 Number of atoms for local DF:   20
 Number of fitting functions:  1712 (100.00%)
 Number of occupied orbitals:    11
 Number of virtual  orbitals:   478
 Number of Cholesky vectors:      8
 MP2 energy in ED [au]:          -0.062894561196
 Number of occupied LNOs:        11 (100.00%)
 Number of virtual  LNOs:        63  (13.18%)
 tol*100>norm                    21  4.456892540527820E-004
 tol*100>norm                    25  4.459775406225678E-004
 tol*100>norm                    75  4.442967373013415E-004
 tol*100>norm                    79  4.479504306700597E-004
 Number of Cholesky vectors:      6
 MP2 energy in LIS [au]:         -0.062869770457
 Correction for frozen LNO [au]: -0.000024790739     (0.039%)
 Number of NAFs:                232  (13.55%)
 CPU time [min]:    47.224                   Wall time [min]:     2.534
 

 Direct DF-CCSD(T) calculation
 
 Convergence criterion:  1.0E-05
 
 Number of occupied/virtual/auxiliary orbitals:    11    63   232
     56.17 MB is the minimal memory requirement for (T)
     37.21 MB is the minimal memory requirement for CCSD
 
 MP2 correlation energy [au]:       -0.640376945121
 
 LMP2 domain correlation energy contribution [au]:       -0.062884366890
 
 CPU time [min]:    47.263                   Wall time [min]:     2.536
 
 
 Starting CCSD iterations...
 
                     Residual norm       Correlation Energy
 Iteration  1        0.185174808456       -0.568624900757
 Iteration  2        0.057300823485       -0.588152074909
 Iteration  3        0.017798943408       -0.591485548427
 Iteration  4        0.007482113538       -0.590547163260
 Iteration  5        0.004080200586       -0.590477173794
 Iteration  6        0.002100834651       -0.590751811924
 Iteration  7        0.000980829776       -0.590749344393
 Iteration  8        0.000338124116       -0.590714827344
 Iteration  9        0.000139267191       -0.590718789185
 Iteration 10        0.000044065824       -0.590719747448
 
 CCSD iteration has converged in 10 steps.
       94.23 MB memory was utilized by CCSD
 
 T1 diagnostic:      2.156E-02            D1 diagnostic:      6.577E-02
 
 T1 contribution [au]:                         0.000000000000
 CCSD correlation energy [au]:                -0.057551410361
 
 CPU time [min]:    47.786                   Wall time [min]:     2.564
 
 Calculation of (T) correction...
 
 Laplace threshold, nquadmin:  1.00E-03   4
 Number of quadrature points:    4
 
       68.65 MB memory is utilized for (T)

 0%       25%       50%       75%       100%
 |---------|---------|---------|---------| 
 
 (T) correction [au]:                   -0.001974195291
 CCSD(T) correlation energy [au]:       -0.059525605652
 
 CPU time [min]:    47.969                   Wall time [min]:     2.574
 
 MO:    11
 Number of atoms in domain:      20
 Number of atomic orbitals:     497
 Number of atoms for local DF:   20
 Number of fitting functions:  1712 (100.00%)
 Number of occupied orbitals:    11
 Number of virtual  orbitals:   478
 Number of Cholesky vectors:      8
 MP2 energy in ED [au]:          -0.078643889712
 Number of occupied LNOs:        11 (100.00%)
 Number of virtual  LNOs:        97  (20.29%)
 tol*100>norm                    21  4.456892540527821E-004
 tol*100>norm                    25  4.459775406225679E-004
 tol*100>norm                    75  4.442967373013416E-004
 tol*100>norm                    79  4.479504306700598E-004
 Number of Cholesky vectors:      6
 MP2 energy in LIS [au]:         -0.078625042212
 Correction for frozen LNO [au]: -0.000018847500     (0.024%)
 Number of NAFs:                311  (18.17%)
 CPU time [min]:    52.624                   Wall time [min]:     2.825
 

 Direct DF-CCSD(T) calculation
 
 Convergence criterion:  1.0E-05
 
 Number of occupied/virtual/auxiliary orbitals:    11    97   311
    158.23 MB is the minimal memory requirement for (T)
     78.03 MB is the minimal memory requirement for CCSD
 
 MP2 correlation energy [au]:       -0.709447237242
 
 LMP2 domain correlation energy contribution [au]:       -0.078633995420
 
 CPU time [min]:    52.666                   Wall time [min]:     2.827
 
 
 Starting CCSD iterations...
 
                     Residual norm       Correlation Energy
 Iteration  1        0.191405920289       -0.625940914537
 Iteration  2        0.059634162554       -0.646339968765
 Iteration  3        0.018040567974       -0.650424229501
 Iteration  4        0.008084627221       -0.649148432594
 Iteration  5        0.004244785888       -0.648853961079
 Iteration  6        0.002335844036       -0.649208970615
 Iteration  7        0.001149781233       -0.649290087575
 Iteration  8        0.000414659797       -0.649232714673
 Iteration  9        0.000176116262       -0.649228296488
 Iteration 10        0.000055094897       -0.649231796767
 
 CCSD iteration has converged in 10 steps.
      411.28 MB memory was utilized by CCSD
 
 T1 diagnostic:      2.136E-02            D1 diagnostic:      6.763E-02
 
 T1 contribution [au]:                         0.000000000000
 CCSD correlation energy [au]:                -0.072456909364
 
 CPU time [min]:    54.255                   Wall time [min]:     2.911
 
 Calculation of (T) correction...
 
 Laplace threshold, nquadmin:  1.00E-03   4
 Number of quadrature points:    4
 
      204.11 MB memory is utilized for (T)

 0%       25%       50%       75%       100%
 |---------|---------|---------|---------| 
 
 (T) correction [au]:                   -0.004407734388
 CCSD(T) correlation energy [au]:       -0.076864643752
 
 CPU time [min]:    55.032                   Wall time [min]:     2.956
 
 **********************************************************************
 Dimensions of the extended domains:    Minimum / Average / Maximum
 
 Number of atoms in domain:                  20      20.0        20
 Number of atomic orbitals:                 497     497.0       497
 Number of fitting functions:              1712    1712.0      1712
 Number of occupied localized MOs:           11      11.0        11
 Number of PAOs:                            478     478.0       478
 Number of occupied LNOs:                    11      11.0        11
 Number of virtual  LNOs:                    63      70.1        97
 Number of NAFs:                            231     248.0       311
 
 **********************************************************************
 Distant (and weak) pair contributions, corrections
 
 Sum of pair energies [au]:                     0.000000000000    (0.000%)
 Sum of energy corrections [au]:               -0.000297120653    (0.042%)
 Pair energies + LNO corrections [au]:         -0.000297120653
 Sum of LMP2 contributions [au]:               -0.709412691019
 
 **********************************************************************
  Time of manipulations in the EDs:      max CPU/Wall [s]  all CPU/Wall [min]
 
 PD construction & multipole pair E      13.66     0.75     0.23     0.01
 Construct MO basis of the ED             4.00     0.21     0.72     0.04
 (mu,nu|P) evaluation & trf 2 (ai|P)     33.69     1.69     5.99     0.30
 Evaluate MP2 energy of the ED            5.90     0.30     1.08     0.05
 Transformations to the LNO basis         4.30     0.22     0.76     0.04
 Build W_PQ (Jai or Jpi part)             3.91     0.48     0.71     0.05
 Evaluate MP2 energy of the LIS           0.29     0.01     0.04     0.00
 (mu,nu|P) evaluation & trf 2 J(abQ)    219.33    11.98    33.49     1.80
 Total of the above for all EDs         271.43    14.89    42.78     2.29
 
 **********************************************************************
 Maximum memory requirement [MB]:       
 
 PD construction & multipole pair E         16.2
 AO integral evaluation in the EDs         764.5
 (mu,nu|P) evaluation & trf 2 (aI|P)       983.3
 Evaluate MP2 energy in the EDs            252.0
 Transformation to the LNO basis            89.9
 (mu,nu|P) to Jab transformation           829.4
 Evaluate MP2 energy in the LIS            133.9
 Minimum requirement for LIS CCSD           78.0
 Actually allocated  for LIS CCSD          411.3
 Minimum requirement for LIS (T)           158.2
 Actually allocated  for LIS (T)           204.1
 
 ======================================================================
 ======================================================================
 
 
 
 ======================================================================
 ======================================================================
 
 Final local CC results:
 
 Minimum number of correlated electrons:        22       (100.0%)
 Maximum number of correlated electrons:        22       (100.0%)
 Average number of correlated electrons:        22.0     (100.0%)
 Minimum number of correlated orbitals:         74       ( 15.1%)
 Maximum number of correlated orbitals:        108       ( 22.1%)
 Average number of correlated orbitals:         81.1     ( 16.6%)
 
 CPU time for integral calculations [min]:                  1.690
 Wall time for integral calculations [min]:                 0.417
 
 CPU time for SCF calculation [min]:                        8.515
 Wall time for SCF calculation [min]:                       0.438
 
 CPU time for orbital localization [min]:                   0.075
 Wall time for orbital localization [min]:                  0.010
 
 CPU time for integral transformations [min]:              44.660
 Wall time for integral transformations [min]:              2.389
 
 Reference energy [au]:                                  -269.588329809803
 
 LMP2 correlation energy [au]:                             -0.709412691019
 Total LMP2 energy [au]:                                 -270.297742500822
 
 Total MP2 correction for dropped NAFs [au]:                0.000128917591
 Total MP2 correction [au]:                                -0.000168203062
 
 CPU time for CCSD calculations [min]:                      7.321
 Total CPU time for CCSD [min]:                            62.261
 Wall time for CCSD calculations [min]:                     0.391
 Total wall time for CCSD [min]:                            3.646
 
 CCSD correlation energy [au]:                             -0.649359081861
 Total CCSD energy [au]:                                 -270.237688891664
 CCSD correlation energy + 0.5 MP2 corrections [au]:       -0.649443183392
 Total LNO-CCSD energy with MP2 corrections [au]:        -270.237772993195
 
 CPU time for (T) corrections [min]:                        3.056
 Total CPU time for CCSD(T) [min]:                         65.317
 Wall time for (T) corrections [min]:                       0.176
 Total wall time for CCSD(T) [min]:                         3.822
 
 Total (T) correlation energy contribution [au]:           -0.024559577230
 Total (T) correlation energy+0.5 MP2 correction [au]:     -0.024643678761
 CCSD(T) correlation energy [au]:                          -0.673918659091
 Total CCSD(T) energy [au]:                              -270.262248468894
 CCSD(T) correlation energy + MP2 corrections [au]:        -0.674086862153
 Total LNO-CCSD(T) energy with MP2 corrections [au]:     -270.262416671957
 
 ======================================================================
 ======================================================================
 
 ************************ 2022-08-16 06:18:22 *************************
                      Normal termination of mrcc.
 **********************************************************************
