 vasp.6.4.0 14Feb23 (build Dec 05 2023 14:15:48) complex                        
  
 executed on             LinuxIFC date 2023.12.12  10:25:55
 running  512 mpi-ranks, with    1 threads/rank, on   32 nodes
 distrk:  each k-point on  512 cores,    1 groups
 distr:  one band on NCORE=  16 cores,   32 groups


--------------------------------------------------------------------------------------------------------


 INCAR:
   SYSTEM = MgO-rocksalt
   ISMEAR = 0
   SIGMA = 0.05
   EDIFF = 1E-6
   ALGO = ALL
   ISTART = 2
   IBRION = -1
   NSW = 0
   ISYM = 0
   METAGGA = M06L
   ENCUT = 520
   PREC = Accurate
   LASPH = .TRUE.
   LREAL = Auto
   ISPIN = 1
   NELM = 2000
   NELMIN = 8
   NCORE = 16
   LWAVE = .FALSE.
   LCHARG = .FALSE.

 POTCAR:    PAW_PBE Cu 22Jun2005                  
 POTCAR:    PAW_PBE Cu 22Jun2005                  
   SHA256 =  0e71e558f37a4e8407882b4609ceaae59938afaad9ced71dfe8490308a0ab630 Cu/POTCAR             
   COPYR  = (c) Copyright 22Jun2005 Georg Kresse                                                    
   COPYR  = This file is part of the software VASP. Any use, copying, and all other rights are regul
   COPYR  = If you do not have a valid VASP license, you may not use, copy or distribute this file. 
   VRHFIN =Cu: d10 p1                                                                               
   LEXCH  = PE                                                                                      
   EATOM  =  1390.9808 eV,  102.2342 Ry                                                             
                                                                                                    
   TITEL  = PAW_PBE Cu 22Jun2005                                                                    
   LULTRA =        F    use ultrasoft PP ?                                                          
   IUNSCR =        1    unscreen: 0-lin 1-nonlin 2-no                                               
   RPACOR =    2.000    partial core radius                                                         
   POMASS =   63.546; ZVAL   =   11.000    mass and valenz                                          
   RCORE  =    2.300    outmost cutoff radius                                                       
   RWIGS  =    2.200; RWIGS  =    1.164    wigner-seitz radius (au A)                               
   ENMAX  =  295.446; ENMIN  =  221.585 eV                                                          
   ICORE  =        3    local potential                                                             
   LCOR   =        T    correct aug charges                                                         
   LPAW   =        T    paw PP                                                                      
   EAUG   =  586.980                                                                                
   DEXC   =    0.000                                                                                
   RMAX   =    2.344    core radius for proj-oper                                                   
   RAUG   =    1.300    factor for augmentation sphere                                              
   RDEP   =    2.302    radius for radial grids                                                     
   RDEPT  =    1.771    core radius for aug-charge                                                  
                                                                                                    
   Atomic configuration                                                                             
    9 entries                                                                                       
     n  l   j            E        occ.                                                              
     1  0  0.50     -8850.2468   2.0000                                                             
     2  0  0.50     -1062.3498   2.0000                                                             
     2  1  1.50      -916.8226   6.0000                                                             
     3  0  0.50      -114.6929   2.0000                                                             
     3  1  1.50       -72.1325   6.0000                                                             
     3  2  2.50        -5.0394  10.0000                                                             
     4  0  0.50        -4.6097   1.0000                                                             
     4  1  0.50        -4.0817   0.0000                                                             
     4  3  2.50        -1.3606   0.0000                                                             
   Description                                                                                      
     l       E           TYP  RCUT    TYP  RCUT                                                     
     2     -5.0393973     23  2.200                                                                 
     2     10.8846608     23  2.200                                                                 
     0     -4.6097109     23  2.200                                                                 
     0      8.2520465     23  2.200                                                                 
     1     -2.7211652     23  2.200                                                                 
     1     21.7055443     23  2.200                                                                 
     3      2.7211652     23  2.300                                                                 
  local pseudopotential read in
  partial core-charges read in
  partial kinetic energy density read in
  atomic valenz-charges read in
  non local Contribution for L=           2  read in
    real space projection operators read in
  non local Contribution for L=           2  read in
    real space projection operators read in
  non local Contribution for L=           0  read in
    real space projection operators read in
  non local Contribution for L=           0  read in
    real space projection operators read in
  non local Contribution for L=           1  read in
    real space projection operators read in
  non local Contribution for L=           1  read in
    real space projection operators read in
    PAW grid and wavefunctions read in
 
   number of l-projection  operators is LMAX  =           6
   number of lm-projection operators is LMMAX =          18
 
 -----------------------------------------------------------------------------
|                                                                             |
|               ----> ADVICE to this user running VASP <----                  |
|                                                                             |
|     You have a (more or less) 'small supercell' and for smaller cells       |
|     it is recommended to use the reciprocal-space projection scheme!        |
|     The real-space optimization is not efficient for small cells and it     |
|     is also less accurate ...                                               |
|     Therefore, set LREAL=.FALSE. in the INCAR file.                         |
|                                                                             |
 -----------------------------------------------------------------------------

 Optimization of the real space projectors (new method)

 maximal supplied QI-value         = 16.25
 optimisation between [QCUT,QGAM] = [ 11.54, 23.24] = [ 37.28,151.24] Ry 
 Optimized for a Real-space Cutoff    1.53 Angstroem

   l    n(q)    QCUT    max X(q) W(low)/X(q) W(high)/X(q)  e(spline) 
   2     10    11.539     4.610    0.96E-04    0.13E-03    0.19E-06
   2     10    11.539     8.522    0.16E-03    0.21E-03    0.28E-06
   0     11    11.539    51.609    0.45E-04    0.31E-04    0.11E-06
   0     11    11.539    27.747    0.39E-04    0.29E-04    0.10E-06
   1     10    11.539    20.408    0.70E-05    0.38E-04    0.18E-06
   1     10    11.539    13.425    0.66E-05    0.34E-04    0.17E-06
  PAW_PBE Cu 22Jun2005                  :
 energy of atom  1       EATOM=-1390.9808
 kinetic energy error for atom=    0.0037 (will be added to EATOM!!)
 
 
 POSCAR: Cu
  positions in direct lattice
  No initial velocities read in

 METAGGA = M06L                                        LMAXTAU =  6    LMIXTAU =  F

 exchange correlation table for  LEXCH =        8
   RHO(1)=    0.500       N(1)  =     2000
   RHO(2)=  100.500       N(2)  =     4000
 


--------------------------------------------------------------------------------------------------------


 ion  position               nearest neighbor table
   1  0.500  0.600  0.727-   2 2.22
   2  0.500  0.600  0.627-   1 2.22
 

IMPORTANT INFORMATION: All symmetrisations will be switched off!
NOSYMM: (Re-)initialisation of all symmetry stuff for point group C_1.


----------------------------------------------------------------------------------------

                                     Primitive cell                                     

  volume of cell :    9881.6133

  direct lattice vectors                    reciprocal lattice vectors
    21.138852197  0.000000000  0.000000000     0.047306258  0.000000000  0.000000000
     0.000000000 21.138852197  0.000000000     0.000000000  0.047306258  0.000000000
     0.000000000  0.000000000 22.113885220     0.000000000  0.000000000  0.045220457

  length of vectors
    21.138852197 21.138852197 22.113885220     0.047306258  0.047306258  0.045220457

  position of ions in fractional coordinates (direct lattice)
     0.499999974  0.599999938  0.727338351
     0.499999974  0.599999938  0.626793897

  ion indices of the primitive-cell ions
   primitive index   ion index
                 1           1
                 2           2

----------------------------------------------------------------------------------------

 
 
 KPOINTS: KPOINTS created by Atomic Simulation Env

Automatic generation of k-mesh.
 Grid dimensions read from file:
 generate k-points for:    1    1    1

 Generating k-lattice:

  Cartesian coordinates                     Fractional coordinates (reciprocal lattice)
     0.047306258  0.000000000  0.000000000     1.000000000  0.000000000  0.000000000
     0.000000000  0.047306258  0.000000000     0.000000000  1.000000000  0.000000000
     0.000000000  0.000000000  0.045220457     0.000000000  0.000000000  1.000000000

  Length of vectors
     0.047306258  0.047306258  0.045220457

  Shift w.r.t. Gamma in fractional coordinates (k-lattice)
     0.000000000  0.000000000  0.000000000

 
 Subroutine IBZKPT returns following result:
 ===========================================
 
 Found      1 irreducible k-points:
 
 Following reciprocal coordinates:
            Coordinates               Weight
  0.000000  0.000000  0.000000      1.000000
 
 Following cartesian coordinates:
            Coordinates               Weight
  0.000000  0.000000  0.000000      1.000000
 


--------------------------------------------------------------------------------------------------------




 Dimension of arrays:
   k-points           NKPTS =      1   k-points in BZ     NKDIM =      1   number of bands    NBANDS=     32
   number of dos      NEDOS =    301   number of ions     NIONS =      2
   non local maximal  LDIM  =      6   non local SUM 2l+1 LMDIM =     18
   total plane-waves  NPLWV = ******
   max r-space proj   IRMAX =   6628   max aug-charges    IRDMAX=  12805
   dimension x,y,z NGX =   160 NGY =  160 NGZ =  168
   dimension x,y,z NGXF=   320 NGYF=  320 NGZF=  336
   support grid    NGXF=   320 NGYF=  320 NGZF=  336
   ions per type =               2
   NGX,Y,Z   is equivalent  to a cutoff of  12.58, 12.58, 12.63 a.u.
   NGXF,Y,Z  is equivalent  to a cutoff of  25.17, 25.17, 25.26 a.u.

 SYSTEM =  MgO-rocksalt                            
 POSCAR =  Cu                                      

 Startparameter for this run:
   NWRITE =      2    write-flag & timer
   PREC   = accura    normal or accurate (medium, high low for compatibility)
   ISTART =      2    job   : 0-new  1-cont  2-samecut
   ICHARG =      0    charge: 1-file 2-atom 10-const
   ISPIN  =      1    spin polarized calculation?
   LNONCOLLINEAR =      F non collinear calculations
   LSORBIT =      F    spin-orbit coupling
   INIWAV =      1    electr: 0-lowe 1-rand  2-diag
   LASPH  =      T    aspherical Exc in radial PAW
 Electronic Relaxation 1
   ENCUT  =  520.0 eV  38.22 Ry    6.18 a.u.  39.30 39.30 41.12*2*pi/ulx,y,z
   ENINI  =  520.0     initial cutoff
   ENAUG  =  587.0 eV  augmentation charge cutoff
   NELM   =   2000;   NELMIN=  8; NELMDL=  0     # of ELM steps 
   EDIFF  = 0.1E-05   stopping-criterion for ELM
   LREAL  =      T    real-space projection
   NLSPLINE    = F    spline interpolate recip. space projectors
   LCOMPAT=      F    compatible to vasp.4.4
   GGA_COMPAT  = T    GGA compatible to vasp.4.4-vasp.4.6
   LMAXPAW     = -100 max onsite density
   LMAXMIX     =    2 max onsite mixed and CHGCAR
   VOSKOWN=      0    Vosko Wilk Nusair interpolation
   ROPT   =   -0.00025
 Ionic relaxation
   EDIFFG = 0.1E-04   stopping-criterion for IOM
   NSW    =      0    number of steps for IOM
   NBLOCK =      1;   KBLOCK =      1    inner block; outer block 
   IBRION =     -1    ionic relax: 0-MD 1-quasi-New 2-CG
   NFREE  =      0    steps in history (QN), initial steepest desc. (CG)
   ISIF   =      2    stress and relaxation
   IWAVPR =     10    prediction:  0-non 1-charg 2-wave 3-comb
   ISYM   =      0    0-nonsym 1-usesym 2-fastsym
   LCORR  =      T    Harris-Foulkes like correction to forces

   POTIM  = 0.5000    time-step for ionic-motion
   TEIN   =    0.0    initial temperature
   TEBEG  =    0.0;   TEEND  =   0.0 temperature during run
   SMASS  =  -3.00    Nose mass-parameter (am)
   estimated Nose-frequenzy (Omega)   =  0.10E-29 period in steps = 0.13E+47 mass=  -0.102E-25a.u.
   SCALEE = 1.0000    scale energy and forces
   NPACO  =    256;   APACO  = 10.0  distance and # of slots for P.C.
   PSTRESS=    0.0 pullay stress

  Mass of Ions in am
   POMASS =  63.55
  Ionic Valenz
   ZVAL   =  11.00
  Atomic Wigner-Seitz radii
   RWIGS  =  -1.00
  virtual crystal weights 
   VCA    =   1.00
   NELECT =      22.0000    total number of electrons
   NUPDOWN=      -1.0000    fix difference up-down

 DOS related values:
   EMIN   =  10.00;   EMAX   =-10.00  energy-range for DOS
   EFERMI =   0.00;   METHOD = LEGACY      
   ISMEAR =     0;   SIGMA  =   0.05  broadening in eV -4-tet -1-fermi 0-gaus

 Electronic relaxation 2 (details)
   IALGO  =     58    algorithm
   LDIAG  =      T    sub-space diagonalisation (order eigenvalues)
   LSUBROT=      F    optimize rotation matrix (better conditioning)
   TURBO    =      0    0=normal 1=particle mesh
   IRESTART =      0    0=no restart 2=restart with 2 vectors
   NREBOOT  =      0    no. of reboots
   NMIN     =      0    reboot dimension
   EREF     =   0.00    reference energy to select bands
   IMIX   =      4    mixing-type and parameters
     AMIX     =   0.40;   BMIX     =  1.00
     AMIX_MAG =   1.60;   BMIX_MAG =  1.00
     AMIN     =   0.10
     WC   =   100.;   INIMIX=   1;  MIXPRE=   1;  MAXMIX= -45

 Intra band minimization:
   WEIMIN = 0.0000     energy-eigenvalue tresh-hold
   EBREAK =  0.78E-08  absolut break condition
   DEPER  =   0.30     relativ break condition  

   TIME   =   0.40     timestep for ELM

  volume/ion in A,a.u.               =    4940.81     33342.21
  Fermi-wavevector in a.u.,A,eV,Ry     =   0.213767  0.403960  0.621734  0.045696
  Thomas-Fermi vector in A             =   0.985879
 
 Write flags
   LWAVE        =      F    write WAVECAR
   LDOWNSAMPLE  =      F    k-point downsampling of WAVECAR
   LCHARG       =      F    write CHGCAR
   LVTOT        =      F    write LOCPOT, total local potential
   LVHAR        =      F    write LOCPOT, Hartree potential only
   LELF         =      F    write electronic localiz. function (ELF)
   LORBIT       =      0    0 simple, 1 ext, 2 COOP (PROOUT), +10 PAW based schemes


 Dipole corrections
   LMONO  =      F    monopole corrections only (constant potential shift)
   LDIPOL =      F    correct potential (dipole corrections)
   IDIPOL =      0    1-x, 2-y, 3-z, 4-all directions 
   EPSILON=  1.0000000 bulk dielectric constant

 Exchange correlation treatment:
   GGA     =    --    GGA type
   LEXCH   =     8    internal setting for exchange type
   LIBXC   =     F    Libxc                    
   VOSKOWN =     0    Vosko Wilk Nusair interpolation
   LHFCALC =     F    Hartree Fock is set to
   LHFONE  =     F    Hartree Fock one center treatment
   AEXX    =    0.0000 exact exchange contribution

 Linear response parameters
   LEPSILON=     F    determine dielectric tensor
   LRPA    =     F    only Hartree local field effects (RPA)
   LNABLA  =     F    use nabla operator in PAW spheres
   LVEL    =     F    velocity operator in full k-point grid
   CSHIFT  =0.1000    complex shift for real part using Kramers Kronig
   OMEGAMAX=  -1.0    maximum frequency
   DEG_THRESHOLD= 0.2000000E-02 threshold for treating states as degnerate
   RTIME   =   -0.100 relaxation time in fs
  (WPLASMAI=    0.000 imaginary part of plasma frequency in eV, 0.658/RTIME)
   DFIELD  = 0.0000000 0.0000000 0.0000000 field for delta impulse in time
 
  Optional k-point grid parameters
   LKPOINTS_OPT  =     F    use optional k-point grid
   KPOINTS_OPT_MODE=     1    mode for optional k-point grid
 
 Orbital magnetization related:
   ORBITALMAG=     F  switch on orbital magnetization
   LCHIMAG   =     F  perturbation theory with respect to B field
   DQ        =  0.001000  dq finite difference perturbation B field
   LLRAUG    =     F  two centre corrections for induced B field
   LBONE     =     F  B-component reconstruction in AE one-centre
   LVGVCALC  =     T  calculate vGv susceptibility
   LVGVAPPL  =     F  apply vGv susceptibility instead of pGv for G=0

 Random number generation:
   RANDOM_GENERATOR = DEFAULT
   PCG_SEED         = not used


--------------------------------------------------------------------------------------------------------


 Static calculation
 charge density and potential will be updated during run
 non-spin polarized calculation
 Conjugate gradient for all bands (Freysoldt, et al. PRB 79, 241103 (2009))
 preconditioned conjugated gradient                                        
 perform sub-space diagonalisation
    before iterative eigenvector-optimisation
 modified Broyden-mixing scheme, WC =      100.0
 initial mixing is a Kerker type mixing with AMIX =  0.4000 and BMIX =      1.0000
 Hartree-type preconditioning will be used
 using additional bands           21
 real space projection scheme for non local part
 use partial core corrections
 no Harris-corrections to forces 
 use gradient corrections 
 use of overlap-Matrix (Vanderbilt PP)
 Gauss-broadening in eV      SIGMA  =   0.05


--------------------------------------------------------------------------------------------------------


  energy-cutoff  :      520.00
  volume of cell :     9881.61
      direct lattice vectors                 reciprocal lattice vectors
    21.138852197  0.000000000  0.000000000     0.047306258  0.000000000  0.000000000
     0.000000000 21.138852197  0.000000000     0.000000000  0.047306258  0.000000000
     0.000000000  0.000000000 22.113885220     0.000000000  0.000000000  0.045220457

  length of vectors
    21.138852197 21.138852197 22.113885220     0.047306258  0.047306258  0.045220457


 
 old parameters found on file WAVECAR:
  energy-cutoff  :      520.00
  volume of cell :     9881.61
      direct lattice vectors                 reciprocal lattice vectors
    21.138852197  0.000000000  0.000000000     0.047306258  0.000000000  0.000000000
     0.000000000 21.138852197  0.000000000     0.000000000  0.047306258  0.000000000
     0.000000000  0.000000000 22.113885220     0.000000000  0.000000000  0.045220457

  length of vectors

 
 k-points in units of 2pi/SCALE and weight: KPOINTS created by Atomic Simulation Env
   0.00000000  0.00000000  0.00000000       1.000
 
 k-points in reciprocal lattice and weights: KPOINTS created by Atomic Simulation Env
   0.00000000  0.00000000  0.00000000       1.000
 
 position of ions in fractional coordinates (direct lattice) 
   0.49999997  0.59999994  0.72733835
   0.49999997  0.59999994  0.62679390
 
 position of ions in cartesian coordinates  (Angst):
  10.56942555 12.68331001 16.08427681
  10.56942555 12.68331001 13.86084829
 


--------------------------------------------------------------------------------------------------------


 k-point   1 :   0.0000 0.0000 0.0000  plane waves:  265979

 maximum and minimum number of plane-waves per node :     16635    16606

 maximum number of plane-waves:    265979
 maximum index in each direction: 
   IXMAX=   39   IYMAX=   39   IZMAX=   41
   IXMIN=  -39   IYMIN=  -39   IZMIN=  -41


 real space projection operators:
  total allocation   :       1799.16 KBytes
  max/ min on nodes  :        121.22        102.66


 parallel 3D FFT for wavefunctions:
    minimum data exchange during FFTs selected (reduces bandwidth)
 parallel 3D FFT for charge:
    minimum data exchange during FFTs selected (reduces bandwidth)


 total amount of memory used by VASP MPI-rank0    68089. kBytes
=======================================================================

   base      :      30000. kBytes
   nonlr-proj:        369. kBytes
   fftplans  :      11482. kBytes
   grid      :      25425. kBytes
   one-center:         15. kBytes
   wavefun   :        798. kBytes
 
     INWAV:  cpu time      1.3704: real time      1.4400
 Broyden mixing: mesh for mixing (old mesh)
   NGX = 79   NGY = 79   NGZ = 83
  (NGX  =320   NGY  =320   NGZ  =336)
  gives a total of 518003 points

 charge density for first step will be calculated from the start-wavefunctions


--------------------------------------------------------------------------------------------------------


 Maximum index for non-local projection operator          419
 Maximum index for augmentation-charges            0 (set IRDMAX)


--------------------------------------------------------------------------------------------------------


 initial charge from wavefunction
 First call to EWALD:  gamma=   0.083
 Maximum number of real-space cells 3x 3x 3
 Maximum number of reciprocal cells 3x 3x 3

    FEWALD:  cpu time      0.0082: real time      0.0082


--------------------------------------- Ionic step        1  -------------------------------------------




--------------------------------------- Iteration      1(   1)  ---------------------------------------


    POTLOK:  cpu time      0.7182: real time      0.7181
    SETDIJ:  cpu time      4.3814: real time      4.3807
    TRIAL :  cpu time      0.4502: real time      0.4509
    CORREC:  cpu time      5.6193: real time      5.6181
    CHARGE:  cpu time      0.1249: real time      0.1248
    --------------------------------------------
      LOOP:  cpu time     11.2959: real time     11.2950

 eigenvalue-minimisations  :     0
 total energy-change (2. order) :-0.1272409E+02  (-0.1331752E+01)
 number of electron      22.0000026 magnetization 
 augmentation part       14.4363828 magnetization 

 Free energy of the ion-electron system (eV)
  ---------------------------------------------------
  alpha Z        PSCENC =         0.29603589
  Ewald energy   TEWEN  =       324.81674927
  -Hartree energ DENC   =     -2871.02895504
  -exchange      EXHF   =         0.00000000
  -V(xc)+E(xc)   XCENC  =        42.97280087
  PAW double counting   =      2574.77257644    -2740.25651513
  entropy T*S    EENTRO =        -0.00000000
  eigenvalues    EBANDS =      -126.25088842
  atomic energy  EATOM  =      2781.95410799
  ---------------------------------------------------
  free energy    TOTEN  =       -12.72408812 eV

  energy without entropy =      -12.72408812  energy(sigma->0) =      -12.72408812


--------------------------------------------------------------------------------------------------------




--------------------------------------- Iteration      1(   2)  ---------------------------------------


    POTLOK:  cpu time      0.8767: real time      0.8761
    SETDIJ:  cpu time      4.3837: real time      4.3829
    TRIAL :  cpu time      0.3734: real time      0.3732
    CORREC:  cpu time      5.6212: real time      5.6194
    CHARGE:  cpu time      0.1244: real time      0.1244
    --------------------------------------------
      LOOP:  cpu time     11.3902: real time     11.3871

 eigenvalue-minimisations  :     0
 total energy-change (2. order) :-0.9393099E-01  (-0.5335710E+00)
 number of electron      22.0000026 magnetization 
 augmentation part       14.2638784 magnetization 

 Free energy of the ion-electron system (eV)
  ---------------------------------------------------
  alpha Z        PSCENC =         0.29603589
  Ewald energy   TEWEN  =       324.81674927
  -Hartree energ DENC   =     -2891.57077740
  -exchange      EXHF   =         0.00000000
  -V(xc)+E(xc)   XCENC  =        42.36118367
  PAW double counting   =      2600.82662175    -2771.89704316
  entropy T*S    EENTRO =        -0.00000000
  eigenvalues    EBANDS =       -99.60489712
  atomic energy  EATOM  =      2781.95410799
  ---------------------------------------------------
  free energy    TOTEN  =       -12.81801911 eV

  energy without entropy =      -12.81801911  energy(sigma->0) =      -12.81801911


--------------------------------------------------------------------------------------------------------




--------------------------------------- Iteration      1(   3)  ---------------------------------------


    POTLOK:  cpu time      0.9387: real time      0.9379
    SETDIJ:  cpu time      4.3694: real time      4.3686
    TRIAL :  cpu time      0.3710: real time      0.3708
    CORREC:  cpu time      5.6834: real time      5.6815
    CHARGE:  cpu time      0.1238: real time      0.1238
    --------------------------------------------
      LOOP:  cpu time     11.4898: real time     11.4944

 eigenvalue-minimisations  :     0
 total energy-change (2. order) :-0.5291290E+00  (-0.4618885E+00)
 number of electron      22.0000026 magnetization 
 augmentation part       14.4105245 magnetization 

 Free energy of the ion-electron system (eV)
  ---------------------------------------------------
  alpha Z        PSCENC =         0.29603589
  Ewald energy   TEWEN  =       324.81674927
  -Hartree energ DENC   =     -2865.60012736
  -exchange      EXHF   =         0.00000000
  -V(xc)+E(xc)   XCENC  =        41.15636016
  PAW double counting   =      2614.61553066    -2780.08178790
  entropy T*S    EENTRO =        -0.00000000
  eigenvalues    EBANDS =      -130.50401678
  atomic energy  EATOM  =      2781.95410799
  ---------------------------------------------------
  free energy    TOTEN  =       -13.34714807 eV

  energy without entropy =      -13.34714807  energy(sigma->0) =      -13.34714807


--------------------------------------------------------------------------------------------------------




--------------------------------------- Iteration      1(   4)  ---------------------------------------


    POTLOK:  cpu time      1.0138: real time      1.0131
    SETDIJ:  cpu time      4.3745: real time      4.3740
    TRIAL :  cpu time      0.3705: real time      0.3704
    CORREC:  cpu time      5.7187: real time      5.7181
    CHARGE:  cpu time      0.1161: real time      0.1160
    --------------------------------------------
      LOOP:  cpu time     11.5969: real time     11.6025

 eigenvalue-minimisations  :     0
 total energy-change (2. order) :-0.4477237E+00  (-0.2479750E+00)
 number of electron      22.0000026 magnetization 
 augmentation part       14.3124252 magnetization 

 Free energy of the ion-electron system (eV)
  ---------------------------------------------------
  alpha Z        PSCENC =         0.29603589
  Ewald energy   TEWEN  =       324.81674927
  -Hartree energ DENC   =     -2885.07935662
  -exchange      EXHF   =         0.00000000
  -V(xc)+E(xc)   XCENC  =        39.76932052
  PAW double counting   =      2675.02327260    -2845.44345844
  entropy T*S    EENTRO =        -0.00000000
  eigenvalues    EBANDS =      -105.13154303
  atomic energy  EATOM  =      2781.95410799
  ---------------------------------------------------
  free energy    TOTEN  =       -13.79487182 eV

  energy without entropy =      -13.79487182  energy(sigma->0) =      -13.79487182


--------------------------------------------------------------------------------------------------------




--------------------------------------- Iteration      1(   5)  ---------------------------------------


    POTLOK:  cpu time      1.0393: real time      1.0390
    SETDIJ:  cpu time      4.3746: real time      4.3742
    TRIAL :  cpu time      0.3809: real time      0.3809
    CORREC:  cpu time      5.7735: real time      5.7726
    CHARGE:  cpu time      0.1217: real time      0.1217
    --------------------------------------------
      LOOP:  cpu time     11.6942: real time     11.7002

 eigenvalue-minimisations  :     0
 total energy-change (2. order) :-0.2479172E+00  (-0.1104024E+00)
 number of electron      22.0000026 magnetization 
 augmentation part       14.2963811 magnetization 

 Free energy of the ion-electron system (eV)
  ---------------------------------------------------
  alpha Z        PSCENC =         0.29603589
  Ewald energy   TEWEN  =       324.81674927
  -Hartree energ DENC   =     -2873.33459208
  -exchange      EXHF   =         0.00000000
  -V(xc)+E(xc)   XCENC  =        39.24270325
  PAW double counting   =      2712.06978083    -2879.48831306
  entropy T*S    EENTRO =        -0.00000000
  eigenvalues    EBANDS =      -119.59926108
  atomic energy  EATOM  =      2781.95410799
  ---------------------------------------------------
  free energy    TOTEN  =       -14.04278899 eV

  energy without entropy =      -14.04278899  energy(sigma->0) =      -14.04278899


--------------------------------------------------------------------------------------------------------




--------------------------------------- Iteration      1(   6)  ---------------------------------------


    POTLOK:  cpu time      1.0567: real time      1.0564
    SETDIJ:  cpu time      4.4129: real time      4.4123
    TRIAL :  cpu time      0.3716: real time      0.3715
    CORREC:  cpu time      5.7404: real time      5.7397
    CHARGE:  cpu time      0.1169: real time      0.1169
    --------------------------------------------
      LOOP:  cpu time     11.7035: real time     11.7133

 eigenvalue-minimisations  :     0
 total energy-change (2. order) :-0.1145266E-01  (-0.4220069E-01)
 number of electron      22.0000026 magnetization 
 augmentation part       14.3249463 magnetization 

 Free energy of the ion-electron system (eV)
  ---------------------------------------------------
  alpha Z        PSCENC =         0.29603589
  Ewald energy   TEWEN  =       324.81674927
  -Hartree energ DENC   =     -2872.22538932
  -exchange      EXHF   =         0.00000000
  -V(xc)+E(xc)   XCENC  =        39.01080125
  PAW double counting   =      2737.34420485    -2904.37161093
  entropy T*S    EENTRO =        -0.00000000
  eigenvalues    EBANDS =      -120.87914064
  atomic energy  EATOM  =      2781.95410799
  ---------------------------------------------------
  free energy    TOTEN  =       -14.05424165 eV

  energy without entropy =      -14.05424165  energy(sigma->0) =      -14.05424165


--------------------------------------------------------------------------------------------------------




--------------------------------------- Iteration      1(   7)  ---------------------------------------


    POTLOK:  cpu time      1.0724: real time      1.0721
    SETDIJ:  cpu time      4.3730: real time      4.3726
    TRIAL :  cpu time      0.3733: real time      0.3732
    CORREC:  cpu time      5.7391: real time      5.7383
    CHARGE:  cpu time      0.1211: real time      0.1211
    --------------------------------------------
      LOOP:  cpu time     11.6855: real time     11.6914

 eigenvalue-minimisations  :     0
 total energy-change (2. order) :-0.7937448E-02  (-0.2690669E-01)
 number of electron      22.0000026 magnetization 
 augmentation part       14.3509924 magnetization 

 Free energy of the ion-electron system (eV)
  ---------------------------------------------------
  alpha Z        PSCENC =         0.29603589
  Ewald energy   TEWEN  =       324.81674927
  -Hartree energ DENC   =     -2876.79567321
  -exchange      EXHF   =         0.00000000
  -V(xc)+E(xc)   XCENC  =        38.80942017
  PAW double counting   =      2756.39114549    -2924.42499354
  entropy T*S    EENTRO =        -0.00000000
  eigenvalues    EBANDS =      -115.10897115
  atomic energy  EATOM  =      2781.95410799
  ---------------------------------------------------
  free energy    TOTEN  =       -14.06217910 eV

  energy without entropy =      -14.06217910  energy(sigma->0) =      -14.06217910


--------------------------------------------------------------------------------------------------------




--------------------------------------- Iteration      1(   8)  ---------------------------------------


    POTLOK:  cpu time      1.0700: real time      1.0697
    SETDIJ:  cpu time      4.3613: real time      4.3610
    TRIAL :  cpu time      0.3727: real time      0.3727
    CORREC:  cpu time      5.7409: real time      5.7402
    CHARGE:  cpu time      0.1165: real time      0.1164
    --------------------------------------------
      LOOP:  cpu time     11.6724: real time     11.6713

 eigenvalue-minimisations  :     0
 total energy-change (2. order) :-0.1718781E-01  (-0.3351931E-01)
 number of electron      22.0000026 magnetization 
 augmentation part       14.3745206 magnetization 

 Free energy of the ion-electron system (eV)
  ---------------------------------------------------
  alpha Z        PSCENC =         0.29603589
  Ewald energy   TEWEN  =       324.81674927
  -Hartree energ DENC   =     -2880.74583035
  -exchange      EXHF   =         0.00000000
  -V(xc)+E(xc)   XCENC  =        38.67459478
  PAW double counting   =      2770.01916131    -2938.96054757
  entropy T*S    EENTRO =        -0.00000000
  eigenvalues    EBANDS =      -110.13363823
  atomic energy  EATOM  =      2781.95410799
  ---------------------------------------------------
  free energy    TOTEN  =       -14.07936691 eV

  energy without entropy =      -14.07936691  energy(sigma->0) =      -14.07936691


--------------------------------------------------------------------------------------------------------




--------------------------------------- Iteration      1(   9)  ---------------------------------------


    POTLOK:  cpu time      1.0659: real time      1.0657
    SETDIJ:  cpu time      4.3732: real time      4.3728
    TRIAL :  cpu time      0.3724: real time      0.3723
    CORREC:  cpu time      5.7096: real time      5.7089
    CHARGE:  cpu time      0.1240: real time      0.1241
    --------------------------------------------
      LOOP:  cpu time     11.6487: real time     11.6557

 eigenvalue-minimisations  :     0
 total energy-change (2. order) : 0.2556910E-01  (-0.6860615E-01)
 number of electron      22.0000026 magnetization 
 augmentation part       14.3113759 magnetization 

 Free energy of the ion-electron system (eV)
  ---------------------------------------------------
  alpha Z        PSCENC =         0.29603589
  Ewald energy   TEWEN  =       324.81674927
  -Hartree energ DENC   =     -2884.38090296
  -exchange      EXHF   =         0.00000000
  -V(xc)+E(xc)   XCENC  =        38.53497092
  PAW double counting   =      2786.32999970    -2956.11881895
  entropy T*S    EENTRO =        -0.00000000
  eigenvalues    EBANDS =      -105.48593966
  atomic energy  EATOM  =      2781.95410799
  ---------------------------------------------------
  free energy    TOTEN  =       -14.05379780 eV

  energy without entropy =      -14.05379780  energy(sigma->0) =      -14.05379780


--------------------------------------------------------------------------------------------------------




--------------------------------------- Iteration      1(  10)  ---------------------------------------


    POTLOK:  cpu time      1.0914: real time      1.0911
    SETDIJ:  cpu time      4.3680: real time      4.3676
    TRIAL :  cpu time      0.3727: real time      0.3726
    CORREC:  cpu time      5.6812: real time      5.6798
    CHARGE:  cpu time      0.1229: real time      0.1229
    --------------------------------------------
      LOOP:  cpu time     11.6410: real time     11.6460

 eigenvalue-minimisations  :     0
 total energy-change (2. order) :-0.7350485E-01  (-0.4826843E-01)
 number of electron      22.0000026 magnetization 
 augmentation part       14.2505378 magnetization 

 Free energy of the ion-electron system (eV)
  ---------------------------------------------------
  alpha Z        PSCENC =         0.29603589
  Ewald energy   TEWEN  =       324.81674927
  -Hartree energ DENC   =     -2875.59823789
  -exchange      EXHF   =         0.00000000
  -V(xc)+E(xc)   XCENC  =        38.75723173
  PAW double counting   =      2781.67059156    -2949.42036169
  entropy T*S    EENTRO =        -0.00000000
  eigenvalues    EBANDS =      -116.60341952
  atomic energy  EATOM  =      2781.95410799
  ---------------------------------------------------
  free energy    TOTEN  =       -14.12730265 eV

  energy without entropy =      -14.12730265  energy(sigma->0) =      -14.12730265


--------------------------------------------------------------------------------------------------------




--------------------------------------- Iteration      1(  11)  ---------------------------------------


    POTLOK:  cpu time      1.0493: real time      1.0654
    SETDIJ:  cpu time      4.4290: real time      4.4352
    TRIAL :  cpu time      0.3723: real time      0.3723
    CORREC:  cpu time      5.6931: real time      5.6923
    CHARGE:  cpu time      0.1222: real time      0.1222
    --------------------------------------------
      LOOP:  cpu time     11.6698: real time     11.6983

 eigenvalue-minimisations  :     0
 total energy-change (2. order) : 0.8566440E-01  (-0.6205788E-01)
 number of electron      22.0000026 magnetization 
 augmentation part       14.2804285 magnetization 

 Free energy of the ion-electron system (eV)
  ---------------------------------------------------
  alpha Z        PSCENC =         0.29603589
  Ewald energy   TEWEN  =       324.81674927
  -Hartree energ DENC   =     -2866.97887780
  -exchange      EXHF   =         0.00000000
  -V(xc)+E(xc)   XCENC  =        38.95733537
  PAW double counting   =      2777.33563176    -2943.15524346
  entropy T*S    EENTRO =        -0.00000000
  eigenvalues    EBANDS =      -127.26737726
  atomic energy  EATOM  =      2781.95410799
  ---------------------------------------------------
  free energy    TOTEN  =       -14.04163825 eV

  energy without entropy =      -14.04163825  energy(sigma->0) =      -14.04163825


--------------------------------------------------------------------------------------------------------




--------------------------------------- Iteration      1(  12)  ---------------------------------------


    POTLOK:  cpu time      1.0623: real time      1.0620
    SETDIJ:  cpu time      4.3731: real time      4.3727
    TRIAL :  cpu time      0.3708: real time      0.3707
    CORREC:  cpu time      5.6865: real time      5.6853
    CHARGE:  cpu time      0.1204: real time      0.1204
    --------------------------------------------
      LOOP:  cpu time     11.6165: real time     11.6230

 eigenvalue-minimisations  :     0
 total energy-change (2. order) :-0.6088172E-01  (-0.3003228E-01)
 number of electron      22.0000026 magnetization 
 augmentation part       14.3262161 magnetization 

 Free energy of the ion-electron system (eV)
  ---------------------------------------------------
  alpha Z        PSCENC =         0.29603589
  Ewald energy   TEWEN  =       324.81674927
  -Hartree energ DENC   =     -2871.30143212
  -exchange      EXHF   =         0.00000000
  -V(xc)+E(xc)   XCENC  =        38.98100746
  PAW double counting   =      2784.60907104    -2951.41261906
  entropy T*S    EENTRO =        -0.00000000
  eigenvalues    EBANDS =      -122.04544044
  atomic energy  EATOM  =      2781.95410799
  ---------------------------------------------------
  free energy    TOTEN  =       -14.10251997 eV

  energy without entropy =      -14.10251997  energy(sigma->0) =      -14.10251997


--------------------------------------------------------------------------------------------------------




--------------------------------------- Iteration      1(  13)  ---------------------------------------


    POTLOK:  cpu time      1.0349: real time      1.0347
    SETDIJ:  cpu time      4.3722: real time      4.3718
    TRIAL :  cpu time      0.3713: real time      0.3712
    CORREC:  cpu time      5.7004: real time      5.6997
    CHARGE:  cpu time      0.1233: real time      0.1231
    --------------------------------------------
      LOOP:  cpu time     11.6065: real time     11.6121

 eigenvalue-minimisations  :     0
 total energy-change (2. order) :-0.2181075E-01  (-0.1973789E-01)
 number of electron      22.0000026 magnetization 
 augmentation part       14.3584170 magnetization 

 Free energy of the ion-electron system (eV)
  ---------------------------------------------------
  alpha Z        PSCENC =         0.29603589
  Ewald energy   TEWEN  =       324.81674927
  -Hartree energ DENC   =     -2877.75401598
  -exchange      EXHF   =         0.00000000
  -V(xc)+E(xc)   XCENC  =        38.90403794
  PAW double counting   =      2791.31571825    -2959.59473183
  entropy T*S    EENTRO =        -0.00000000
  eigenvalues    EBANDS =      -114.06223225
  atomic energy  EATOM  =      2781.95410799
  ---------------------------------------------------
  free energy    TOTEN  =       -14.12433072 eV

  energy without entropy =      -14.12433072  energy(sigma->0) =      -14.12433072


--------------------------------------------------------------------------------------------------------




--------------------------------------- Iteration      1(  14)  ---------------------------------------


    POTLOK:  cpu time      1.0497: real time      1.0494
    SETDIJ:  cpu time      4.3719: real time      4.3715
    TRIAL :  cpu time      0.3703: real time      0.3716
    CORREC:  cpu time      5.7062: real time      5.7055
    CHARGE:  cpu time      0.1240: real time      0.1240
    --------------------------------------------
      LOOP:  cpu time     11.6259: real time     11.6331

 eigenvalue-minimisations  :     0
 total energy-change (2. order) :-0.1171369E-01  (-0.2263634E-01)
 number of electron      22.0000026 magnetization 
 augmentation part       14.3889653 magnetization 

 Free energy of the ion-electron system (eV)
  ---------------------------------------------------
  alpha Z        PSCENC =         0.29603589
  Ewald energy   TEWEN  =       324.81674927
  -Hartree energ DENC   =     -2882.30696576
  -exchange      EXHF   =         0.00000000
  -V(xc)+E(xc)   XCENC  =        38.85968338
  PAW double counting   =      2796.92634376    -2966.25160175
  entropy T*S    EENTRO =        -0.00000000
  eigenvalues    EBANDS =      -108.43039720
  atomic energy  EATOM  =      2781.95410799
  ---------------------------------------------------
  free energy    TOTEN  =       -14.13604442 eV

  energy without entropy =      -14.13604442  energy(sigma->0) =      -14.13604442


--------------------------------------------------------------------------------------------------------




--------------------------------------- Iteration      1(  15)  ---------------------------------------


    POTLOK:  cpu time      1.0480: real time      1.0474
    SETDIJ:  cpu time      4.3756: real time      4.3752
    TRIAL :  cpu time      0.3708: real time      0.3708
    CORREC:  cpu time      5.7183: real time      5.7175
    CHARGE:  cpu time      0.1205: real time      0.1205
    --------------------------------------------
      LOOP:  cpu time     11.6364: real time     11.6430

 eigenvalue-minimisations  :     0
 total energy-change (2. order) : 0.1762439E-01  (-0.1172557E-01)
 number of electron      22.0000026 magnetization 
 augmentation part       14.4002004 magnetization 

 Free energy of the ion-electron system (eV)
  ---------------------------------------------------
  alpha Z        PSCENC =         0.29603589
  Ewald energy   TEWEN  =       324.81674927
  -Hartree energ DENC   =     -2886.66225969
  -exchange      EXHF   =         0.00000000
  -V(xc)+E(xc)   XCENC  =        38.83081275
  PAW double counting   =      2803.57501229    -2973.90269145
  entropy T*S    EENTRO =        -0.00000000
  eigenvalues    EBANDS =      -103.02618707
  atomic energy  EATOM  =      2781.95410799
  ---------------------------------------------------
  free energy    TOTEN  =       -14.11842002 eV

  energy without entropy =      -14.11842002  energy(sigma->0) =      -14.11842002


--------------------------------------------------------------------------------------------------------




--------------------------------------- Iteration      1(  16)  ---------------------------------------


    POTLOK:  cpu time      1.0451: real time      1.0446
    SETDIJ:  cpu time      4.4696: real time      4.4687
    TRIAL :  cpu time      0.3774: real time      0.3773
    CORREC:  cpu time      5.7099: real time      5.7174
    CHARGE:  cpu time      0.1241: real time      0.1241
    --------------------------------------------
      LOOP:  cpu time     11.7411: real time     11.7472

 eigenvalue-minimisations  :     0
 total energy-change (2. order) : 0.9033280E-02  (-0.2840752E-01)
 number of electron      22.0000026 magnetization 
 augmentation part       14.3947721 magnetization 

 Free energy of the ion-electron system (eV)
  ---------------------------------------------------
  alpha Z        PSCENC =         0.29603589
  Ewald energy   TEWEN  =       324.81674927
  -Hartree energ DENC   =     -2888.31612389
  -exchange      EXHF   =         0.00000000
  -V(xc)+E(xc)   XCENC  =        38.84640197
  PAW double counting   =      2808.82500483    -2979.53277432
  entropy T*S    EENTRO =        -0.00000000
  eigenvalues    EBANDS =      -100.99878848
  atomic energy  EATOM  =      2781.95410799
  ---------------------------------------------------
  free energy    TOTEN  =       -14.10938674 eV

  energy without entropy =      -14.10938674  energy(sigma->0) =      -14.10938674


--------------------------------------------------------------------------------------------------------




--------------------------------------- Iteration      1(  17)  ---------------------------------------


    POTLOK:  cpu time      1.0312: real time      1.0309
    SETDIJ:  cpu time      4.3701: real time      4.3697
    TRIAL :  cpu time      0.3704: real time      0.3704
    CORREC:  cpu time      5.7092: real time      5.7085
    CHARGE:  cpu time      0.1239: real time      0.1239
    --------------------------------------------
      LOOP:  cpu time     11.6087: real time     11.6147

 eigenvalue-minimisations  :     0
 total energy-change (2. order) : 0.1433037E-01  (-0.2526949E-01)
 number of electron      22.0000026 magnetization 
 augmentation part       14.3666121 magnetization 

 Free energy of the ion-electron system (eV)
  ---------------------------------------------------
  alpha Z        PSCENC =         0.29603589
  Ewald energy   TEWEN  =       324.81674927
  -Hartree energ DENC   =     -2887.68119065
  -exchange      EXHF   =         0.00000000
  -V(xc)+E(xc)   XCENC  =        38.91839528
  PAW double counting   =      2815.82552213    -2986.38609143
  entropy T*S    EENTRO =        -0.00000000
  eigenvalues    EBANDS =      -101.83858485
  atomic energy  EATOM  =      2781.95410799
  ---------------------------------------------------
  free energy    TOTEN  =       -14.09505637 eV

  energy without entropy =      -14.09505637  energy(sigma->0) =      -14.09505637


--------------------------------------------------------------------------------------------------------




--------------------------------------- Iteration      1(  18)  ---------------------------------------


    POTLOK:  cpu time      1.0309: real time      1.0306
    SETDIJ:  cpu time      4.3725: real time      4.3720
    TRIAL :  cpu time      0.3718: real time      0.3717
    CORREC:  cpu time      5.7272: real time      5.7267
    CHARGE:  cpu time      0.1168: real time      0.1168
    --------------------------------------------
      LOOP:  cpu time     11.6226: real time     11.6295

 eigenvalue-minimisations  :     0
 total energy-change (2. order) :-0.5680847E-02  (-0.1980438E-01)
 number of electron      22.0000026 magnetization 
 augmentation part       14.3387354 magnetization 

 Free energy of the ion-electron system (eV)
  ---------------------------------------------------
  alpha Z        PSCENC =         0.29603589
  Ewald energy   TEWEN  =       324.81674927
  -Hartree energ DENC   =     -2883.85491083
  -exchange      EXHF   =         0.00000000
  -V(xc)+E(xc)   XCENC  =        39.01968309
  PAW double counting   =      2820.01058391    -2989.68972668
  entropy T*S    EENTRO =        -0.00000000
  eigenvalues    EBANDS =      -106.65325987
  atomic energy  EATOM  =      2781.95410799
  ---------------------------------------------------
  free energy    TOTEN  =       -14.10073722 eV

  energy without entropy =      -14.10073722  energy(sigma->0) =      -14.10073722


--------------------------------------------------------------------------------------------------------




--------------------------------------- Iteration      1(  19)  ---------------------------------------


    POTLOK:  cpu time      1.0450: real time      1.0446
    SETDIJ:  cpu time      4.3664: real time      4.3660
    TRIAL :  cpu time      0.3735: real time      0.3734
    CORREC:  cpu time      5.6949: real time      5.6941
    CHARGE:  cpu time      0.1215: real time      0.1215
    --------------------------------------------
      LOOP:  cpu time     11.6121: real time     11.6108

 eigenvalue-minimisations  :     0
 total energy-change (2. order) :-0.6979050E-02  (-0.2651485E-01)
 number of electron      22.0000026 magnetization 
 augmentation part       14.3364683 magnetization 

 Free energy of the ion-electron system (eV)
  ---------------------------------------------------
  alpha Z        PSCENC =         0.29603589
  Ewald energy   TEWEN  =       324.81674927
  -Hartree energ DENC   =     -2880.03576788
  -exchange      EXHF   =         0.00000000
  -V(xc)+E(xc)   XCENC  =        39.09981046
  PAW double counting   =      2822.30577602    -2991.10888637
  entropy T*S    EENTRO =        -0.00000000
  eigenvalues    EBANDS =      -111.43554164
  atomic energy  EATOM  =      2781.95410799
  ---------------------------------------------------
  free energy    TOTEN  =       -14.10771627 eV

  energy without entropy =      -14.10771627  energy(sigma->0) =      -14.10771627


--------------------------------------------------------------------------------------------------------




--------------------------------------- Iteration      1(  20)  ---------------------------------------


    POTLOK:  cpu time      1.0785: real time      1.0781
    SETDIJ:  cpu time      4.3726: real time      4.3722
    TRIAL :  cpu time      0.3712: real time      0.3712
    CORREC:  cpu time      5.7309: real time      5.7300
    CHARGE:  cpu time      0.1227: real time      0.1227
    --------------------------------------------
      LOOP:  cpu time     11.6796: real time     11.6856

 eigenvalue-minimisations  :     0
 total energy-change (2. order) :-0.2160457E-01  (-0.4362339E-01)
 number of electron      22.0000026 magnetization 
 augmentation part       14.3327107 magnetization 

 Free energy of the ion-electron system (eV)
  ---------------------------------------------------
  alpha Z        PSCENC =         0.29603589
  Ewald energy   TEWEN  =       324.81674927
  -Hartree energ DENC   =     -2879.81877100
  -exchange      EXHF   =         0.00000000
  -V(xc)+E(xc)   XCENC  =        39.10711445
  PAW double counting   =      2823.43097351    -2992.15657760
  entropy T*S    EENTRO =        -0.00000000
  eigenvalues    EBANDS =      -111.75895334
  atomic energy  EATOM  =      2781.95410799
  ---------------------------------------------------
  free energy    TOTEN  =       -14.12932084 eV

  energy without entropy =      -14.12932084  energy(sigma->0) =      -14.12932084


--------------------------------------------------------------------------------------------------------




--------------------------------------- Iteration      1(  21)  ---------------------------------------


    POTLOK:  cpu time      1.0666: real time      1.0663
    SETDIJ:  cpu time      4.3982: real time      4.3975
    TRIAL :  cpu time      0.3755: real time      0.3754
    CORREC:  cpu time      5.7826: real time      5.7815
    CHARGE:  cpu time      0.1233: real time      0.1232
    --------------------------------------------
      LOOP:  cpu time     11.7541: real time     11.7600

 eigenvalue-minimisations  :     0
 total energy-change (2. order) :-0.2700344E-01  (-0.4268488E-01)
 number of electron      22.0000026 magnetization 
 augmentation part       14.3294824 magnetization 

 Free energy of the ion-electron system (eV)
  ---------------------------------------------------
  alpha Z        PSCENC =         0.29603589
  Ewald energy   TEWEN  =       324.81674927
  -Hartree energ DENC   =     -2879.40860945
  -exchange      EXHF   =         0.00000000
  -V(xc)+E(xc)   XCENC  =        39.11504895
  PAW double counting   =      2825.65186403    -2994.24336270
  entropy T*S    EENTRO =        -0.00000000
  eigenvalues    EBANDS =      -112.33815826
  atomic energy  EATOM  =      2781.95410799
  ---------------------------------------------------
  free energy    TOTEN  =       -14.15632428 eV

  energy without entropy =      -14.15632428  energy(sigma->0) =      -14.15632428


--------------------------------------------------------------------------------------------------------




--------------------------------------- Iteration      1(  22)  ---------------------------------------


    POTLOK:  cpu time      1.0728: real time      1.0722
    SETDIJ:  cpu time      4.3732: real time      4.3729
    TRIAL :  cpu time      0.3710: real time      0.3710
    CORREC:  cpu time      5.7320: real time      5.7307
    CHARGE:  cpu time      0.1165: real time      0.1165
    --------------------------------------------
      LOOP:  cpu time     11.6703: real time     11.6755

 eigenvalue-minimisations  :     0
 total energy-change (2. order) :-0.1357725E-01  (-0.2593389E-01)
 number of electron      22.0000026 magnetization 
 augmentation part       14.3278374 magnetization 

 Free energy of the ion-electron system (eV)
  ---------------------------------------------------
  alpha Z        PSCENC =         0.29603589
  Ewald energy   TEWEN  =       324.81674927
  -Hartree energ DENC   =     -2878.99763146
  -exchange      EXHF   =         0.00000000
  -V(xc)+E(xc)   XCENC  =        39.12041945
  PAW double counting   =      2828.44382240    -2996.90684856
  entropy T*S    EENTRO =        -0.00000000
  eigenvalues    EBANDS =      -112.89655652
  atomic energy  EATOM  =      2781.95410799
  ---------------------------------------------------
  free energy    TOTEN  =       -14.16990153 eV

  energy without entropy =      -14.16990153  energy(sigma->0) =      -14.16990153


--------------------------------------------------------------------------------------------------------




--------------------------------------- Iteration      1(  23)  ---------------------------------------


    POTLOK:  cpu time      1.0596: real time      1.0590
    SETDIJ:  cpu time      4.3750: real time      4.3746
    TRIAL :  cpu time      0.3727: real time      0.3727
    CORREC:  cpu time      5.7255: real time      5.7248
    CHARGE:  cpu time      0.1204: real time      0.1204
    --------------------------------------------
      LOOP:  cpu time     11.6570: real time     11.6628

 eigenvalue-minimisations  :     0
 total energy-change (2. order) : 0.1589750E-01  (-0.1202765E-01)
 number of electron      22.0000026 magnetization 
 augmentation part       14.3287489 magnetization 

 Free energy of the ion-electron system (eV)
  ---------------------------------------------------
  alpha Z        PSCENC =         0.29603589
  Ewald energy   TEWEN  =       324.81674927
  -Hartree energ DENC   =     -2878.73556865
  -exchange      EXHF   =         0.00000000
  -V(xc)+E(xc)   XCENC  =        39.11887352
  PAW double counting   =      2831.21924564    -2999.59850673
  entropy T*S    EENTRO =        -0.00000000
  eigenvalues    EBANDS =      -113.22494095
  atomic energy  EATOM  =      2781.95410799
  ---------------------------------------------------
  free energy    TOTEN  =       -14.15400403 eV

  energy without entropy =      -14.15400403  energy(sigma->0) =      -14.15400403


--------------------------------------------------------------------------------------------------------




--------------------------------------- Iteration      1(  24)  ---------------------------------------


    POTLOK:  cpu time      1.0571: real time      1.0569
    SETDIJ:  cpu time      4.3678: real time      4.3675
    TRIAL :  cpu time      0.3740: real time      0.3739
    CORREC:  cpu time      5.7602: real time      5.7596
    CHARGE:  cpu time      0.1214: real time      0.1213
    --------------------------------------------
      LOOP:  cpu time     11.6842: real time     11.6909

 eigenvalue-minimisations  :     0
 total energy-change (2. order) :-0.9854948E-02  (-0.1698159E-01)
 number of electron      22.0000026 magnetization 
 augmentation part       14.3302679 magnetization 

 Free energy of the ion-electron system (eV)
  ---------------------------------------------------
  alpha Z        PSCENC =         0.29603589
  Ewald energy   TEWEN  =       324.81674927
  -Hartree energ DENC   =     -2878.82626773
  -exchange      EXHF   =         0.00000000
  -V(xc)+E(xc)   XCENC  =        39.11649135
  PAW double counting   =      2833.03267658    -3001.42162836
  entropy T*S    EENTRO =        -0.00000000
  eigenvalues    EBANDS =      -113.13202397
  atomic energy  EATOM  =      2781.95410799
  ---------------------------------------------------
  free energy    TOTEN  =       -14.16385897 eV

  energy without entropy =      -14.16385897  energy(sigma->0) =      -14.16385897


--------------------------------------------------------------------------------------------------------




--------------------------------------- Iteration      1(  25)  ---------------------------------------


    POTLOK:  cpu time      1.0808: real time      1.0806
    SETDIJ:  cpu time      4.3706: real time      4.3700
    TRIAL :  cpu time      0.3695: real time      0.3694
    CORREC:  cpu time      5.7348: real time      5.7341
    CHARGE:  cpu time      0.1219: real time      0.1219
    --------------------------------------------
      LOOP:  cpu time     11.6815: real time     11.6878

 eigenvalue-minimisations  :     0
 total energy-change (2. order) : 0.4235441E-01  (-0.1573710E-01)
 number of electron      22.0000026 magnetization 
 augmentation part       14.3341957 magnetization 

 Free energy of the ion-electron system (eV)
  ---------------------------------------------------
  alpha Z        PSCENC =         0.29603589
  Ewald energy   TEWEN  =       324.81674927
  -Hartree energ DENC   =     -2878.98030784
  -exchange      EXHF   =         0.00000000
  -V(xc)+E(xc)   XCENC  =        39.10456149
  PAW double counting   =      2835.41651284    -3003.83241808
  entropy T*S    EENTRO =        -0.00000000
  eigenvalues    EBANDS =      -112.89674613
  atomic energy  EATOM  =      2781.95410799
  ---------------------------------------------------
  free energy    TOTEN  =       -14.12150457 eV

  energy without entropy =      -14.12150457  energy(sigma->0) =      -14.12150457


--------------------------------------------------------------------------------------------------------




--------------------------------------- Iteration      1(  26)  ---------------------------------------


    POTLOK:  cpu time      1.0885: real time      1.0878
    SETDIJ:  cpu time      4.3932: real time      4.3925
    TRIAL :  cpu time      0.3688: real time      0.3687
    CORREC:  cpu time      5.7973: real time      5.7965
    CHARGE:  cpu time      0.1162: real time      0.1162
    --------------------------------------------
      LOOP:  cpu time     11.7680: real time     11.7733

 eigenvalue-minimisations  :     0
 total energy-change (2. order) :-0.1505976E-01  (-0.6187615E-02)
 number of electron      22.0000026 magnetization 
 augmentation part       14.3362569 magnetization 

 Free energy of the ion-electron system (eV)
  ---------------------------------------------------
  alpha Z        PSCENC =         0.29603589
  Ewald energy   TEWEN  =       324.81674927
  -Hartree energ DENC   =     -2879.49293047
  -exchange      EXHF   =         0.00000000
  -V(xc)+E(xc)   XCENC  =        39.09392233
  PAW double counting   =      2838.56545528    -3007.08190336
  entropy T*S    EENTRO =        -0.00000000
  eigenvalues    EBANDS =      -112.28800126
  atomic energy  EATOM  =      2781.95410799
  ---------------------------------------------------
  free energy    TOTEN  =       -14.13656433 eV

  energy without entropy =      -14.13656433  energy(sigma->0) =      -14.13656433


--------------------------------------------------------------------------------------------------------




--------------------------------------- Iteration      1(  27)  ---------------------------------------


    POTLOK:  cpu time      1.0857: real time      1.0852
    SETDIJ:  cpu time      4.3828: real time      4.3824
    TRIAL :  cpu time      0.3724: real time      0.3724
    CORREC:  cpu time      5.7337: real time      5.7330
    CHARGE:  cpu time      0.1232: real time      0.1232
    --------------------------------------------
      LOOP:  cpu time     11.7009: real time     11.7078

 eigenvalue-minimisations  :     0
 total energy-change (2. order) :-0.2210885E-02  (-0.2394997E-01)
 number of electron      22.0000026 magnetization 
 augmentation part       14.3362549 magnetization 

 Free energy of the ion-electron system (eV)
  ---------------------------------------------------
  alpha Z        PSCENC =         0.29603589
  Ewald energy   TEWEN  =       324.81674927
  -Hartree energ DENC   =     -2879.73772943
  -exchange      EXHF   =         0.00000000
  -V(xc)+E(xc)   XCENC  =        39.08647090
  PAW double counting   =      2840.25578222    -3008.82551394
  entropy T*S    EENTRO =        -0.00000000
  eigenvalues    EBANDS =      -111.98467811
  atomic energy  EATOM  =      2781.95410799
  ---------------------------------------------------
  free energy    TOTEN  =       -14.13877521 eV

  energy without entropy =      -14.13877521  energy(sigma->0) =      -14.13877521


--------------------------------------------------------------------------------------------------------




--------------------------------------- Iteration      1(  28)  ---------------------------------------


    POTLOK:  cpu time      1.0743: real time      1.0739
    SETDIJ:  cpu time      4.3784: real time      4.3781
    TRIAL :  cpu time      0.3695: real time      0.3695
    CORREC:  cpu time      5.7260: real time      5.7249
    CHARGE:  cpu time      0.1222: real time      0.1223
    --------------------------------------------
      LOOP:  cpu time     11.6748: real time     11.6804

 eigenvalue-minimisations  :     0
 total energy-change (2. order) :-0.5871873E-02  (-0.2107771E-01)
 number of electron      22.0000026 magnetization 
 augmentation part       14.3362123 magnetization 

 Free energy of the ion-electron system (eV)
  ---------------------------------------------------
  alpha Z        PSCENC =         0.29603589
  Ewald energy   TEWEN  =       324.81674927
  -Hartree energ DENC   =     -2879.76885585
  -exchange      EXHF   =         0.00000000
  -V(xc)+E(xc)   XCENC  =        39.08689885
  PAW double counting   =      2840.59149353    -3009.16426065
  entropy T*S    EENTRO =        -0.00000000
  eigenvalues    EBANDS =      -111.95681612
  atomic energy  EATOM  =      2781.95410799
  ---------------------------------------------------
  free energy    TOTEN  =       -14.14464709 eV

  energy without entropy =      -14.14464709  energy(sigma->0) =      -14.14464709


--------------------------------------------------------------------------------------------------------




--------------------------------------- Iteration      1(  29)  ---------------------------------------


    POTLOK:  cpu time      1.0771: real time      1.0765
    SETDIJ:  cpu time      4.3790: real time      4.3788
    TRIAL :  cpu time      0.3694: real time      0.3693
    CORREC:  cpu time      5.7453: real time      5.7443
    CHARGE:  cpu time      0.1220: real time      0.1220
    --------------------------------------------
      LOOP:  cpu time     11.6961: real time     11.7021

 eigenvalue-minimisations  :     0
 total energy-change (2. order) :-0.1100018E-01  (-0.2347480E-01)
 number of electron      22.0000026 magnetization 
 augmentation part       14.3362042 magnetization 

 Free energy of the ion-electron system (eV)
  ---------------------------------------------------
  alpha Z        PSCENC =         0.29603589
  Ewald energy   TEWEN  =       324.81674927
  -Hartree energ DENC   =     -2879.81634516
  -exchange      EXHF   =         0.00000000
  -V(xc)+E(xc)   XCENC  =        39.08688316
  PAW double counting   =      2841.19628844    -3009.77349198
  entropy T*S    EENTRO =        -0.00000000
  eigenvalues    EBANDS =      -111.91587488
  atomic energy  EATOM  =      2781.95410799
  ---------------------------------------------------
  free energy    TOTEN  =       -14.15564727 eV

  energy without entropy =      -14.15564727  energy(sigma->0) =      -14.15564727


--------------------------------------------------------------------------------------------------------




--------------------------------------- Iteration      1(  30)  ---------------------------------------


    POTLOK:  cpu time      1.1174: real time      1.1169
    SETDIJ:  cpu time      4.3705: real time      4.3703
    TRIAL :  cpu time      0.3700: real time      0.3699
    CORREC:  cpu time      5.7696: real time      5.7688
    CHARGE:  cpu time      0.1168: real time      0.1168
    --------------------------------------------
      LOOP:  cpu time     11.7506: real time     11.7575

 eigenvalue-minimisations  :     0
 total energy-change (2. order) :-0.1428861E-01  (-0.2707782E-01)
 number of electron      22.0000026 magnetization 
 augmentation part       14.3361495 magnetization 

 Free energy of the ion-electron system (eV)
  ---------------------------------------------------
  alpha Z        PSCENC =         0.29603589
  Ewald energy   TEWEN  =       324.81674927
  -Hartree energ DENC   =     -2879.86947283
  -exchange      EXHF   =         0.00000000
  -V(xc)+E(xc)   XCENC  =        39.08557461
  PAW double counting   =      2842.09691818    -3010.68140044
  entropy T*S    EENTRO =        -0.00000000
  eigenvalues    EBANDS =      -111.86844854
  atomic energy  EATOM  =      2781.95410799
  ---------------------------------------------------
  free energy    TOTEN  =       -14.16993588 eV

  energy without entropy =      -14.16993588  energy(sigma->0) =      -14.16993588


--------------------------------------------------------------------------------------------------------




--------------------------------------- Iteration      1(  31)  ---------------------------------------


    POTLOK:  cpu time      1.1048: real time      1.1044
    SETDIJ:  cpu time      4.3740: real time      4.3737
    TRIAL :  cpu time      0.3717: real time      0.3716
    CORREC:  cpu time      5.8666: real time      5.8693
    CHARGE:  cpu time      0.1215: real time      0.1213
    --------------------------------------------
      LOOP:  cpu time     11.8424: real time     11.8518

 eigenvalue-minimisations  :     0
 total energy-change (2. order) :-0.5454711E-02  (-0.1737524E-01)
 number of electron      22.0000026 magnetization 
 augmentation part       14.3359979 magnetization 

 Free energy of the ion-electron system (eV)
  ---------------------------------------------------
  alpha Z        PSCENC =         0.29603589
  Ewald energy   TEWEN  =       324.81674927
  -Hartree energ DENC   =     -2879.90431824
  -exchange      EXHF   =         0.00000000
  -V(xc)+E(xc)   XCENC  =        39.08258943
  PAW double counting   =      2843.28579019    -3011.87801735
  entropy T*S    EENTRO =        -0.00000000
  eigenvalues    EBANDS =      -111.82832776
  atomic energy  EATOM  =      2781.95410799
  ---------------------------------------------------
  free energy    TOTEN  =       -14.17539059 eV

  energy without entropy =      -14.17539059  energy(sigma->0) =      -14.17539059


--------------------------------------------------------------------------------------------------------




--------------------------------------- Iteration      1(  32)  ---------------------------------------


    POTLOK:  cpu time      1.1115: real time      1.1112
    SETDIJ:  cpu time      4.3809: real time      4.3806
    TRIAL :  cpu time      0.3728: real time      0.3727
    CORREC:  cpu time      5.9487: real time      5.9481
    CHARGE:  cpu time      0.1203: real time      0.1203
    --------------------------------------------
      LOOP:  cpu time     11.9397: real time     11.9460

 eigenvalue-minimisations  :     0
 total energy-change (2. order) :-0.3958776E-02  (-0.2374054E-01)
 number of electron      22.0000026 magnetization 
 augmentation part       14.3356081 magnetization 

 Free energy of the ion-electron system (eV)
  ---------------------------------------------------
  alpha Z        PSCENC =         0.29603589
  Ewald energy   TEWEN  =       324.81674927
  -Hartree energ DENC   =     -2879.89281846
  -exchange      EXHF   =         0.00000000
  -V(xc)+E(xc)   XCENC  =        39.07898064
  PAW double counting   =      2844.28267775    -3012.87844513
  entropy T*S    EENTRO =        -0.00000000
  eigenvalues    EBANDS =      -111.83663731
  atomic energy  EATOM  =      2781.95410799
  ---------------------------------------------------
  free energy    TOTEN  =       -14.17934936 eV

  energy without entropy =      -14.17934936  energy(sigma->0) =      -14.17934936


--------------------------------------------------------------------------------------------------------




--------------------------------------- Iteration      1(  33)  ---------------------------------------


    POTLOK:  cpu time      1.1556: real time      1.1550
    SETDIJ:  cpu time      4.4875: real time      4.4871
    TRIAL :  cpu time      0.3838: real time      0.3837
    CORREC:  cpu time      5.8325: real time      5.8318
    CHARGE:  cpu time      0.1220: real time      0.1220
    --------------------------------------------
      LOOP:  cpu time     11.9848: real time     11.9912

 eigenvalue-minimisations  :     0
 total energy-change (2. order) : 0.1493972E-01  (-0.1318475E-01)
 number of electron      22.0000026 magnetization 
 augmentation part       14.3353431 magnetization 

 Free energy of the ion-electron system (eV)
  ---------------------------------------------------
  alpha Z        PSCENC =         0.29603589
  Ewald energy   TEWEN  =       324.81674927
  -Hartree energ DENC   =     -2879.79810147
  -exchange      EXHF   =         0.00000000
  -V(xc)+E(xc)   XCENC  =        39.07187442
  PAW double counting   =      2845.49557846    -3014.08983348
  entropy T*S    EENTRO =        -0.00000000
  eigenvalues    EBANDS =      -111.91082072
  atomic energy  EATOM  =      2781.95410799
  ---------------------------------------------------
  free energy    TOTEN  =       -14.16440964 eV

  energy without entropy =      -14.16440964  energy(sigma->0) =      -14.16440964


--------------------------------------------------------------------------------------------------------




--------------------------------------- Iteration      1(  34)  ---------------------------------------


    POTLOK:  cpu time      1.1852: real time      1.1850
    SETDIJ:  cpu time      4.3753: real time      4.3751
    TRIAL :  cpu time      0.3727: real time      0.3727
    CORREC:  cpu time      5.8273: real time      5.8267
    CHARGE:  cpu time      0.1170: real time      0.1169
    --------------------------------------------
      LOOP:  cpu time     11.8812: real time     11.8874

 eigenvalue-minimisations  :     0
 total energy-change (2. order) :-0.4700105E-02  (-0.1869923E-01)
 number of electron      22.0000026 magnetization 
 augmentation part       14.3350616 magnetization 

 Free energy of the ion-electron system (eV)
  ---------------------------------------------------
  alpha Z        PSCENC =         0.29603589
  Ewald energy   TEWEN  =       324.81674927
  -Hartree energ DENC   =     -2879.72104430
  -exchange      EXHF   =         0.00000000
  -V(xc)+E(xc)   XCENC  =        39.06866531
  PAW double counting   =      2846.27845653    -3014.87107719
  entropy T*S    EENTRO =        -0.00000000
  eigenvalues    EBANDS =      -111.99100324
  atomic energy  EATOM  =      2781.95410799
  ---------------------------------------------------
  free energy    TOTEN  =       -14.16910975 eV

  energy without entropy =      -14.16910975  energy(sigma->0) =      -14.16910975


--------------------------------------------------------------------------------------------------------




--------------------------------------- Iteration      1(  35)  ---------------------------------------


    POTLOK:  cpu time      1.1644: real time      1.1641
    SETDIJ:  cpu time      4.3700: real time      4.3697
    TRIAL :  cpu time      0.3730: real time      0.3730
    CORREC:  cpu time      6.1543: real time      6.1533
    CHARGE:  cpu time      0.1226: real time      0.1226
    --------------------------------------------
      LOOP:  cpu time     12.1886: real time     12.1944

 eigenvalue-minimisations  :     0
 total energy-change (2. order) :-0.1993457E-02  (-0.4367407E-04)
 number of electron      22.0000026 magnetization 
 augmentation part       14.3348517 magnetization 

 Free energy of the ion-electron system (eV)
  ---------------------------------------------------
  alpha Z        PSCENC =         0.29603589
  Ewald energy   TEWEN  =       324.81674927
  -Hartree energ DENC   =     -2879.61040757
  -exchange      EXHF   =         0.00000000
  -V(xc)+E(xc)   XCENC  =        39.06393180
  PAW double counting   =      2847.18876616    -3015.77924983
  entropy T*S    EENTRO =        -0.00000000
  eigenvalues    EBANDS =      -112.10103690
  atomic energy  EATOM  =      2781.95410799
  ---------------------------------------------------
  free energy    TOTEN  =       -14.17110320 eV

  energy without entropy =      -14.17110320  energy(sigma->0) =      -14.17110320


--------------------------------------------------------------------------------------------------------




--------------------------------------- Iteration      1(  36)  ---------------------------------------


    POTLOK:  cpu time      1.1868: real time      1.1865
    SETDIJ:  cpu time      4.3946: real time      4.3942
    TRIAL :  cpu time      0.3741: real time      0.3741
    CORREC:  cpu time      5.8644: real time      5.8634
    CHARGE:  cpu time      0.1190: real time      0.1190
    --------------------------------------------
      LOOP:  cpu time     11.9428: real time     11.9500

 eigenvalue-minimisations  :     0
 total energy-change (2. order) : 0.3720150E-01  (-0.1773429E-01)
 number of electron      22.0000026 magnetization 
 augmentation part       14.3349511 magnetization 

 Free energy of the ion-electron system (eV)
  ---------------------------------------------------
  alpha Z        PSCENC =         0.29603589
  Ewald energy   TEWEN  =       324.81674927
  -Hartree energ DENC   =     -2879.54804794
  -exchange      EXHF   =         0.00000000
  -V(xc)+E(xc)   XCENC  =        39.05684738
  PAW double counting   =      2847.12333382    -3015.70757821
  entropy T*S    EENTRO =        -0.00000000
  eigenvalues    EBANDS =      -112.12534990
  atomic energy  EATOM  =      2781.95410799
  ---------------------------------------------------
  free energy    TOTEN  =       -14.13390170 eV

  energy without entropy =      -14.13390170  energy(sigma->0) =      -14.13390170


--------------------------------------------------------------------------------------------------------




--------------------------------------- Iteration      1(  37)  ---------------------------------------


    POTLOK:  cpu time      1.1748: real time      1.1745
    SETDIJ:  cpu time      4.3765: real time      4.3763
    TRIAL :  cpu time      0.3717: real time      0.3717
    CORREC:  cpu time      5.8934: real time      5.8929
    CHARGE:  cpu time      0.1243: real time      0.1242
    --------------------------------------------
      LOOP:  cpu time     11.9444: real time     11.9509

 eigenvalue-minimisations  :     0
 total energy-change (2. order) :-0.2010118E-01  (-0.1873764E-01)
 number of electron      22.0000026 magnetization 
 augmentation part       14.3351138 magnetization 

 Free energy of the ion-electron system (eV)
  ---------------------------------------------------
  alpha Z        PSCENC =         0.29603589
  Ewald energy   TEWEN  =       324.81674927
  -Hartree energ DENC   =     -2879.53020639
  -exchange      EXHF   =         0.00000000
  -V(xc)+E(xc)   XCENC  =        39.05577607
  PAW double counting   =      2848.30302091    -3016.89384025
  entropy T*S    EENTRO =        -0.00000000
  eigenvalues    EBANDS =      -112.15564637
  atomic energy  EATOM  =      2781.95410799
  ---------------------------------------------------
  free energy    TOTEN  =       -14.15400289 eV

  energy without entropy =      -14.15400289  energy(sigma->0) =      -14.15400289


--------------------------------------------------------------------------------------------------------




--------------------------------------- Iteration      1(  38)  ---------------------------------------


    POTLOK:  cpu time      1.1722: real time      1.1716
    SETDIJ:  cpu time      4.4342: real time      4.4339
    TRIAL :  cpu time      0.3765: real time      0.3765
    CORREC:  cpu time      5.8164: real time      5.8157
    CHARGE:  cpu time      0.1239: real time      0.1239
    --------------------------------------------
      LOOP:  cpu time     11.9344: real time     11.9329

 eigenvalue-minimisations  :     0
 total energy-change (2. order) :-0.1819038E-01  (-0.1994316E-01)
 number of electron      22.0000026 magnetization 
 augmentation part       14.3351955 magnetization 

 Free energy of the ion-electron system (eV)
  ---------------------------------------------------
  alpha Z        PSCENC =         0.29603589
  Ewald energy   TEWEN  =       324.81674927
  -Hartree energ DENC   =     -2879.56601877
  -exchange      EXHF   =         0.00000000
  -V(xc)+E(xc)   XCENC  =        39.05993621
  PAW double counting   =      2848.45967574    -3017.05412960
[...]
  ---------------------------------------------------
  free energy    TOTEN  =       -14.28752036 eV

  energy without entropy =      -14.28752036  energy(sigma->0) =      -14.28752036


--------------------------------------------------------------------------------------------------------




--------------------------------------- Iteration      1( 461)  ---------------------------------------


    POTLOK:  cpu time      1.1343: real time      1.1340
    SETDIJ:  cpu time      4.3713: real time      4.3711
    TRIAL :  cpu time      0.3696: real time      0.3696
    CORREC:  cpu time      5.7879: real time      5.7874
    CHARGE:  cpu time      0.1261: real time      0.1261
    --------------------------------------------
      LOOP:  cpu time     11.7915: real time     11.7904

 eigenvalue-minimisations  :     0
 total energy-change (2. order) : 0.6796381E-05  (-0.1952313E-06)
 number of electron      22.0000026 magnetization 
 augmentation part       14.3394548 magnetization 

 Free energy of the ion-electron system (eV)
  ---------------------------------------------------
  alpha Z        PSCENC =         0.29603589
  Ewald energy   TEWEN  =       324.81674927
  -Hartree energ DENC   =     -2879.31368573
  -exchange      EXHF   =         0.00000000
  -V(xc)+E(xc)   XCENC  =        39.16277908
  PAW double counting   =      2849.19182286    -3017.84464418
  entropy T*S    EENTRO =        -0.00000000
  eigenvalues    EBANDS =      -112.55067875
  atomic energy  EATOM  =      2781.95410799
  ---------------------------------------------------
  free energy    TOTEN  =       -14.28751357 eV

  energy without entropy =      -14.28751357  energy(sigma->0) =      -14.28751357


--------------------------------------------------------------------------------------------------------




--------------------------------------- Iteration      1( 462)  ---------------------------------------


    POTLOK:  cpu time      1.1424: real time      1.1420
    SETDIJ:  cpu time      4.3625: real time      4.3623
    TRIAL :  cpu time      0.3702: real time      0.3701
    CORREC:  cpu time      5.7887: real time      5.7881
    CHARGE:  cpu time      0.1172: real time      0.1171
    --------------------------------------------
      LOOP:  cpu time     11.7834: real time     11.7821

 eigenvalue-minimisations  :     0
 total energy-change (2. order) :-0.2152249E-04  (-0.6584069E-07)
 number of electron      22.0000026 magnetization 
 augmentation part       14.3394548 magnetization 

 Free energy of the ion-electron system (eV)
  ---------------------------------------------------
  alpha Z        PSCENC =         0.29603589
  Ewald energy   TEWEN  =       324.81674927
  -Hartree energ DENC   =     -2879.31368537
  -exchange      EXHF   =         0.00000000
  -V(xc)+E(xc)   XCENC  =        39.16283087
  PAW double counting   =      2849.19182362    -3017.84464502
  entropy T*S    EENTRO =        -0.00000000
  eigenvalues    EBANDS =      -112.55075233
  atomic energy  EATOM  =      2781.95410799
  ---------------------------------------------------
  free energy    TOTEN  =       -14.28753509 eV

  energy without entropy =      -14.28753509  energy(sigma->0) =      -14.28753509


--------------------------------------------------------------------------------------------------------




--------------------------------------- Iteration      1( 463)  ---------------------------------------


    POTLOK:  cpu time      1.1467: real time      1.1466
    SETDIJ:  cpu time      4.3614: real time      4.3611
    TRIAL :  cpu time      0.3698: real time      0.3698
    CORREC:  cpu time      5.6976: real time      5.6971
    CHARGE:  cpu time      0.1192: real time      0.1191
    --------------------------------------------
      LOOP:  cpu time     11.6971: real time     11.6962

 eigenvalue-minimisations  :     0
 total energy-change (2. order) : 0.7858032E-04  ( 0.7753232E-07)
 number of electron      22.0000026 magnetization 
 augmentation part       14.3394549 magnetization 

 Free energy of the ion-electron system (eV)
  ---------------------------------------------------
  alpha Z        PSCENC =         0.29603589
  Ewald energy   TEWEN  =       324.81674927
  -Hartree energ DENC   =     -2879.31368525
  -exchange      EXHF   =         0.00000000
  -V(xc)+E(xc)   XCENC  =        39.16281346
  PAW double counting   =      2849.19182388    -3017.84464532
  entropy T*S    EENTRO =        -0.00000000
  eigenvalues    EBANDS =      -112.55065643
  atomic energy  EATOM  =      2781.95410799
  ---------------------------------------------------
  free energy    TOTEN  =       -14.28745651 eV

  energy without entropy =      -14.28745651  energy(sigma->0) =      -14.28745651


--------------------------------------------------------------------------------------------------------




--------------------------------------- Iteration      1( 464)  ---------------------------------------


    POTLOK:  cpu time      1.1504: real time      1.1501
    SETDIJ:  cpu time      4.3699: real time      4.3698
    TRIAL :  cpu time      0.3723: real time      0.3722
    CORREC:  cpu time      5.8087: real time      5.8076
    CHARGE:  cpu time      0.1191: real time      0.1191
    --------------------------------------------
      LOOP:  cpu time     11.8232: real time     11.8216

 eigenvalue-minimisations  :     0
 total energy-change (2. order) :-0.6507060E-04  (-0.2103892E-06)
 number of electron      22.0000026 magnetization 
 augmentation part       14.3394549 magnetization 

 Free energy of the ion-electron system (eV)
  ---------------------------------------------------
  alpha Z        PSCENC =         0.29603589
  Ewald energy   TEWEN  =       324.81674927
  -Hartree energ DENC   =     -2879.31368136
  -exchange      EXHF   =         0.00000000
  -V(xc)+E(xc)   XCENC  =        39.16288569
  PAW double counting   =      2849.19183277    -3017.84465519
  entropy T*S    EENTRO =        -0.00000000
  eigenvalues    EBANDS =      -112.55079663
  atomic energy  EATOM  =      2781.95410799
  ---------------------------------------------------
  free energy    TOTEN  =       -14.28752158 eV

  energy without entropy =      -14.28752158  energy(sigma->0) =      -14.28752158


--------------------------------------------------------------------------------------------------------




--------------------------------------- Iteration      1( 465)  ---------------------------------------


    POTLOK:  cpu time      1.1529: real time      1.1526
    SETDIJ:  cpu time      4.4217: real time      4.4210
    TRIAL :  cpu time      0.3725: real time      0.3725
    CORREC:  cpu time      5.8039: real time      5.8033
    CHARGE:  cpu time      0.1214: real time      0.1215
    --------------------------------------------
      LOOP:  cpu time     11.8749: real time     11.8732

 eigenvalue-minimisations  :     0
 total energy-change (2. order) :-0.2671053E-04  (-0.6147002E-07)
 number of electron      22.0000026 magnetization 
 augmentation part       14.3394549 magnetization 

 Free energy of the ion-electron system (eV)
  ---------------------------------------------------
  alpha Z        PSCENC =         0.29603589
  Ewald energy   TEWEN  =       324.81674927
  -Hartree energ DENC   =     -2879.31368101
  -exchange      EXHF   =         0.00000000
  -V(xc)+E(xc)   XCENC  =        39.16291514
  PAW double counting   =      2849.19183366    -3017.84465617
  entropy T*S    EENTRO =        -0.00000000
  eigenvalues    EBANDS =      -112.55085305
  atomic energy  EATOM  =      2781.95410799
  ---------------------------------------------------
  free energy    TOTEN  =       -14.28754829 eV

  energy without entropy =      -14.28754829  energy(sigma->0) =      -14.28754829


--------------------------------------------------------------------------------------------------------




--------------------------------------- Iteration      1( 466)  ---------------------------------------


    POTLOK:  cpu time      1.1605: real time      1.1603
    SETDIJ:  cpu time      4.3680: real time      4.3679
    TRIAL :  cpu time      0.3674: real time      0.3674
    CORREC:  cpu time      5.7843: real time      5.7837
    EDDIAG:  cpu time      0.1555: real time      0.1554
    CHARGE:  cpu time      0.1220: real time      0.1220
    --------------------------------------------
      LOOP:  cpu time     11.9600: real time     11.9589

 eigenvalue-minimisations  :     0
 total energy-change (2. order) :-0.1229350E-06  (-0.5389043E-07)
 number of electron      22.0000026 magnetization 
 augmentation part       14.3394549 magnetization 

 Free energy of the ion-electron system (eV)
  ---------------------------------------------------
  alpha Z        PSCENC =         0.29603589
  Ewald energy   TEWEN  =       324.81674927
  -Hartree energ DENC   =     -2879.31368090
  -exchange      EXHF   =         0.00000000
  -V(xc)+E(xc)   XCENC  =        39.16291515
  PAW double counting   =      2849.19183391    -3017.84465646
  entropy T*S    EENTRO =        -0.00000000
  eigenvalues    EBANDS =      -112.55085326
  atomic energy  EATOM  =      2781.95410799
  ---------------------------------------------------
  free energy    TOTEN  =       -14.28754841 eV

  energy without entropy =      -14.28754841  energy(sigma->0) =      -14.28754841


--------------------------------------------------------------------------------------------------------


  average scaling for gradient   0.0162


 average (electrostatic) potential at core
  the test charge radii are     0.9430
  (the norm of the test charge is              1.0000)
       1 -79.1480       2 -79.1497
 
 
 
 E-fermi :  -4.2172     XC(G=0):  -0.8135     alpha+bet : -0.0321

 Fermi energy:        -4.2171948180

 k-point     1 :       0.0000    0.0000    0.0000
  band No.  band energies     occupation 
      1      -6.3586      2.00000
      2      -5.5795      2.00000
      3      -5.5780      2.00000
      4      -5.1612      2.00000
      5      -5.0589      2.00000
      6      -5.0351      2.00000
      7      -4.8297      2.00000
      8      -4.7994      2.00000
      9      -4.6336      2.00000
     10      -4.6308      2.00000
     11      -4.6104      2.00000
     12      -2.7814      0.00000
     13      -2.4832      0.00000
     14      -1.7980      0.00000
     15      -1.6764      0.00000
     16      -0.5020      0.00000
     17      -0.3201      0.00000
     18       0.0036      0.00000
     19       0.0955      0.00000
     20       0.1599      0.00000
     21       0.6872      0.00000
     22       0.6980      0.00000
     23       0.7453      0.00000
     24       0.9837      0.00000
     25       1.1728      0.00000
     26       1.4001      0.00000
     27       1.8579      0.00000
     28       1.8674      0.00000
     29       3.6315      0.00000
     30       3.8580      0.00000
     31       5.0171      0.00000
     32       6.2086      0.00000


--------------------------------------------------------------------------------------------------------


 soft charge-density along one line, spin component           1
         0         1         2         3         4         5         6         7         8         9
 total charge-density along one line
 
 pseudopotential strength for first ion, spin component:           1
 -8.935   0.000   0.000   0.000   0.000   0.481  -0.000  -0.000
  0.000  -9.012   0.000  -0.000  -0.000  -0.000   0.534  -0.000
  0.000   0.000  -9.056   0.000  -0.003  -0.000  -0.000   0.561
  0.000  -0.000   0.000  -9.012   0.000  -0.000   0.000  -0.000
  0.000  -0.000  -0.003   0.000  -8.972  -0.000   0.000   0.002
  0.481  -0.000  -0.000  -0.000  -0.000   6.960   0.000   0.000
 -0.000   0.534  -0.000   0.000   0.000   0.000   6.921   0.000
 -0.000  -0.000   0.561  -0.000   0.002   0.000   0.000   6.910
 -0.000   0.000  -0.000   0.533   0.000   0.000  -0.000   0.000
 -0.000   0.000   0.002   0.000   0.503  -0.000  -0.000  -0.000
  0.000  -0.000   0.016  -0.000   0.000  -0.000   0.000  -0.006
  0.000  -0.000   0.031  -0.000   0.001  -0.000   0.000  -0.009
  0.000   0.038  -0.000   0.000  -0.001  -0.001  -0.013   0.000
  0.000   0.001   0.044   0.001  -0.000   0.000  -0.000  -0.020
  0.001   0.000  -0.000   0.037   0.001  -0.000   0.000   0.000
  0.001   0.053  -0.000  -0.000  -0.001  -0.001  -0.015   0.000
 -0.000   0.001   0.066   0.001  -0.000   0.000   0.000  -0.026
  0.001  -0.000  -0.000   0.053   0.001   0.000   0.000  -0.000
 total augmentation occupancy for first ion, spin component:           1
  1.956   0.000   0.000   0.000  -0.000  -0.044   0.000  -0.000  -0.000  -0.000  -0.000   0.000  -0.000   0.000   0.000   0.000
  0.000   1.949   0.000   0.000   0.000   0.000  -0.029  -0.000   0.000   0.000   0.002  -0.000  -0.014  -0.000  -0.001   0.023
  0.000   0.000   1.924  -0.001   0.001   0.000  -0.000  -0.016   0.000  -0.000  -0.289   0.075   0.000  -0.097  -0.001  -0.000
  0.000   0.000  -0.001   1.947   0.000   0.000  -0.000   0.000  -0.029  -0.000  -0.001   0.000   0.001  -0.001  -0.019  -0.000
 -0.000   0.000   0.001   0.000   1.954  -0.000  -0.000  -0.000   0.000  -0.045  -0.002   0.000   0.001   0.006   0.002  -0.000
 -0.044   0.000   0.000   0.000  -0.000   0.001  -0.000   0.000   0.000   0.000   0.000  -0.000   0.000  -0.000  -0.000  -0.000
  0.000  -0.029  -0.000  -0.000  -0.000  -0.000   0.004  -0.000  -0.000   0.000  -0.000   0.000  -0.007   0.000   0.000   0.000
 -0.000  -0.000  -0.016   0.000  -0.000   0.000  -0.000   0.008  -0.000   0.000   0.137  -0.032  -0.000  -0.019  -0.000   0.000
 -0.000   0.000   0.000  -0.029   0.000   0.000  -0.000  -0.000   0.004  -0.000   0.000  -0.000   0.000   0.000  -0.007  -0.000
 -0.000   0.000  -0.000  -0.000  -0.045   0.000   0.000   0.000  -0.000   0.001   0.001  -0.000  -0.000  -0.000  -0.000   0.000
 -0.000   0.002  -0.289  -0.001  -0.002   0.000  -0.000   0.137   0.000   0.001   4.027  -0.943  -0.003  -0.415  -0.003   0.000
  0.000  -0.000   0.075   0.000   0.000  -0.000   0.000  -0.032  -0.000  -0.000  -0.943   0.221   0.001   0.097   0.001  -0.000
 -0.000  -0.014   0.000   0.001   0.001   0.000  -0.007  -0.000   0.000  -0.000  -0.003   0.001   0.015   0.000  -0.000  -0.001
  0.000  -0.000  -0.097  -0.001   0.006  -0.000   0.000  -0.019   0.000  -0.000  -0.415   0.097   0.000   0.060   0.000  -0.000
  0.000  -0.001  -0.001  -0.019   0.002  -0.000   0.000  -0.000  -0.007  -0.000  -0.003   0.001  -0.000   0.000   0.016  -0.000
  0.000   0.023  -0.000  -0.000  -0.000  -0.000   0.000   0.000  -0.000   0.000   0.000  -0.000  -0.001  -0.000  -0.000   0.000
  0.000   0.000   0.027   0.000   0.000   0.000  -0.000   0.002  -0.000   0.000   0.043  -0.010  -0.000  -0.007  -0.000   0.000
  0.000   0.000  -0.000   0.023   0.000  -0.000  -0.000   0.000   0.000  -0.000   0.000  -0.000   0.000  -0.000  -0.002  -0.000


------------------------ aborting loop because EDIFF is reached ----------------------------------------


    FORLOC:  cpu time      0.0050: real time      0.0051
    FORNL :  cpu time      0.0492: real time      0.0491
    STRESS:  cpu time      1.7514: real time      1.7515
    FORCOR:  cpu time      1.0444: real time      1.0443
    OFIELD:  cpu time      0.0004: real time      0.0004

  FORCE on cell =-STRESS in cart. coord.  units (eV):
  Direction    XX          YY          ZZ          XY          YZ          ZX
  --------------------------------------------------------------------------------------
  Alpha Z     0.29604     0.29604     0.29604
  Ewald    -147.49196  -147.49196   619.80070     0.00000     0.00000     0.00000
  Hartree   772.98194   772.86846  1333.46328    -0.01060    -0.06572    -0.03400
  E(xc)     -95.93719   -96.01236   -94.14924     0.00637    -0.00906     0.00254
  Local    -812.08373  -812.11443 -2124.10141     0.01463     0.06546     0.04135
  n-local   -20.61252   -20.57264   -24.79739    -0.00031     0.01139     0.00270
  augment   117.16757   117.28257   110.86746     0.00178    -0.00004    -0.00440
  Kinetic   182.26153   182.33680   175.59328    -0.00171     0.00815     0.00159
  Fock        0.00000     0.00000     0.00000     0.00000     0.00000     0.00000
  -------------------------------------------------------------------------------------
  Total      -3.41832    -3.40752    -3.02729     0.01016     0.01018     0.00977
  in kB      -0.55424    -0.55249    -0.49084     0.00165     0.00165     0.00158
  external pressure =       -0.53 kB  Pullay stress =        0.00 kB


 VOLUME and BASIS-vectors are now :
 -----------------------------------------------------------------------------
  energy-cutoff  :      520.00
  volume of cell :     9881.61
      direct lattice vectors                 reciprocal lattice vectors
    21.138852197  0.000000000  0.000000000     0.047306258  0.000000000  0.000000000
     0.000000000 21.138852197  0.000000000     0.000000000  0.047306258  0.000000000
     0.000000000  0.000000000 22.113885220     0.000000000  0.000000000  0.045220457

  length of vectors
    21.138852197 21.138852197 22.113885220     0.047306258  0.047306258  0.045220457


 FORCES acting on ions:
    Electron-Ion                     Ewald-Force                    Non-Local-Force
 -----------------------------------------------------------------------------------------------
   -.804E-01 -.334E+00 -.364E+03   0.464E-17 0.463E-16 0.351E+03   0.880E-01 0.206E+00 0.124E+02
   -.420E-01 -.206E+00 0.365E+03   -.234E-16 -.248E-16 -.351E+03   0.577E-01 0.179E+00 -.126E+02
 -----------------------------------------------------------------------------------------------
   -.624E+00 -.515E+00 0.512E-01   -.188E-16 0.215E-16 0.000E+00   0.146E+00 0.385E+00 -.206E+00
 
 
 POSITION                                       TOTAL-FORCE (eV/Angst)
 -----------------------------------------------------------------------------------
     10.56943     12.68331     16.08428        -0.228633      0.077624     -0.473367
     10.56943     12.68331     13.86085         0.228633     -0.077624      0.473367
 -----------------------------------------------------------------------------------
    total drift:                               -0.478511     -0.130113     -0.154606


--------------------------------------------------------------------------------------------------------



  FREE ENERGIE OF THE ION-ELECTRON SYSTEM (eV)
  ---------------------------------------------------
  free  energy   TOTEN  =       -14.28754841 eV

  energy  without entropy=      -14.28754841  energy(sigma->0) =      -14.28754841
 


--------------------------------------------------------------------------------------------------------


    POTLOK:  cpu time      5.4806: real time      5.4800


--------------------------------------------------------------------------------------------------------


     LOOP+:  cpu time   5609.2832: real time   5611.1730
    4ORBIT:  cpu time      0.0000: real time      0.0000

 total amount of memory used by VASP MPI-rank0    68089. kBytes
=======================================================================

   base      :      30000. kBytes
   nonlr-proj:        369. kBytes
   fftplans  :      11482. kBytes
   grid      :      25425. kBytes
   one-center:         15. kBytes
   wavefun   :        798. kBytes
 
  
  
 General timing and accounting informations for this job:
 ========================================================
  
                  Total CPU time used (sec):     5623.491
                            User time (sec):     5617.957
                          System time (sec):        5.534
                         Elapsed time (sec):     5625.977
  
                   Maximum memory used (kb):      727868.
                   Average memory used (kb):          N/A
  
                          Minor page faults:        51211
                          Major page faults:            0
                 Voluntary context switches:        34017
