 vasp.6.4.0 14Feb23 (build Jul 14 2023 13:46:40) complex                        
  
 executed on             LinuxIFC date 2023.07.24  03:51:10
 running   64 mpi-ranks, with    1 threads/rank, on    8 nodes
 distrk:  each k-point on   64 cores,    1 groups
 distr:  one band on NCORE=   1 cores,   64 groups


--------------------------------------------------------------------------------------------------------


 INCAR:
   SYSTEM = MgO-rocksalt
   ISMEAR = 0
   SIGMA = 0.05
   EDIFF = 1E-6
   ALGO = ALL
   ISTART = 0
   IBRION = -1
   NSW = 0
   ISYM = 2
   LHFCALC = .TRUE.
   GGA = B5
   AEXX = 0.2
   AGGAX = 0.72
   AGGAC = 0.81
   ALDAC = 0.19
   IVDW = 11
   VDW_S6 = 1.0
   VDW_SR = 1.261
   VDW_S8 = 1.703
   ENCUT = 520
   PREC = Accurate
   LASPH = .TRUE.
   LREAL = Auto
   ISPIN = 1
   NELM = 200
   NELMIN = 8
   NCORE = 1
   KPAR = 1
   LWAVE = .FALSE.
   LCHARG = .FALSE.

 POTCAR:    PAW_PBE Au 04Oct2007                  
 -----------------------------------------------------------------------------
|                                                                             |
|           W    W    AA    RRRRR   N    N  II  N    N   GGGG   !!!           |
|           W    W   A  A   R    R  NN   N  II  NN   N  G    G  !!!           |
|           W    W  A    A  R    R  N N  N  II  N N  N  G       !!!           |
|           W WW W  AAAAAA  RRRRR   N  N N  II  N  N N  G  GGG   !            |
|           WW  WW  A    A  R   R   N   NN  II  N   NN  G    G                |
|           W    W  A    A  R    R  N    N  II  N    N   GGGG   !!!           |
|                                                                             |
|     You have selected ISYM=2 for a HF type calculation. This will           |
|     symmetrize the charge density but not the exchange potential. I         |
|     suggest to use ISYM=3 instead. This uses symmetry to obtain the         |
|     orbitals at all k-points in the Brillouin zone, but does not apply      |
|     symmetry to the Hartree potential directly. The resultant charge        |
|     might have lower symmetry than the crystal but, at least, Hartree       |
|     and exchange are fully compatible.                                      |
|                                                                             |
 -----------------------------------------------------------------------------

 POTCAR:    PAW_PBE Au 04Oct2007                  
   SHA256 =  d0044ae04e2bdce24051b198fc5c053d722a5bc6fe3c3b100514a13fc5d2db88 Au/POTCAR             
   COPYR  = (c) Copyright 04Oct2007 Georg Kresse                                                    
   COPYR  = This file is part of the software VASP. Any use, copying, and all other rights are regul
   COPYR  = If you do not have a valid VASP license, you may not use, copy or distribute this file. 
   VRHFIN =Au: s1d10                                                                                
   LEXCH  = PE                                                                                      
   EATOM  =   926.0867 eV,   68.0654 Ry                                                             
                                                                                                    
   TITEL  = PAW_PBE Au 04Oct2007                                                                    
   LULTRA =        F    use ultrasoft PP ?                                                          
   IUNSCR =        1    unscreen: 0-lin 1-nonlin 2-no                                               
   RPACOR =    2.330    partial core radius                                                         
   POMASS =  196.966; ZVAL   =   11.000    mass and valenz                                          
   RCORE  =    2.500    outmost cutoff radius                                                       
   RWIGS  =    2.840; RWIGS  =    1.503    wigner-seitz radius (au A)                               
   ENMAX  =  229.943; ENMIN  =  172.457 eV                                                          
   ICORE  =        3    local potential                                                             
   LCOR   =        T    correct aug charges                                                         
   LPAW   =        T    paw PP                                                                      
   EAUG   =  356.670                                                                                
   DEXC   =    0.000                                                                                
   RMAX   =    2.562    core radius for proj-oper                                                   
   RAUG   =    1.300    factor for augmentation sphere                                              
   RDEP   =    2.598    radius for radial grids                                                     
   RDEPT  =    2.193    core radius for aug-charge                                                  
                                                                                                    
   Atomic configuration                                                                             
   16 entries                                                                                       
     n  l   j            E        occ.                                                              
     1  0  0.50    -80748.5001   2.0000                                                             
     2  0  0.50    -14244.7466   2.0000                                                             
     2  1  1.50    -12310.9591   6.0000                                                             
     3  0  0.50     -3362.1768   2.0000                                                             
     3  1  1.50     -2801.5463   6.0000                                                             
     3  2  2.50     -2203.8206  10.0000                                                             
     4  0  0.50      -729.8168   2.0000                                                             
     4  1  1.50      -546.0527   6.0000                                                             
     4  2  2.50      -325.7302  10.0000                                                             
     4  3  3.50       -81.1472  14.0000                                                             
     5  0  0.50      -108.3201   2.0000                                                             
     5  1  1.50       -59.7479   6.0000                                                             
     5  2  2.50        -6.8783  10.0000                                                             
     6  0  0.50        -5.7602   1.0000                                                             
     6  1  1.50        -6.8029   0.0000                                                             
     5  3  2.50        -1.3606   0.0000                                                             
   Description                                                                                      
     l       E           TYP  RCUT    TYP  RCUT                                                     
     2     -6.8782861     23  2.500                                                                 
     2     -8.2388687     23  2.500                                                                 
     0     -5.7601759     23  2.500                                                                 
     0     -0.8493231     23  2.500                                                                 
     1     -2.7211652     23  2.500                                                                 
     1     27.2116520     23  2.500                                                                 
     3     -1.3605826     23  2.500                                                                 
  local pseudopotential read in
  partial core-charges read in
  partial kinetic energy density read in
  atomic valenz-charges read in
  non local Contribution for L=           2  read in
    real space projection operators read in
  non local Contribution for L=           2  read in
    real space projection operators read in
  non local Contribution for L=           0  read in
    real space projection operators read in
  non local Contribution for L=           0  read in
    real space projection operators read in
  non local Contribution for L=           1  read in
    real space projection operators read in
  non local Contribution for L=           1  read in
    real space projection operators read in
    PAW grid and wavefunctions read in
 
   number of l-projection  operators is LMAX  =           6
   number of lm-projection operators is LMMAX =          18
 
 -----------------------------------------------------------------------------
|                                                                             |
|               ----> ADVICE to this user running VASP <----                  |
|                                                                             |
|     You have a (more or less) 'small supercell' and for smaller cells       |
|     it is recommended to use the reciprocal-space projection scheme!        |
|     The real-space optimization is not efficient for small cells and it     |
|     is also less accurate ...                                               |
|     Therefore, set LREAL=.FALSE. in the INCAR file.                         |
|                                                                             |
 -----------------------------------------------------------------------------

 Optimization of the real space projectors (new method)

 maximal supplied QI-value         = 15.12
 optimisation between [QCUT,QGAM] = [ 11.64, 23.28] = [ 37.95,151.78] Ry 
 Optimized for a Real-space Cutoff    1.49 Angstroem

   l    n(q)    QCUT    max X(q) W(low)/X(q) W(high)/X(q)  e(spline) 
   2      9    11.641    60.898    0.24E-03    0.10E-03    0.19E-06
   2      9    11.641    58.894    0.25E-03    0.10E-03    0.19E-06
   0     10    11.641   109.617    0.73E-04    0.33E-04    0.11E-06
   0     10    11.641    75.026    0.71E-04    0.32E-04    0.11E-06
   1     10    11.641    16.344    0.27E-04    0.97E-04    0.16E-06
   1     10    11.641    10.160    0.23E-04    0.77E-04    0.13E-06
 -----------------------------------------------------------------------------
|                                                                             |
|               ----> ADVICE to this user running VASP <----                  |
|                                                                             |
|     You enforced a specific xc type in the INCAR file but a different       |
|     type was found in the POTCAR file.                                      |
|     I HOPE YOU KNOW WHAT YOU ARE DOING!                                     |
|                                                                             |
 -----------------------------------------------------------------------------

  PAW_PBE Au 04Oct2007                  :
 energy of atom  1       EATOM= -926.0867
 kinetic energy error for atom=    0.0034 (will be added to EATOM!!)
 
 
 POSCAR: Au
  positions in direct lattice
  velocities in cartesian coordinates
 exchange correlation table for  LEXCH =       12
   RHO(1)=    0.500       N(1)  =     2000
   RHO(2)=  100.500       N(2)  =     4000
 


--------------------------------------------------------------------------------------------------------


 ion  position               nearest neighbor table
   1  0.460  0.346  0.543-   3 2.57   4 2.67
   2  0.531  0.526  0.447-   5 2.57   4 2.58   3 2.68   6 2.98
   3  0.469  0.474  0.553-   1 2.57   6 2.58   2 2.68   4 2.98
   4  0.522  0.398  0.437-   2 2.58   1 2.67   3 2.98
   5  0.540  0.654  0.457-   2 2.57   6 2.67
   6  0.478  0.602  0.563-   3 2.58   5 2.67   2 2.98
 
  LATTYP: Found a simple cubic cell.
 ALAT       =    20.0000000000
  
  Lattice vectors:
  
 A1 = (  20.0000000000,   0.0000000000,   0.0000000000)
 A2 = (   0.0000000000,  20.0000000000,   0.0000000000)
 A3 = (   0.0000000000,   0.0000000000,  20.0000000000)


Analysis of symmetry for initial positions (statically):
=====================================================================
 Subroutine PRICEL returns:
 Original cell was already a primitive cell.
 

 Routine SETGRP: Setting up the symmetry group for a 
 simple cubic supercell.


 Subroutine GETGRP returns: Found  1 space group operations
 (whereof  1 operations were pure point group operations)
 out of a pool of 48 trial point group operations.


The static configuration has the point symmetry C_1 .


Analysis of symmetry for dynamics (positions and initial velocities):
=====================================================================
 Subroutine PRICEL returns:
 Original cell was already a primitive cell.
 

 Routine SETGRP: Setting up the symmetry group for a 
 simple cubic supercell.


 Subroutine GETGRP returns: Found  1 space group operations
 (whereof  1 operations were pure point group operations)
 out of a pool of 48 trial point group operations.


The dynamic configuration has the point symmetry C_1 .


 Subroutine INISYM returns: Found  1 space group operations
 (whereof  1 operations are pure point group operations),
 and found     1 'primitive' translations


----------------------------------------------------------------------------------------

                                     Primitive cell                                     

  volume of cell :    8000.0000

  direct lattice vectors                    reciprocal lattice vectors
    20.000000000  0.000000000  0.000000000     0.050000000  0.000000000  0.000000000
     0.000000000 20.000000000  0.000000000     0.000000000  0.050000000  0.000000000
     0.000000000  0.000000000 20.000000000     0.000000000  0.000000000  0.050000000

  length of vectors
    20.000000000 20.000000000 20.000000000     0.050000000  0.050000000  0.050000000

  position of ions in fractional coordinates (direct lattice)
     0.459830249  0.346331357  0.543236608
     0.531154609  0.526069186  0.446679583
     0.468775333  0.473964683  0.553429260
     0.522047938  0.397856923  0.436788808
     0.540166463  0.653690539  0.456697247
     0.477957094  0.602168660  0.563178205

  ion indices of the primitive-cell ions
   primitive index   ion index
                 1           1
                 2           2
                 3           3
                 4           4
                 5           5
                 6           6

----------------------------------------------------------------------------------------

 
 
 KPOINTS: KPOINTS created by Atomic Simulation Env

Automatic generation of k-mesh.
 Grid dimensions read from file:
 generate k-points for:    1    1    1

 Generating k-lattice:

  Cartesian coordinates                     Fractional coordinates (reciprocal lattice)
     0.050000000  0.000000000  0.000000000     1.000000000  0.000000000  0.000000000
     0.000000000  0.050000000  0.000000000     0.000000000  1.000000000  0.000000000
     0.000000000  0.000000000  0.050000000     0.000000000  0.000000000  1.000000000

  Length of vectors
     0.050000000  0.050000000  0.050000000

  Shift w.r.t. Gamma in fractional coordinates (k-lattice)
     0.000000000  0.000000000  0.000000000

 
 Subroutine IBZKPT returns following result:
 ===========================================
 
 Found      1 irreducible k-points:
 
 Following reciprocal coordinates:
            Coordinates               Weight
  0.000000  0.000000  0.000000      1.000000
 
 Following cartesian coordinates:
            Coordinates               Weight
  0.000000  0.000000  0.000000      1.000000
 
 
 Subroutine IBZKPT_HF returns following result:
 ==============================================
 
 Found      1 k-points in 1st BZ
 the following      1 k-points will be used (e.g. in the exchange kernel)
 Following reciprocal coordinates:   # in IRBZ
  0.000000  0.000000  0.000000    1.00000000   1 t-inv F


--------------------------------------------------------------------------------------------------------




 Dimension of arrays:
   k-points           NKPTS =      1   k-points in BZ     NKDIM =      1   number of bands    NBANDS=     64
   number of dos      NEDOS =    301   number of ions     NIONS =      6
   non local maximal  LDIM  =      6   non local SUM 2l+1 LMDIM =     18
   total plane-waves  NPLWV = ******
   max r-space proj   IRMAX =   5885   max aug-charges    IRDMAX=  25995
   dimension x,y,z NGX =   150 NGY =  150 NGZ =  150
   dimension x,y,z NGXF=   300 NGYF=  300 NGZF=  300
   support grid    NGXF=   300 NGYF=  300 NGZF=  300
   ions per type =               6
   NGX,Y,Z   is equivalent  to a cutoff of  12.47, 12.47, 12.47 a.u.
   NGXF,Y,Z  is equivalent  to a cutoff of  24.94, 24.94, 24.94 a.u.

 SYSTEM =  MgO-rocksalt                            
 POSCAR =  Au                                      

 Startparameter for this run:
   NWRITE =      2    write-flag & timer
   PREC   = accura    normal or accurate (medium, high low for compatibility)
   ISTART =      0    job   : 0-new  1-cont  2-samecut
   ICHARG =      2    charge: 1-file 2-atom 10-const
   ISPIN  =      1    spin polarized calculation?
   LNONCOLLINEAR =      F non collinear calculations
   LSORBIT =      F    spin-orbit coupling
   INIWAV =      1    electr: 0-lowe 1-rand  2-diag
   LASPH  =      T    aspherical Exc in radial PAW
 Electronic Relaxation 1
   ENCUT  =  520.0 eV  38.22 Ry    6.18 a.u.  37.19 37.19 37.19*2*pi/ulx,y,z
   ENINI  =  520.0     initial cutoff
   ENAUG  =  356.7 eV  augmentation charge cutoff
   NELM   =    200;   NELMIN=  8; NELMDL= -5     # of ELM steps 
   EDIFF  = 0.1E-05   stopping-criterion for ELM
   LREAL  =      T    real-space projection
   NLSPLINE    = F    spline interpolate recip. space projectors
   LCOMPAT=      F    compatible to vasp.4.4
   GGA_COMPAT  = T    GGA compatible to vasp.4.4-vasp.4.6
   LMAXPAW     = -100 max onsite density
   LMAXMIX     =    2 max onsite mixed and CHGCAR
   VOSKOWN=      0    Vosko Wilk Nusair interpolation
   ROPT   =   -0.00025
 Ionic relaxation
   EDIFFG = 0.1E-04   stopping-criterion for IOM
   NSW    =      0    number of steps for IOM
   NBLOCK =      1;   KBLOCK =      1    inner block; outer block 
   IBRION =     -1    ionic relax: 0-MD 1-quasi-New 2-CG
   NFREE  =      0    steps in history (QN), initial steepest desc. (CG)
   ISIF   =      0    stress and relaxation
   IWAVPR =     10    prediction:  0-non 1-charg 2-wave 3-comb
   ISYM   =      2    0-nonsym 1-usesym 2-fastsym
   LCORR  =      T    Harris-Foulkes like correction to forces

   POTIM  = 0.5000    time-step for ionic-motion
   TEIN   =    0.0    initial temperature
   TEBEG  =    0.0;   TEEND  =   0.0 temperature during run
   SMASS  =  -3.00    Nose mass-parameter (am)
   estimated Nose-frequenzy (Omega)   =  0.10E-29 period in steps = 0.13E+47 mass=  -0.914E-26a.u.
   SCALEE = 1.0000    scale energy and forces
   NPACO  =    256;   APACO  = 10.0  distance and # of slots for P.C.
   PSTRESS=    0.0 pullay stress

  Mass of Ions in am
   POMASS = 196.97
  Ionic Valenz
   ZVAL   =  11.00
  Atomic Wigner-Seitz radii
   RWIGS  =  -1.00
  virtual crystal weights 
   VCA    =   1.00
   NELECT =      66.0000    total number of electrons
   NUPDOWN=      -1.0000    fix difference up-down

 DOS related values:
   EMIN   =  10.00;   EMAX   =-10.00  energy-range for DOS
   EFERMI =   0.00;   METHOD = LEGACY      
   ISMEAR =     0;   SIGMA  =   0.05  broadening in eV -4-tet -1-fermi 0-gaus

 Electronic relaxation 2 (details)
   IALGO  =     58    algorithm
   LDIAG  =      T    sub-space diagonalisation (order eigenvalues)
   LSUBROT=      F    optimize rotation matrix (better conditioning)
   TURBO    =      0    0=normal 1=particle mesh
   IRESTART =      0    0=no restart 2=restart with 2 vectors
   NREBOOT  =      0    no. of reboots
   NMIN     =      0    reboot dimension
   EREF     =   0.00    reference energy to select bands
   IMIX   =      4    mixing-type and parameters
     AMIX     =   0.40;   BMIX     =  1.00
     AMIX_MAG =   1.60;   BMIX_MAG =  1.00
     AMIN     =   0.10
     WC   =   100.;   INIMIX=   1;  MIXPRE=   1;  MAXMIX= -45

 Intra band minimization:
   WEIMIN = 0.0000     energy-eigenvalue tresh-hold
   EBREAK =  0.39E-08  absolut break condition
   DEPER  =   0.30     relativ break condition  

   TIME   =   0.40     timestep for ELM

  volume/ion in A,a.u.               =    1333.33      8997.78
  Fermi-wavevector in a.u.,A,eV,Ry     =   0.330795  0.625113  1.488826  0.109426
  Thomas-Fermi vector in A             =   1.226404
 
 Write flags
   LWAVE        =      F    write WAVECAR
   LDOWNSAMPLE  =      F    k-point downsampling of WAVECAR
   LCHARG       =      F    write CHGCAR
   LVTOT        =      F    write LOCPOT, total local potential
   LVHAR        =      F    write LOCPOT, Hartree potential only
   LELF         =      F    write electronic localiz. function (ELF)
   LORBIT       =      0    0 simple, 1 ext, 2 COOP (PROOUT), +10 PAW based schemes


 Dipole corrections
   LMONO  =      F    monopole corrections only (constant potential shift)
   LDIPOL =      F    correct potential (dipole corrections)
   IDIPOL =      0    1-x, 2-y, 3-z, 4-all directions 
   EPSILON=  1.0000000 bulk dielectric constant

 Exchange correlation treatment:
   GGA     =    B5    GGA type
   LEXCH   =    12    internal setting for exchange type
   LIBXC   =     F    Libxc                    
   VOSKOWN =     0    Vosko Wilk Nusair interpolation
   EXXOEP  =     0    0=HF, 1=EXX-LHF (local Hartree Fock) 2=EXX OEP
   LHFCALC =     T    Hartree Fock is set to
   LSYMGRAD=     F    symmetrize gradient (conserves proper symmetry)
   PRECFOCK=normal    Normal, Fast or Accurate (Low or Medium for compatibility)
   LRHFCALC=     F    long range Hartree Fock
   LRSCOR  =     F    long range correlation only (use DFT for short range part)
   LTHOMAS =     F    Thomas Fermi screening in HF
   LMODELHF=     F    short range full HF, long range fraction AEXX
   FOCKCORR=     1    mode to apply convergence corrections
   LFOCKACE=     T    use Adeptively-Compressed-Exchange operator
   ENCUT4O =  -1.0   cutoff for four orbital integrals eV
   LMAXFOCK=     4    L truncation for augmentation on plane wave grid
   LMAXFOCKAE=  -1    L truncation for all-electron charge restoration on plane wave grid
   NMAXFOCKAE=   1    number of basis functions for all-electron charge restoration
   LFOCKAEDFT=     F  apply the AE augmentation even for DFT
   NKREDX  =     1    reduce k-point grid by
   NKREDY  =     1    reduce k-point grid by
   NKREDZ  =     1    reduce k-point grid by
   SHIFTRED=     F    shift reduced grid of Gamma
   HFKIDENT=     F    idential grid for each k-point
   ODDONLY =     F    use only odd q-grid points
   EVENONLY=     F    use only even q-grid points
   HFALPHA =   -1.0000 decay constant for conv. correction
   MCALPHA =    0.0000 extent of test-charge in conv. correction in multipole expansion
   AEXX    =    0.2000 exact exchange contribution
   HFSCREEN=    0.0000 screening length (either q_TF or 0.3 A-1)
   HFSCREENC=   0.0000 screening length for correlation (either q_TF or 0.3 A-1)
   HFRCUT  =    0.0000 spherical cutoff for potential kernel
   ALDAX   =    0.8000 LDA exchange part
   AGGAX   =    0.7200 GGA exchange part
   ALDAC   =    0.1900 LDA correlation
   AGGAC   =    0.8100 GGA correlation
   ENCUTFOCK=  -1.0 apply spherical cutoff to Coloumb kernel
   NBANDSGWLOW=     1    first orbital included in HF term
   NBLOCK_FOCK=    64    blocking factor in FOCK_ACC

 Linear response parameters
   LEPSILON=     F    determine dielectric tensor
   LRPA    =     F    only Hartree local field effects (RPA)
   LNABLA  =     F    use nabla operator in PAW spheres
   LVEL    =     F    velocity operator in full k-point grid
   CSHIFT  =0.1000    complex shift for real part using Kramers Kronig
   OMEGAMAX=  -1.0    maximum frequency
   DEG_THRESHOLD= 0.2000000E-02 threshold for treating states as degnerate
   RTIME   =   -0.100 relaxation time in fs
  (WPLASMAI=    0.000 imaginary part of plasma frequency in eV, 0.658/RTIME)
   DFIELD  = 0.0000000 0.0000000 0.0000000 field for delta impulse in time
 
  Optional k-point grid parameters
   LKPOINTS_OPT  =     F    use optional k-point grid
   KPOINTS_OPT_MODE=     1    mode for optional k-point grid
 
 Orbital magnetization related:
   ORBITALMAG=     F  switch on orbital magnetization
   LCHIMAG   =     F  perturbation theory with respect to B field
   DQ        =  0.001000  dq finite difference perturbation B field
   LLRAUG    =     F  two centre corrections for induced B field
   LBONE     =     F  B-component reconstruction in AE one-centre
   LVGVCALC  =     T  calculate vGv susceptibility
   LVGVAPPL  =     F  apply vGv susceptibility instead of pGv for G=0

 Random number generation:
   RANDOM_GENERATOR = DEFAULT
   PCG_SEED         = not used


--------------------------------------------------------------------------------------------------------


 Static calculation
 charge density and potential will be updated during run
 non-spin polarized calculation
 Conjugate gradient for all bands (Freysoldt, et al. PRB 79, 241103 (2009))
 preconditioned conjugated gradient                                        
 perform sub-space diagonalisation
    before iterative eigenvector-optimisation
 modified Broyden-mixing scheme, WC =      100.0
 initial mixing is a Kerker type mixing with AMIX =  0.4000 and BMIX =      1.0000
 Hartree-type preconditioning will be used
 using additional bands           31
 real space projection scheme for non local part
 use partial core corrections
 no Harris-corrections to forces 
 use gradient corrections 
 use of overlap-Matrix (Vanderbilt PP)
 Gauss-broadening in eV      SIGMA  =   0.05


--------------------------------------------------------------------------------------------------------


  energy-cutoff  :      520.00
  volume of cell :     8000.00
      direct lattice vectors                 reciprocal lattice vectors
    20.000000000  0.000000000  0.000000000     0.050000000  0.000000000  0.000000000
     0.000000000 20.000000000  0.000000000     0.000000000  0.050000000  0.000000000
     0.000000000  0.000000000 20.000000000     0.000000000  0.000000000  0.050000000

  length of vectors
    20.000000000 20.000000000 20.000000000     0.050000000  0.050000000  0.050000000


 
 k-points in units of 2pi/SCALE and weight: KPOINTS created by Atomic Simulation Env
   0.00000000  0.00000000  0.00000000       1.000
 
 k-points in reciprocal lattice and weights: KPOINTS created by Atomic Simulation Env
   0.00000000  0.00000000  0.00000000       1.000
 
 position of ions in fractional coordinates (direct lattice) 
   0.45983025  0.34633136  0.54323661
   0.53115461  0.52606919  0.44667958
   0.46877533  0.47396468  0.55342926
   0.52204794  0.39785692  0.43678881
   0.54016646  0.65369054  0.45669725
   0.47795709  0.60216866  0.56317820
 
 position of ions in cartesian coordinates  (Angst):
   9.19660498  6.92662714 10.86473216
  10.62309217 10.52138372  8.93359166
   9.37550665  9.47929365 11.06858519
  10.44095876  7.95713847  8.73577616
  10.80332927 13.07381079  9.13394493
   9.55914187 12.04337319 11.26356409
 


--------------------------------------------------------------------------------------------------------


 k-point   1 :   0.0000 0.0000 0.0000  plane waves:  215503

 maximum and minimum number of plane-waves per node :    215503   215503

 maximum number of plane-waves:    215503
 maximum index in each direction: 
   IXMAX=   37   IYMAX=   37   IZMAX=   37
   IXMIN=  -37   IYMIN=  -37   IZMIN=  -37


 serial   3D FFT for wavefunctions
 parallel 3D FFT for charge:
    minimum data exchange during FFTs selected (reduces bandwidth)


 FFT grid for exact exchange (Hartree Fock) 
  NGX =112; NGY =112; NGZ =112

 
 Radii for the augmentation spheres in the non-local exchange
 for species   1 augmentation radius   1.512 (default was   1.210)
       energy cutoff for augmentation   2080.0
 Maximum index for augmentation-charges in exchange         2547
  SETUP_FOCK is finished

 total amount of memory used by VASP MPI-rank0   235891. kBytes
=======================================================================

   base      :      30000. kBytes
   nonlr-proj:       9607. kBytes
   fftplans  :      28721. kBytes
   grid      :     157056. kBytes
   one-center:         93. kBytes
   HF        :         64. kBytes
   wavefun   :      10350. kBytes
 
     INWAV:  cpu time      0.0004: real time      0.0005
 Broyden mixing: mesh for mixing (old mesh)
   NGX = 75   NGY = 75   NGZ = 75
  (NGX  =300   NGY  =300   NGZ  =300)
  gives a total of 421875 points

 initial charge density was supplied:
 charge density of overlapping atoms calculated
 number of electron      66.0000000 magnetization 
 keeping initial charge density in first step


--------------------------------------------------------------------------------------------------------


 Maximum index for non-local projection operator         5683
 Maximum index for augmentation-charges          727 (set IRDMAX)


--------------------------------------------------------------------------------------------------------


    FEWALD:  cpu time      0.0014: real time      0.0014


--------------------------------------- Ionic step        1  -------------------------------------------




--------------------------------------- Iteration      1(   1)  ---------------------------------------


    POTLOK:  cpu time      0.9489: real time      0.9565
    SETDIJ:  cpu time      0.7577: real time      0.7584
    TRIAL :  cpu time      1.3717: real time      1.4321
    CORREC:  cpu time      0.0100: real time      0.0100
    --------------------------------------------
      LOOP:  cpu time      3.0942: real time      3.1641

 eigenvalue-minimisations  :   128
 total energy-change (2. order) :-0.1587948E+05  (-0.1272641E+04)
 number of electron      66.0000000 magnetization 
 augmentation part       66.0000000 magnetization 

 Free energy of the ion-electron system (eV)
  ---------------------------------------------------
  alpha Z        PSCENC =         5.24158223
  Ewald energy   TEWEN  =      3591.89504501
  -Hartree energ DENC   =     -8913.09826954
  -exchange      EXHF   =         0.00000000
  -V(xc)+E(xc)   XCENC  =        86.65692127
  PAW double counting   =      5244.58502012   -21457.51152740
  entropy T*S    EENTRO =        -0.04305836
  eigenvalues    EBANDS =        19.74475093
  atomic energy  EATOM  =      5543.05282190
  ---------------------------------------------------
  free energy    TOTEN  =    -15879.47671384 eV

  energy without entropy =   -15879.43365548  energy(sigma->0) =   -15879.45518466
  exchange ACFDT corr.  =         0.00000000  see jH, gK, PRB 81, 115126


--------------------------------------------------------------------------------------------------------




--------------------------------------- Iteration      1(   2)  ---------------------------------------


    TRIAL :  cpu time      2.4920: real time      2.4978
    CORREC:  cpu time      0.0015: real time      0.0015
    --------------------------------------------
      LOOP:  cpu time      2.4957: real time      2.5052

 eigenvalue-minimisations  :   256
 total energy-change (2. order) :-0.5544946E+03  (-0.5544376E+03)
 number of electron      66.0000000 magnetization 
 augmentation part       66.0000000 magnetization 

 Free energy of the ion-electron system (eV)
  ---------------------------------------------------
  alpha Z        PSCENC =         5.24158223
  Ewald energy   TEWEN  =      3591.89504501
  -Hartree energ DENC   =     -8913.09826954
  -exchange      EXHF   =         0.00000000
  -V(xc)+E(xc)   XCENC  =        86.65692127
  PAW double counting   =      5244.58502012   -21457.51152740
  entropy T*S    EENTRO =        -0.00212454
  eigenvalues    EBANDS =      -534.79082124
  atomic energy  EATOM  =      5543.05282190
  ---------------------------------------------------
  free energy    TOTEN  =    -16433.97135218 eV

  energy without entropy =   -16433.96922764  energy(sigma->0) =   -16433.97028991
  exchange ACFDT corr.  =         0.00000000  see jH, gK, PRB 81, 115126


--------------------------------------------------------------------------------------------------------




--------------------------------------- Iteration      1(   3)  ---------------------------------------


    TRIAL :  cpu time      1.2745: real time      1.2761
    CORREC:  cpu time      0.0006: real time      0.0006
    --------------------------------------------
      LOOP:  cpu time      1.2771: real time      1.2822

 eigenvalue-minimisations  :   128
 total energy-change (2. order) :-0.9522768E+02  (-0.9522325E+02)
 number of electron      66.0000000 magnetization 
 augmentation part       66.0000000 magnetization 

 Free energy of the ion-electron system (eV)
  ---------------------------------------------------
  alpha Z        PSCENC =         5.24158223
  Ewald energy   TEWEN  =      3591.89504501
  -Hartree energ DENC   =     -8913.09826954
  -exchange      EXHF   =         0.00000000
  -V(xc)+E(xc)   XCENC  =        86.65692127
  PAW double counting   =      5244.58502012   -21457.51152740
  entropy T*S    EENTRO =        -0.00000000
  eigenvalues    EBANDS =      -630.02062773
  atomic energy  EATOM  =      5543.05282190
  ---------------------------------------------------
  free energy    TOTEN  =    -16529.19903413 eV

  energy without entropy =   -16529.19903413  energy(sigma->0) =   -16529.19903413
  exchange ACFDT corr.  =         0.00000000  see jH, gK, PRB 81, 115126


--------------------------------------------------------------------------------------------------------




--------------------------------------- Iteration      1(   4)  ---------------------------------------


    TRIAL :  cpu time      1.2689: real time      1.2696
    CORREC:  cpu time      0.0006: real time      0.0006
    --------------------------------------------
      LOOP:  cpu time      1.2713: real time      1.2753

 eigenvalue-minimisations  :   128
 total energy-change (2. order) :-0.1062992E+01  (-0.1062993E+01)
 number of electron      66.0000000 magnetization 
 augmentation part       66.0000000 magnetization 

 Free energy of the ion-electron system (eV)
  ---------------------------------------------------
  alpha Z        PSCENC =         5.24158223
  Ewald energy   TEWEN  =      3591.89504501
  -Hartree energ DENC   =     -8913.09826954
  -exchange      EXHF   =         0.00000000
  -V(xc)+E(xc)   XCENC  =        86.65692127
  PAW double counting   =      5244.58502012   -21457.51152740
  entropy T*S    EENTRO =        -0.00000000
  eigenvalues    EBANDS =      -631.08362005
  atomic energy  EATOM  =      5543.05282190
  ---------------------------------------------------
  free energy    TOTEN  =    -16530.26202645 eV

  energy without entropy =   -16530.26202645  energy(sigma->0) =   -16530.26202645
  exchange ACFDT corr.  =         0.00000000  see jH, gK, PRB 81, 115126


--------------------------------------------------------------------------------------------------------




--------------------------------------- Iteration      1(   5)  ---------------------------------------


    POTLOK:  cpu time      2.6354: real time      2.6377
    SETDIJ:  cpu time      2.2230: real time      2.2245
    TRIAL :  cpu time     19.2724: real time     19.3561
    CORREC:  cpu time      0.0007: real time      0.0007
    CHARGE:  cpu time      0.4815: real time      0.4817
    --------------------------------------------
      LOOP:  cpu time     24.6151: real time     24.7063

 eigenvalue-minimisations  :   192
 total energy-change (2. order) : 0.1651879E+05  (-0.5529770E+01)
 number of electron      66.0000009 magnetization 
 augmentation part       24.3987593 magnetization 

 Free energy of the ion-electron system (eV)
  ---------------------------------------------------
  alpha Z        PSCENC =         5.24158223
  Ewald energy   TEWEN  =      3591.89504501
  -Hartree energ DENC   =     -8913.09826954
  -exchange      EXHF   =       123.20489354
  -V(xc)+E(xc)   XCENC  =        66.72481340
  PAW double counting   =      5263.07303953    -5138.08981747
  entropy T*S    EENTRO =        -0.00000000
  eigenvalues    EBANDS =      -553.47171670
  atomic energy  EATOM  =      5543.05282190
  ---------------------------------------------------
  free energy    TOTEN  =       -11.46760810 eV

  energy without entropy =      -11.46760810  energy(sigma->0) =      -11.46760810
  exchange ACFDT corr.  =        -0.00000000  see jH, gK, PRB 81, 115126


--------------------------------------------------------------------------------------------------------




--------------------------------------- Iteration      1(   6)  ---------------------------------------


    POTLOK:  cpu time      3.1665: real time      3.1696
    SETDIJ:  cpu time      2.2317: real time      2.2331
    TRIAL :  cpu time     16.9114: real time     16.9832
    CORREC:  cpu time     22.3840: real time     22.5170
    CHARGE:  cpu time      0.5267: real time      0.5486
    --------------------------------------------
      LOOP:  cpu time     45.2235: real time     45.4582

 eigenvalue-minimisations  :     0
 total energy-change (2. order) : 0.1041213E+01  (-0.8042305E+00)
 number of electron      66.0000009 magnetization 
 augmentation part       24.4191673 magnetization 

 Free energy of the ion-electron system (eV)
  ---------------------------------------------------
  alpha Z        PSCENC =         5.24158223
  Ewald energy   TEWEN  =      3591.89504501
  -Hartree energ DENC   =     -8942.93038864
  -exchange      EXHF   =       118.15744581
  -V(xc)+E(xc)   XCENC  =        65.76662297
  PAW double counting   =      6363.86345878    -6247.94985302
  entropy T*S    EENTRO =        -0.00000000
  eigenvalues    EBANDS =      -507.52312984
  atomic energy  EATOM  =      5543.05282190
  ---------------------------------------------------
  free energy    TOTEN  =       -10.42639479 eV

  energy without entropy =      -10.42639479  energy(sigma->0) =      -10.42639479
  exchange ACFDT corr.  =        -0.00000000  see jH, gK, PRB 81, 115126


--------------------------------------------------------------------------------------------------------




--------------------------------------- Iteration      1(   7)  ---------------------------------------


    POTLOK:  cpu time      3.1868: real time      3.1889
    SETDIJ:  cpu time      2.2257: real time      2.2279
    TRIAL :  cpu time     16.5700: real time     16.5836
    CORREC:  cpu time     22.1327: real time     22.2733
    CHARGE:  cpu time      0.5269: real time      0.5329
    --------------------------------------------
      LOOP:  cpu time     44.6458: real time     44.8144

 eigenvalue-minimisations  :     0
 total energy-change (2. order) :-0.8050211E+00  (-0.1355873E+00)
 number of electron      66.0000009 magnetization 
 augmentation part       24.4793608 magnetization 

 Free energy of the ion-electron system (eV)
  ---------------------------------------------------
  alpha Z        PSCENC =         5.24158223
  Ewald energy   TEWEN  =      3591.89504501
  -Hartree energ DENC   =     -8893.84528961
  -exchange      EXHF   =       117.94919459
  -V(xc)+E(xc)   XCENC  =        65.52868013
  PAW double counting   =      6298.66594190    -6182.48644705
  entropy T*S    EENTRO =        -0.00000000
  eigenvalues    EBANDS =      -557.23294501
  atomic energy  EATOM  =      5543.05282190
  ---------------------------------------------------
  free energy    TOTEN  =       -11.23141591 eV

  energy without entropy =      -11.23141591  energy(sigma->0) =      -11.23141591
  exchange ACFDT corr.  =        -0.00000000  see jH, gK, PRB 81, 115126


--------------------------------------------------------------------------------------------------------




--------------------------------------- Iteration      1(   8)  ---------------------------------------


    POTLOK:  cpu time      3.2047: real time      3.2075
    SETDIJ:  cpu time      2.2282: real time      2.2296
    TRIAL :  cpu time     16.6059: real time     16.6202
    CORREC:  cpu time     22.2201: real time     22.3770
    CHARGE:  cpu time      0.5095: real time      0.5385
    --------------------------------------------
      LOOP:  cpu time     44.7712: real time     44.9797

 eigenvalue-minimisations  :     0
 total energy-change (2. order) :-0.1356942E+00  (-0.5714308E-01)
 number of electron      66.0000009 magnetization 
 augmentation part       24.4393467 magnetization 

 Free energy of the ion-electron system (eV)
  ---------------------------------------------------
  alpha Z        PSCENC =         5.24158223
  Ewald energy   TEWEN  =      3591.89504501
  -Hartree energ DENC   =     -8900.81881706
  -exchange      EXHF   =       118.10312693
  -V(xc)+E(xc)   XCENC  =        65.76835220
  PAW double counting   =      6280.15766281    -6163.91646940
  entropy T*S    EENTRO =        -0.00000000
  eigenvalues    EBANDS =      -550.85041473
  atomic energy  EATOM  =      5543.05282190
  ---------------------------------------------------
  free energy    TOTEN  =       -11.36711011 eV

  energy without entropy =      -11.36711011  energy(sigma->0) =      -11.36711011
  exchange ACFDT corr.  =        -0.00000000  see jH, gK, PRB 81, 115126


--------------------------------------------------------------------------------------------------------




--------------------------------------- Iteration      1(   9)  ---------------------------------------


    POTLOK:  cpu time      3.2067: real time      3.2095
    SETDIJ:  cpu time      2.2283: real time      2.2297
    TRIAL :  cpu time     16.3941: real time     16.4090
    CORREC:  cpu time     22.1437: real time     22.3095
    CHARGE:  cpu time      0.5280: real time      0.5201
    --------------------------------------------
      LOOP:  cpu time     44.5072: real time     44.6845

 eigenvalue-minimisations  :     0
 total energy-change (2. order) :-0.5696474E-01  (-0.1282604E-01)
 number of electron      66.0000009 magnetization 
 augmentation part       24.4419294 magnetization 

 Free energy of the ion-electron system (eV)
  ---------------------------------------------------
  alpha Z        PSCENC =         5.24158223
  Ewald energy   TEWEN  =      3591.89504501
  -Hartree energ DENC   =     -8894.14694668
  -exchange      EXHF   =       118.00268451
  -V(xc)+E(xc)   XCENC  =        65.64268580
  PAW double counting   =      6253.60137482    -6137.49168728
  entropy T*S    EENTRO =        -0.00000000
  eigenvalues    EBANDS =      -557.22163519
  atomic energy  EATOM  =      5543.05282190
  ---------------------------------------------------
  free energy    TOTEN  =       -11.42407486 eV

  energy without entropy =      -11.42407486  energy(sigma->0) =      -11.42407486
  exchange ACFDT corr.  =        -0.00000000  see jH, gK, PRB 81, 115126


--------------------------------------------------------------------------------------------------------




--------------------------------------- Iteration      1(  10)  ---------------------------------------


    POTLOK:  cpu time      3.1041: real time      3.1062
    SETDIJ:  cpu time      2.2338: real time      2.2361
    TRIAL :  cpu time     16.5985: real time     16.6121
    CORREC:  cpu time     22.0382: real time     22.2072
    CHARGE:  cpu time      0.5507: real time      0.5389
    --------------------------------------------
      LOOP:  cpu time     44.5283: real time     44.7075

 eigenvalue-minimisations  :     0
 total energy-change (2. order) :-0.1283836E-01  (-0.2992594E-02)
 number of electron      66.0000009 magnetization 
 augmentation part       24.4540506 magnetization 

 Free energy of the ion-electron system (eV)
  ---------------------------------------------------
  alpha Z        PSCENC =         5.24158223
  Ewald energy   TEWEN  =      3591.89504501
  -Hartree energ DENC   =     -8892.07293863
  -exchange      EXHF   =       117.99179650
  -V(xc)+E(xc)   XCENC  =        65.62466531
  PAW double counting   =      6246.93987254    -6130.76527277
  entropy T*S    EENTRO =        -0.00000000
  eigenvalues    EBANDS =      -559.34448531
  atomic energy  EATOM  =      5543.05282190
  ---------------------------------------------------
  free energy    TOTEN  =       -11.43691322 eV

  energy without entropy =      -11.43691322  energy(sigma->0) =      -11.43691322
  exchange ACFDT corr.  =        -0.00000000  see jH, gK, PRB 81, 115126


--------------------------------------------------------------------------------------------------------




--------------------------------------- Iteration      1(  11)  ---------------------------------------


    POTLOK:  cpu time      2.9697: real time      2.9724
    SETDIJ:  cpu time      2.2257: real time      2.2272
    TRIAL :  cpu time     16.4015: real time     16.4204
    CORREC:  cpu time     21.6947: real time     21.8726
    CHARGE:  cpu time      0.5055: real time      0.4851
    --------------------------------------------
      LOOP:  cpu time     43.8042: real time     43.9886

 eigenvalue-minimisations  :     0
 total energy-change (2. order) :-0.2984252E-02  (-0.9351193E-03)
 number of electron      66.0000009 magnetization 
 augmentation part       24.4463133 magnetization 

 Free energy of the ion-electron system (eV)
  ---------------------------------------------------
  alpha Z        PSCENC =         5.24158223
  Ewald energy   TEWEN  =      3591.89504501
  -Hartree energ DENC   =     -8893.66105456
  -exchange      EXHF   =       118.02311018
  -V(xc)+E(xc)   XCENC  =        65.66887827
  PAW double counting   =      6247.85926781    -6131.62909141
  entropy T*S    EENTRO =        -0.00000000
  eigenvalues    EBANDS =      -557.89045690
  atomic energy  EATOM  =      5543.05282190
  ---------------------------------------------------
  free energy    TOTEN  =       -11.43989747 eV

  energy without entropy =      -11.43989747  energy(sigma->0) =      -11.43989747
  exchange ACFDT corr.  =        -0.00000000  see jH, gK, PRB 81, 115126


--------------------------------------------------------------------------------------------------------




--------------------------------------- Iteration      1(  12)  ---------------------------------------


    POTLOK:  cpu time      2.8551: real time      2.8574
    SETDIJ:  cpu time      2.2193: real time      2.2216
    TRIAL :  cpu time     16.3986: real time     16.4122
    CORREC:  cpu time     21.7434: real time     21.9198
    CHARGE:  cpu time      0.4793: real time      0.4713
    --------------------------------------------
      LOOP:  cpu time     43.6988: real time     43.8889

 eigenvalue-minimisations  :     0
 total energy-change (2. order) :-0.9367073E-03  (-0.3160472E-03)
 number of electron      66.0000009 magnetization 
 augmentation part       24.4482606 magnetization 

 Free energy of the ion-electron system (eV)
  ---------------------------------------------------
  alpha Z        PSCENC =         5.24158223
  Ewald energy   TEWEN  =      3591.89504501
  -Hartree energ DENC   =     -8892.28284357
  -exchange      EXHF   =       117.99851160
  -V(xc)+E(xc)   XCENC  =        65.63565155
  PAW double counting   =      6245.19915090    -6128.97953163
  entropy T*S    EENTRO =        -0.00000000
  eigenvalues    EBANDS =      -559.20122216
  atomic energy  EATOM  =      5543.05282190
  ---------------------------------------------------
  free energy    TOTEN  =       -11.44083417 eV

  energy without entropy =      -11.44083417  energy(sigma->0) =      -11.44083417
  exchange ACFDT corr.  =        -0.00000000  see jH, gK, PRB 81, 115126


--------------------------------------------------------------------------------------------------------




--------------------------------------- Iteration      1(  13)  ---------------------------------------


    POTLOK:  cpu time      2.7681: real time      2.7704
    SETDIJ:  cpu time      2.2220: real time      2.2234
    TRIAL :  cpu time     16.4188: real time     16.4339
    CORREC:  cpu time     21.7205: real time     21.8923
    CHARGE:  cpu time      0.5999: real time      0.6007
    --------------------------------------------
      LOOP:  cpu time     43.7323: real time     43.9274

 eigenvalue-minimisations  :     0
 total energy-change (2. order) :-0.3180196E-03  (-0.8677779E-04)
 number of electron      66.0000009 magnetization 
 augmentation part       24.4488668 magnetization 

 Free energy of the ion-electron system (eV)
  ---------------------------------------------------
  alpha Z        PSCENC =         5.24158223
  Ewald energy   TEWEN  =      3591.89504501
  -Hartree energ DENC   =     -8892.64704197
  -exchange      EXHF   =       118.00539695
  -V(xc)+E(xc)   XCENC  =        65.64568072
  PAW double counting   =      6245.07936209    -6128.85521720
  entropy T*S    EENTRO =        -0.00000000
  eigenvalues    EBANDS =      -558.85878193
  atomic energy  EATOM  =      5543.05282190
  ---------------------------------------------------
  free energy    TOTEN  =       -11.44115219 eV

  energy without entropy =      -11.44115219  energy(sigma->0) =      -11.44115219
  exchange ACFDT corr.  =        -0.00000000  see jH, gK, PRB 81, 115126


--------------------------------------------------------------------------------------------------------




--------------------------------------- Iteration      1(  14)  ---------------------------------------


    POTLOK:  cpu time      2.7409: real time      2.7432
    SETDIJ:  cpu time      2.2240: real time      2.2254
    TRIAL :  cpu time     16.4908: real time     16.5106
    CORREC:  cpu time     21.5605: real time     21.6736
    CHARGE:  cpu time      0.6292: real time      0.6928
    --------------------------------------------
      LOOP:  cpu time     43.6532: real time     43.8536

 eigenvalue-minimisations  :     0
 total energy-change (2. order) :-0.8908423E-04  (-0.2169992E-04)
 number of electron      66.0000009 magnetization 
 augmentation part       24.4484596 magnetization 

 Free energy of the ion-electron system (eV)
  ---------------------------------------------------
  alpha Z        PSCENC =         5.24158223
  Ewald energy   TEWEN  =      3591.89504501
  -Hartree energ DENC   =     -8892.75580538
  -exchange      EXHF   =       118.00691886
  -V(xc)+E(xc)   XCENC  =        65.64778156
  PAW double counting   =      6244.96399375    -6128.73756493
  entropy T*S    EENTRO =        -0.00000000
  eigenvalues    EBANDS =      -558.75601428
  atomic energy  EATOM  =      5543.05282190
  ---------------------------------------------------
  free energy    TOTEN  =       -11.44124128 eV

  energy without entropy =      -11.44124128  energy(sigma->0) =      -11.44124128
  exchange ACFDT corr.  =        -0.00000000  see jH, gK, PRB 81, 115126


--------------------------------------------------------------------------------------------------------




--------------------------------------- Iteration      1(  15)  ---------------------------------------


    POTLOK:  cpu time      2.7317: real time      2.7339
    SETDIJ:  cpu time      2.2216: real time      2.2239
    TRIAL :  cpu time     16.2763: real time     16.2901
    CORREC:  cpu time     21.5280: real time     21.6481
    CHARGE:  cpu time      0.4942: real time      0.5583
    --------------------------------------------
      LOOP:  cpu time     43.2594: real time     43.4657

 eigenvalue-minimisations  :     0
 total energy-change (2. order) :-0.2054891E-04  (-0.1098562E-04)
 number of electron      66.0000009 magnetization 
 augmentation part       24.4485179 magnetization 

 Free energy of the ion-electron system (eV)
  ---------------------------------------------------
  alpha Z        PSCENC =         5.24158223
  Ewald energy   TEWEN  =      3591.89504501
  -Hartree energ DENC   =     -8892.65121049
  -exchange      EXHF   =       118.00537428
  -V(xc)+E(xc)   XCENC  =        65.64547516
  PAW double counting   =      6244.83150388    -6128.60492636
  entropy T*S    EENTRO =        -0.00000000
  eigenvalues    EBANDS =      -558.85692743
  atomic energy  EATOM  =      5543.05282190
  ---------------------------------------------------
  free energy    TOTEN  =       -11.44126183 eV

  energy without entropy =      -11.44126183  energy(sigma->0) =      -11.44126183
  exchange ACFDT corr.  =        -0.00000000  see jH, gK, PRB 81, 115126


--------------------------------------------------------------------------------------------------------




--------------------------------------- Iteration      1(  16)  ---------------------------------------


    POTLOK:  cpu time      2.7314: real time      2.7335
    SETDIJ:  cpu time      2.2307: real time      2.2330
    TRIAL :  cpu time     16.6222: real time     16.6352
    CORREC:  cpu time     21.7264: real time     21.8516
    CHARGE:  cpu time      0.4983: real time      0.5573
    --------------------------------------------
      LOOP:  cpu time     43.8129: real time     44.0182

 eigenvalue-minimisations  :     0
 total energy-change (2. order) :-0.1112351E-04  (-0.2509587E-05)
 number of electron      66.0000009 magnetization 
 augmentation part       24.4486341 magnetization 

 Free energy of the ion-electron system (eV)
  ---------------------------------------------------
  alpha Z        PSCENC =         5.24158223
  Ewald energy   TEWEN  =      3591.89504501
  -Hartree energ DENC   =     -8892.66526071
  -exchange      EXHF   =       118.00555744
  -V(xc)+E(xc)   XCENC  =        65.64575017
  PAW double counting   =      6244.89211395    -6128.66480182
  entropy T*S    EENTRO =        -0.00000000
  eigenvalues    EBANDS =      -558.84408113
  atomic energy  EATOM  =      5543.05282190
  ---------------------------------------------------
  free energy    TOTEN  =       -11.44127295 eV

  energy without entropy =      -11.44127295  energy(sigma->0) =      -11.44127295
  exchange ACFDT corr.  =        -0.00000000  see jH, gK, PRB 81, 115126


--------------------------------------------------------------------------------------------------------




--------------------------------------- Iteration      1(  17)  ---------------------------------------


    POTLOK:  cpu time      2.7356: real time      2.7378
    SETDIJ:  cpu time      2.2279: real time      2.2302
    TRIAL :  cpu time     16.4588: real time     16.4720
    CORREC:  cpu time     21.6775: real time     21.8081
    CHARGE:  cpu time      0.4948: real time      0.5475
    --------------------------------------------
      LOOP:  cpu time     43.5986: real time     43.8031

 eigenvalue-minimisations  :     0
 total energy-change (2. order) :-0.2025039E-05  (-0.1353905E-05)
 number of electron      66.0000009 magnetization 
 augmentation part       24.4486633 magnetization 

 Free energy of the ion-electron system (eV)
  ---------------------------------------------------
  alpha Z        PSCENC =         5.24158223
  Ewald energy   TEWEN  =      3591.89504501
  -Hartree energ DENC   =     -8892.69434315
  -exchange      EXHF   =       118.00596223
  -V(xc)+E(xc)   XCENC  =        65.64627137
  PAW double counting   =      6244.94468083    -6128.71711997
  entropy T*S    EENTRO =        -0.00000000
  eigenvalues    EBANDS =      -558.81617543
  atomic energy  EATOM  =      5543.05282190
  ---------------------------------------------------
  free energy    TOTEN  =       -11.44127498 eV

  energy without entropy =      -11.44127498  energy(sigma->0) =      -11.44127498
  exchange ACFDT corr.  =        -0.00000000  see jH, gK, PRB 81, 115126


--------------------------------------------------------------------------------------------------------




--------------------------------------- Iteration      1(  18)  ---------------------------------------


    POTLOK:  cpu time      2.7308: real time      2.7331
    SETDIJ:  cpu time      2.2268: real time      2.2282
    TRIAL :  cpu time     16.5523: real time     16.5665
    CORREC:  cpu time     21.7179: real time     21.8509
    CHARGE:  cpu time      0.5057: real time      0.5517
    --------------------------------------------
      LOOP:  cpu time     43.7444: real time     43.9451

 eigenvalue-minimisations  :     0
 total energy-change (2. order) :-0.8985235E-06  (-0.1513680E-05)
 number of electron      66.0000009 magnetization 
 augmentation part       24.4485838 magnetization 

 Free energy of the ion-electron system (eV)
  ---------------------------------------------------
  alpha Z        PSCENC =         5.24158223
  Ewald energy   TEWEN  =      3591.89504501
  -Hartree energ DENC   =     -8892.70481920
  -exchange      EXHF   =       118.00610261
  -V(xc)+E(xc)   XCENC  =        65.64642068
  PAW double counting   =      6244.97025577    -6128.74286345
  entropy T*S    EENTRO =        -0.00000000
  eigenvalues    EBANDS =      -558.80582142
  atomic energy  EATOM  =      5543.05282190
  ---------------------------------------------------
  free energy    TOTEN  =       -11.44127587 eV

  energy without entropy =      -11.44127587  energy(sigma->0) =      -11.44127587
  exchange ACFDT corr.  =        -0.00000000  see jH, gK, PRB 81, 115126


--------------------------------------------------------------------------------------------------------




--------------------------------------- Iteration      1(  19)  ---------------------------------------


    POTLOK:  cpu time      2.7353: real time      2.7376
    SETDIJ:  cpu time      2.2275: real time      2.2300
    TRIAL :  cpu time     16.5360: real time     16.5496
    CORREC:  cpu time     21.8959: real time     22.0613
    EDDIAG:  cpu time     16.6472: real time     16.6941
    CHARGE:  cpu time      0.5041: real time      0.5048
    --------------------------------------------
      LOOP:  cpu time     60.5531: real time     60.7846

 eigenvalue-minimisations  :     0
 total energy-change (2. order) :-0.5162474E-06  (-0.8569711E-06)
 number of electron      66.0000009 magnetization 
 augmentation part       24.4485725 magnetization 

 Free energy of the ion-electron system (eV)
  ---------------------------------------------------
  alpha Z        PSCENC =         5.24158223
  Ewald energy   TEWEN  =      3591.89504501
  -Hartree energ DENC   =     -8892.69754515
  -exchange      EXHF   =       118.00594073
  -V(xc)+E(xc)   XCENC  =        65.64643939
  PAW double counting   =      6244.99215435    -6128.76556386
  entropy T*S    EENTRO =        -0.00000000
  eigenvalues    EBANDS =      -558.81219005
  atomic energy  EATOM  =      5543.05282190
  ---------------------------------------------------
  free energy    TOTEN  =       -11.44127639 eV

  energy without entropy =      -11.44127639  energy(sigma->0) =      -11.44127639
  exchange ACFDT corr.  =        -0.00000000  see jH, gK, PRB 81, 115126


--------------------------------------------------------------------------------------------------------


  average scaling for gradient   0.9579


 average (electrostatic) potential at core
  the test charge radii are     1.2098
  (the norm of the test charge is              1.0000)
       1 -72.5380       2 -72.3738       3 -72.3722       4 -72.3903       5 -72.5364
       6 -72.3894
 
 
 
 E-fermi :  -5.1461     XC(G=0):  -0.3011     alpha+bet : -0.1781

 Fermi energy:        -5.1461044515

 k-point     1 :       0.0000    0.0000    0.0000
  band No.  band energies     occupation 
      1     -11.0989      2.00000
      2     -11.0045      2.00000
      3     -10.4415      2.00000
      4     -10.2688      2.00000
      5      -9.8830      2.00000
      6      -9.8517      2.00000
      7      -9.6234      2.00000
      8      -9.5309      2.00000
      9      -9.4113      2.00000
     10      -9.1997      2.00000
     11      -9.0356      2.00000
     12      -8.7873      2.00000
     13      -8.7107      2.00000
     14      -8.6716      2.00000
     15      -8.4365      2.00000
     16      -8.2835      2.00000
     17      -8.2379      2.00000
     18      -8.1732      2.00000
     19      -7.9503      2.00000
     20      -7.9297      2.00000
     21      -7.8390      2.00000
     22      -7.8129      2.00000
     23      -7.7866      2.00000
     24      -7.6737      2.00000
     25      -7.6152      2.00000
     26      -7.5486      2.00000
     27      -7.5329      2.00000
     28      -7.3360      2.00000
     29      -7.3229      2.00000
     30      -7.3182      2.00000
     31      -6.9908      2.00000
     32      -6.7257      2.00000
     33      -5.3758      2.00000
     34      -4.2724      0.00000
     35      -3.1023      0.00000
     36      -1.9570      0.00000
     37      -1.5952      0.00000
     38      -1.1287      0.00000
     39      -0.6934      0.00000
     40      -0.4766      0.00000
     41       0.1162      0.00000
     42       0.2152      0.00000
     43       0.2745      0.00000
     44       0.3275      0.00000
     45       0.5025      0.00000
     46       0.5271      0.00000
     47       0.5636      0.00000
     48       0.5966      0.00000
     49       0.6325      0.00000
     50       0.6475      0.00000
     51       0.7679      0.00000
     52       0.8444      0.00000
     53       0.8587      0.00000
     54       0.8815      0.00000
     55       0.8844      0.00000
     56       0.8934      0.00000
     57       0.9580      0.00000
     58       0.9694      0.00000
     59       0.9797      0.00000
     60       0.9811      0.00000
     61       1.0478      0.00000
     62       1.0882      0.00000
     63       1.1109      0.00000
     64       1.2577      0.00000


--------------------------------------------------------------------------------------------------------


 soft charge-density along one line, spin component           1
         0         1         2         3         4         5         6         7         8         9
 total charge-density along one line
 
 pseudopotential strength for first ion, spin component:           1
 -8.483   0.020   0.014   0.006   0.003  -8.640   0.020   0.014
  0.020  -8.509   0.008  -0.016  -0.000   0.020  -8.665   0.008
  0.014   0.008  -8.481   0.020  -0.059   0.014   0.008  -8.638
  0.006  -0.016   0.020  -8.442   0.023   0.006  -0.016   0.020
  0.003  -0.000  -0.059   0.023  -8.506   0.003  -0.000  -0.057
 -8.640   0.020   0.014   0.006   0.003  -8.780   0.020   0.014
  0.020  -8.665   0.008  -0.016  -0.000   0.020  -8.804   0.007
  0.014   0.008  -8.638   0.020  -0.057   0.014   0.007  -8.778
  0.006  -0.016   0.020  -8.600   0.023   0.006  -0.015   0.019
  0.003  -0.000  -0.057   0.023  -8.662   0.003  -0.000  -0.056
  0.010  -0.004  -0.004  -0.018  -0.028   0.010  -0.004  -0.004
  0.014  -0.006  -0.005  -0.025  -0.041   0.014  -0.006  -0.005
 -0.006   0.006   0.017  -0.001   0.029  -0.006   0.006   0.016
 -0.001  -0.028   0.008  -0.007   0.001  -0.001  -0.028   0.008
 -0.029  -0.001   0.004   0.007  -0.007  -0.028  -0.001   0.004
 -0.007   0.005   0.020  -0.001   0.033  -0.006   0.005   0.019
 -0.001  -0.031   0.009  -0.008   0.001  -0.001  -0.030   0.009
 -0.032  -0.001   0.004   0.007  -0.008  -0.031  -0.001   0.004
 total augmentation occupancy for first ion, spin component:           1
  2.970  -0.240  -0.003  -0.194  -0.018  -0.877   0.257   0.020   0.219   0.044  -0.517   0.185  -0.054   0.063  -0.091  -0.003
 -0.240   3.226  -0.142   0.284   0.068   0.257  -1.166   0.207  -0.336  -0.021   0.299  -0.139   0.047  -0.162   0.060   0.006
 -0.003  -0.142   2.692  -0.035   0.123   0.020   0.207  -0.752   0.142  -0.337   0.182  -0.052   0.050   0.073  -0.014   0.010
 -0.194   0.284  -0.035   2.727   0.025   0.218  -0.336   0.142  -0.685   0.039   0.847  -0.274   0.048  -0.102   0.071  -0.002
 -0.018   0.068   0.123   0.025   2.877   0.044  -0.020  -0.337   0.039  -1.034   1.342  -0.411   0.141   0.001  -0.007   0.016
 -0.877   0.257   0.020   0.218   0.044   0.785  -0.271  -0.033  -0.239  -0.064   0.454  -0.170   0.067  -0.059   0.118  -0.003
  0.257  -1.166   0.207  -0.336  -0.020  -0.271   1.103  -0.262   0.379  -0.020  -0.266   0.131  -0.046   0.187  -0.057   0.001
  0.020   0.207  -0.752   0.142  -0.337  -0.033  -0.262   0.782  -0.227   0.513  -0.166   0.045  -0.090  -0.101   0.016   0.005
  0.219  -0.336   0.142  -0.685   0.039  -0.239   0.379  -0.227   0.630  -0.091  -0.730   0.252  -0.048   0.122  -0.087   0.002
  0.044  -0.021  -0.337   0.039  -1.034  -0.064  -0.020   0.513  -0.091   1.147  -1.171   0.373  -0.214  -0.013   0.017   0.010
 -0.517   0.299   0.182   0.847   1.342   0.454  -0.266  -0.166  -0.730  -1.171   3.566  -1.076   0.341  -0.128   0.106  -0.012
  0.185  -0.139  -0.052  -0.274  -0.411  -0.170   0.131   0.045   0.252   0.373  -1.076   0.333  -0.110   0.051  -0.039   0.004
 -0.054   0.047   0.050   0.048   0.141   0.067  -0.046  -0.090  -0.048  -0.214   0.341  -0.110   0.053  -0.010   0.010  -0.003
  0.063  -0.162   0.073  -0.102   0.001  -0.059   0.187  -0.101   0.122  -0.013  -0.128   0.051  -0.010   0.048  -0.019   0.000
 -0.091   0.060  -0.014   0.071  -0.007   0.118  -0.057   0.016  -0.087   0.017   0.106  -0.039   0.010  -0.019   0.025  -0.000
 -0.003   0.006   0.010  -0.002   0.016  -0.003   0.001   0.005   0.002   0.010  -0.012   0.004  -0.003   0.000  -0.000   0.001
 -0.002  -0.029   0.005  -0.003  -0.001   0.001  -0.003   0.003  -0.003   0.001   0.004  -0.001   0.000  -0.001   0.000  -0.000
 -0.030  -0.002   0.005   0.005  -0.009  -0.001   0.002  -0.001   0.002   0.000  -0.004   0.001  -0.000   0.000  -0.001   0.000


------------------------ aborting loop because EDIFF is reached ----------------------------------------


    FORLOC:  cpu time      0.1801: real time      0.1800
    FORHF :  cpu time      6.1751: real time      6.2617
    FORNL :  cpu time      0.5397: real time      0.5866
    FORCOR:  cpu time      4.8135: real time      4.8170
    OFIELD:  cpu time      0.0011: real time      0.0011
 WARNING: Using user supplied parameters
     VDW_S8 = 1.703
     VDW_SR = 1.261
     because the xc functional is not supported. Required parameters not
     defined in the INCAR file will be replaced with PBE defaults ones.


 ---------------------------------------------------------------------------------------------

         DFTD3 V3.0 Rev 1        
 IVDW         = 11
 DF unknown   
 parameters
 VDW_S6       =    1.0000
 VDW_S8       =    1.7030
 VDW_SR       =    1.2610
 rs18     =    1.0000
 alpha6   =   14.0000
 alpha8   =   16.0000
 k1-k3    =   16.0000    1.3333   -4.0000
 VDW_RADIUS   =   50.2022 A
 VDW_CNRADIUS =   21.1671 A
 Edisp (eV)   -0.49934

 E6    (eV) :    -0.0453
 E8    (eV) :    -0.4540
 % E8        : 90.92
    FORVDW:  cpu time      0.0370: real time      0.0376

 VOLUME and BASIS-vectors are now :
 -----------------------------------------------------------------------------
  energy-cutoff  :      520.00
  volume of cell :     8000.00
      direct lattice vectors                 reciprocal lattice vectors
    20.000000000  0.000000000  0.000000000     0.050000000  0.000000000  0.000000000
     0.000000000 20.000000000  0.000000000     0.000000000  0.050000000  0.000000000
     0.000000000  0.000000000 20.000000000     0.000000000  0.000000000  0.050000000

  length of vectors
    20.000000000 20.000000000 20.000000000     0.050000000  0.050000000  0.050000000


 FORCES acting on ions:
    Electron-Ion                     Ewald-Force                    Non-Local-Force
 -----------------------------------------------------------------------------------------------
   0.175E+03 0.524E+03 -.218E+03   -.174E+03 -.518E+03 0.217E+03   -.175E+01 -.645E+01 0.193E+01
   -.209E+03 -.659E+02 0.381E+03   0.210E+03 0.659E+02 -.383E+03   -.400E+00 0.308E-01 0.752E+00
   0.210E+03 0.662E+02 -.381E+03   -.210E+03 -.663E+02 0.383E+03   0.394E+00 -.466E-01 -.746E+00
   -.172E+03 0.384E+03 0.406E+03   0.171E+03 -.381E+03 -.404E+03   0.984E+00 -.365E+01 -.263E+01
   -.175E+03 -.524E+03 0.219E+03   0.174E+03 0.518E+03 -.217E+03   0.175E+01 0.645E+01 -.193E+01
   0.172E+03 -.384E+03 -.406E+03   -.171E+03 0.381E+03 0.404E+03   -.979E+00 0.367E+01 0.263E+01
 -----------------------------------------------------------------------------------------------
   0.260E-02 0.958E-03 -.377E-02   0.853E-13 0.114E-12 0.000E+00   -.279E-02 -.166E-03 0.227E-02
 
 
 POSITION                                       TOTAL-FORCE (eV/Angst)
 -----------------------------------------------------------------------------------
      9.19660      6.92663     10.86473        -0.168694     -0.453871      0.222876
     10.62309     10.52138      8.93359         0.295356     -0.048001     -0.571374
      9.37551      9.47929     11.06859        -0.297426      0.041355      0.572356
     10.44096      7.95714      8.73578         0.256629     -0.415304     -0.572910
     10.80333     13.07381      9.13394         0.169914      0.457573     -0.224920
      9.55914     12.04337     11.26356        -0.255778      0.418247      0.573972
 -----------------------------------------------------------------------------------
    total drift:                               -0.000357      0.000220     -0.001033


--------------------------------------------------------------------------------------------------------



  FREE ENERGIE OF THE ION-ELECTRON SYSTEM (eV)
  ---------------------------------------------------
  free  energy   TOTEN  =       -11.94061578 eV

  energy  without entropy=      -11.94061578  energy(sigma->0) =      -11.94061578
 


--------------------------------------------------------------------------------------------------------


    POTLOK:  cpu time      4.9554: real time      4.9595


--------------------------------------------------------------------------------------------------------


     LOOP+:  cpu time    683.0966: real time    686.2085
    4ORBIT:  cpu time      0.0000: real time      0.0000

 total amount of memory used by VASP MPI-rank0  3555700. kBytes
=======================================================================

   base      :      30000. kBytes
   nonlr-proj:      10411. kBytes
   fftplans  :      28721. kBytes
   grid      :     157056. kBytes
   one-center:         93. kBytes
   HF        :         64. kBytes
   wavefun   :      10350. kBytes
   fock_wrk  :    3319005. kBytes
 
  
  
 General timing and accounting informations for this job:
 ========================================================
  
                  Total CPU time used (sec):      698.226
                            User time (sec):      628.984
                          System time (sec):       69.242
                         Elapsed time (sec):      702.256
  
                   Maximum memory used (kb):     5558200.
                   Average memory used (kb):          N/A
  
                          Minor page faults:      1144716
                          Major page faults:            0
                 Voluntary context switches:         8474
