 vasp.6.4.0 14Feb23 (build Jul 14 2023 13:46:40) complex                        
  
 executed on             LinuxIFC date 2023.07.30  04:37:52
 running  512 mpi-ranks, with    1 threads/rank, on   32 nodes
 distrk:  each k-point on  512 cores,    1 groups
 distr:  one band on NCORE=  16 cores,   32 groups


--------------------------------------------------------------------------------------------------------


 INCAR:
   SYSTEM = MgO-rocksalt
   ISMEAR = 0
   SIGMA = 0.05
   EDIFF = 1E-6
   ALGO = ALL
   ISTART = 0
   IBRION = -1
   NSW = 0
   ISYM = 2
   DIPOL = 0.5 0.5 0.5
   IDIPOL = 3
   LDIPOL = .TRUE.
   METAGGA = TPSS
   ENCUT = 520
   PREC = Accurate
   LASPH = .TRUE.
   LREAL = Auto
   ISPIN = 1
   NELM = 200
   NELMIN = 8
   NCORE = 16
   KPAR = 1
   LWAVE = .FALSE.
   LCHARG = .FALSE.

 POTCAR:    PAW_PBE Ag 02Apr2005                  
 POTCAR:    PAW_PBE Mg_pv 13Apr2007               
 POTCAR:    PAW_PBE O 08Apr2002                   
 POTCAR:    PAW_PBE Ag 02Apr2005                  
   SHA256 =  6550cfa3543261e132c169e1b98a529204624d72be14e2da2e0242bcb74a174d Ag/POTCAR             
   COPYR  = (c) Copyright 02Apr2005 Georg Kresse                                                    
   COPYR  = This file is part of the software VASP. Any use, copying, and all other rights are regul
   COPYR  = If you do not have a valid VASP license, you may not use, copy or distribute this file. 
   VRHFIN =Ag : s1 d10                                                                              
   LEXCH  = PE                                                                                      
   EATOM  =  1037.2675 eV,   76.2370 Ry                                                             
                                                                                                    
   TITEL  = PAW_PBE Ag 02Apr2005                                                                    
   LULTRA =        F    use ultrasoft PP ?                                                          
   IUNSCR =        1    unscreen: 0-lin 1-nonlin 2-no                                               
   RPACOR =    2.000    partial core radius                                                         
   POMASS =  107.868; ZVAL   =   11.000    mass and valenz                                          
   RCORE  =    2.500    outmost cutoff radius                                                       
   RWIGS  =    2.840; RWIGS  =    1.503    wigner-seitz radius (au A)                               
   ENMAX  =  249.844; ENMIN  =  187.383 eV                                                          
   ICORE  =        3    local potential                                                             
   LCOR   =        T    correct aug charges                                                         
   LPAW   =        T    paw PP                                                                      
   EAUG   =  412.496                                                                                
   DEXC   =    0.000                                                                                
   RMAX   =    2.560    core radius for proj-oper                                                   
   RAUG   =    1.300    factor for augmentation sphere                                              
   RDEP   =    2.576    radius for radial grids                                                     
   RDEPT  =    2.072    core radius for aug-charge                                                  
                                                                                                    
   Atomic configuration                                                                             
   12 entries                                                                                       
     n  l   j            E        occ.                                                              
     1  0  0.50    -25324.9161   2.0000                                                             
     2  0  0.50     -3728.5341   2.0000                                                             
     2  1  1.50     -3344.0404   6.0000                                                             
     3  0  0.50      -683.5581   2.0000                                                             
     3  1  1.50      -557.3225   6.0000                                                             
     3  2  2.50      -358.3853  10.0000                                                             
     4  0  0.50       -95.0341   2.0000                                                             
     4  1  1.50       -58.5511   6.0000                                                             
     4  2  2.50        -7.4440  10.0000                                                             
     5  0  0.50        -4.4045   1.0000                                                             
     5  1  0.50        -1.3606   0.0000                                                             
     4  3  2.50        -1.3606   0.0000                                                             
   Description                                                                                      
     l       E           TYP  RCUT    TYP  RCUT                                                     
     2     -7.4439781     23  2.400                                                                 
     2     -8.8045607     23  2.400                                                                 
     0     -4.4044681     23  2.400                                                                 
     0      1.9520038     23  2.400                                                                 
     1     -1.3605826     23  2.500                                                                 
     1     27.2116520     23  2.500                                                                 
     3     -4.0817478     23  2.400                                                                 
  local pseudopotential read in
  partial core-charges read in
  partial kinetic energy density read in
  atomic valenz-charges read in
  non local Contribution for L=           2  read in
    real space projection operators read in
  non local Contribution for L=           2  read in
    real space projection operators read in
  non local Contribution for L=           0  read in
    real space projection operators read in
  non local Contribution for L=           0  read in
    real space projection operators read in
  non local Contribution for L=           1  read in
    real space projection operators read in
  non local Contribution for L=           1  read in
    real space projection operators read in
    PAW grid and wavefunctions read in
 
   number of l-projection  operators is LMAX  =           6
   number of lm-projection operators is LMMAX =          18
 
 POTCAR:    PAW_PBE Mg_pv 13Apr2007               
   SHA256 =  f474ac0dd33840b9ae76c01d57fea79fdf77cdfbb07d5ade72c65f83c709b62b Mg_pv/POTCAR          
   COPYR  = (c) Copyright 13Apr2007 Georg Kresse                                                    
   COPYR  = This file is part of the software VASP. Any use, copying, and all other rights are regul
   COPYR  = If you do not have a valid VASP license, you may not use, copy or distribute this file. 
   VRHFIN =Mg: p6s2                                                                                 
   LEXCH  = PE                                                                                      
   EATOM  =  1056.7344 eV,   77.6678 Ry                                                             
                                                                                                    
   TITEL  = PAW_PBE Mg_pv 13Apr2007                                                                 
   LULTRA =        F    use ultrasoft PP ?                                                          
   IUNSCR =        1    unscreen: 0-lin 1-nonlin 2-no                                               
   RPACOR =    1.500    partial core radius                                                         
   POMASS =   24.305; ZVAL   =    8.000    mass and valenz                                          
   RCORE  =    2.000    outmost cutoff radius                                                       
   RWIGS  =    2.000; RWIGS  =    1.058    wigner-seitz radius (au A)                               
   ENMAX  =  403.929; ENMIN  =  302.947 eV                                                          
   RCLOC  =    1.506    cutoff for local pot                                                        
   LCOR   =        T    correct aug charges                                                         
   LPAW   =        T    paw PP                                                                      
   EAUG   =  758.780                                                                                
   DEXC   =    0.000                                                                                
   RMAX   =    2.045    core radius for proj-oper                                                   
   RAUG   =    1.300    factor for augmentation sphere                                              
   RDEP   =    2.025    radius for radial grids                                                     
   RDEPT  =    1.557    core radius for aug-charge                                                  
                                                                                                    
   Atomic configuration                                                                             
    5 entries                                                                                       
     n  l   j            E        occ.                                                              
     1  0  0.50     -1259.6230   2.0000                                                             
     2  0  0.50       -79.8442   2.0000                                                             
     2  1  1.50       -46.6121   6.0000                                                             
     3  0  0.50        -4.7055   2.0000                                                             
     3  2  1.50        -1.3606   0.0000                                                             
   Description                                                                                      
     l       E           TYP  RCUT    TYP  RCUT                                                     
     1    -46.6121073     23  1.600                                                                 
     1      2.7211652     23  1.600                                                                 
     0     -4.7054661     23  2.000                                                                 
     0     61.2262170     23  2.000                                                                 
     2     -1.3605826     23  2.000                                                                 
  local pseudopotential read in
  partial core-charges read in
  partial kinetic energy density read in
  atomic valenz-charges read in
  non local Contribution for L=           1  read in
    real space projection operators read in
  non local Contribution for L=           1  read in
    real space projection operators read in
  non local Contribution for L=           0  read in
    real space projection operators read in
  non local Contribution for L=           0  read in
    real space projection operators read in
  non local Contribution for L=           2  read in
    real space projection operators read in
    PAW grid and wavefunctions read in
 
   number of l-projection  operators is LMAX  =           5
   number of lm-projection operators is LMMAX =          13
 
 POTCAR:    PAW_PBE O 08Apr2002                   
   SHA256 =  818f92134a0a090dccd8ba1447fa70422a3b330e708bb4f08108d8ae51209ddf O/POTCAR              
   COPYR  = (c) Copyright 08Apr2002 Georg Kresse                                                    
   COPYR  = This file is part of the software VASP. Any use, copying, and all other rights are regul
   COPYR  = If you do not have a valid VASP license, you may not use, copy or distribute this file. 
   VRHFIN =O: s2p4                                                                                  
   LEXCH  = PE                                                                                      
   EATOM  =   432.3788 eV,   31.7789 Ry                                                             
                                                                                                    
   TITEL  = PAW_PBE O 08Apr2002                                                                     
   LULTRA =        F    use ultrasoft PP ?                                                          
   IUNSCR =        1    unscreen: 0-lin 1-nonlin 2-no                                               
   RPACOR =    1.200    partial core radius                                                         
   POMASS =   16.000; ZVAL   =    6.000    mass and valenz                                          
   RCORE  =    1.520    outmost cutoff radius                                                       
   RWIGS  =    1.550; RWIGS  =    0.820    wigner-seitz radius (au A)                               
   ENMAX  =  400.000; ENMIN  =  300.000 eV                                                          
   ICORE  =        2    local potential                                                             
   LCOR   =        T    correct aug charges                                                         
   LPAW   =        T    paw PP                                                                      
   EAUG   =  605.392                                                                                
   DEXC   =    0.000                                                                                
   RMAX   =    1.553    core radius for proj-oper                                                   
   RAUG   =    1.300    factor for augmentation sphere                                              
   RDEP   =    1.550    radius for radial grids                                                     
   RDEPT  =    1.329    core radius for aug-charge                                                  
                                                                                                    
   Atomic configuration                                                                             
    4 entries                                                                                       
     n  l   j            E        occ.                                                              
     1  0  0.50      -514.6923   2.0000                                                             
     2  0  0.50       -23.9615   2.0000                                                             
     2  1  0.50        -9.0305   4.0000                                                             
     3  2  1.50        -9.5241   0.0000                                                             
   Description                                                                                      
     l       E           TYP  RCUT    TYP  RCUT                                                     
     0    -23.9615318     23  1.200                                                                 
     0     -9.5240782     23  1.200                                                                 
     1     -9.0304911     23  1.520                                                                 
     1      8.1634956     23  1.520                                                                 
     2     -9.5240782      7  1.500                                                                 
  local pseudopotential read in
  partial core-charges read in
  partial kinetic energy density read in
  kinetic energy density of atom read in
  atomic valenz-charges read in
  non local Contribution for L=           0  read in
    real space projection operators read in
  non local Contribution for L=           0  read in
    real space projection operators read in
  non local Contribution for L=           1  read in
    real space projection operators read in
  non local Contribution for L=           1  read in
    real space projection operators read in
    PAW grid and wavefunctions read in
 
   number of l-projection  operators is LMAX  =           4
   number of lm-projection operators is LMMAX =           8
 
 Optimization of the real space projectors (new method)

 maximal supplied QI-value         = 15.12
 optimisation between [QCUT,QGAM] = [ 11.64, 23.28] = [ 37.95,151.78] Ry 
 Optimized for a Real-space Cutoff    1.45 Angstroem

   l    n(q)    QCUT    max X(q) W(low)/X(q) W(high)/X(q)  e(spline) 
   2      9    11.641    53.897    0.22E-03    0.42E-04    0.28E-06
   2      9    11.641    52.416    0.23E-03    0.44E-04    0.29E-06
   0     10    11.641   122.045    0.51E-04    0.25E-04    0.16E-06
   0     10    11.641    73.629    0.49E-04    0.24E-04    0.16E-06
   1     10    11.641    15.255    0.99E-04    0.55E-04    0.11E-06
   1     10    11.641     9.562    0.81E-04    0.47E-04    0.95E-07
 Optimization of the real space projectors (new method)

 maximal supplied QI-value         = 18.90
 optimisation between [QCUT,QGAM] = [ 11.53, 23.24] = [ 37.21,151.29] Ry 
 Optimized for a Real-space Cutoff    1.28 Angstroem

   l    n(q)    QCUT    max X(q) W(low)/X(q) W(high)/X(q)  e(spline) 
   1      8    11.527     2.974    0.44E-04    0.56E-04    0.12E-06
   1      8    11.527     4.279    0.12E-03    0.12E-03    0.26E-06
   0      9    11.527    16.381    0.46E-04    0.64E-04    0.78E-07
   0      9    11.527     5.611    0.26E-04    0.43E-04    0.55E-07
   2      8    11.527     4.652    0.22E-03    0.72E-04    0.47E-07
 Optimization of the real space projectors (new method)

 maximal supplied QI-value         = 24.76
 optimisation between [QCUT,QGAM] = [ 11.64, 23.27] = [ 37.91,151.63] Ry 
 Optimized for a Real-space Cutoff    1.14 Angstroem

   l    n(q)    QCUT    max X(q) W(low)/X(q) W(high)/X(q)  e(spline) 
   0      8    11.635    20.381    0.10E-03    0.33E-03    0.24E-06
   0      8    11.635    15.268    0.11E-03    0.35E-03    0.26E-06
   1      7    11.635     5.964    0.24E-03    0.31E-03    0.30E-06
   1      7    11.635     5.382    0.22E-03    0.25E-03    0.26E-06
  PAW_PBE Ag 02Apr2005                  :
 energy of atom  1       EATOM=-1037.2675
 kinetic energy error for atom=    0.0047 (will be added to EATOM!!)
  PAW_PBE Mg_pv 13Apr2007               :
 energy of atom  2       EATOM=-1056.7344
 kinetic energy error for atom=    0.0340 (will be added to EATOM!!)
  PAW_PBE O 08Apr2002                   :
 energy of atom  3       EATOM= -432.3788
 kinetic energy error for atom=    0.0208 (will be added to EATOM!!)
 
 
 POSCAR: Ag Mg  O
  positions in direct lattice
  No initial velocities read in

 METAGGA = TPSS                                        LMAXTAU =  6    LMIXTAU =  F

 exchange correlation table for  LEXCH =        8
   RHO(1)=    0.500       N(1)  =     2000
   RHO(2)=  100.500       N(2)  =     4000
 


--------------------------------------------------------------------------------------------------------


 ion  position               nearest neighbor table
   1  0.543  0.557  0.623-   2 2.59  58 2.97
   2  0.457  0.643  0.623-   1 2.59  58 2.97
   3  0.000  0.000  0.407- 105 2.11 106 2.11 121 2.11 186 2.11 103 2.11
   4  0.100  0.100  0.407- 105 2.11 106 2.11 110 2.11 125 2.11 104 2.11
   5  0.000  0.100  0.503- 103 2.11 104 2.11 107 2.11 184 2.11 105 2.11
   6  0.100  0.000  0.503- 103 2.11 104 2.11 120 2.11 123 2.11 106 2.11
   7  0.000  0.200  0.407- 109 2.11 105 2.11 110 2.11 190 2.11 107 2.11
   8  0.100  0.300  0.407- 110 2.11 109 2.11 114 2.11 129 2.11 108 2.11
   9  0.000  0.300  0.503- 107 2.11 108 2.11 111 2.11 188 2.11 109 2.11
  10  0.100  0.200  0.503- 108 2.11 107 2.11 104 2.11 127 2.11 110 2.11
  11  0.000  0.400  0.407- 109 2.11 113 2.11 114 2.11 194 2.11 111 2.11
  12  0.100  0.500  0.407- 113 2.11 114 2.11 118 2.11 133 2.11 112 2.11
  13  0.000  0.500  0.503- 111 2.11 112 2.11 115 2.11 192 2.11 113 2.11
  14  0.100  0.400  0.503- 108 2.11 111 2.11 112 2.11 131 2.11 114 2.11
  15  0.000  0.600  0.407- 113 2.11 117 2.11 118 2.11 198 2.11 115 2.11
  16  0.100  0.700  0.407- 122 2.11 118 2.11 117 2.11 137 2.11 116 2.11
  17  0.000  0.700  0.503- 119 2.11 116 2.11 115 2.11 196 2.11 117 2.11
  18  0.100  0.600  0.503- 112 2.11 115 2.11 116 2.11 135 2.11 118 2.11
  19  0.000  0.800  0.407- 117 2.11 121 2.11 122 2.11 202 2.11 119 2.11
  20  0.100  0.900  0.407- 106 2.11 121 2.11 122 2.11 141 2.11 120 2.11
  21  0.000  0.900  0.503- 103 2.11 119 2.11 120 2.11 200 2.11 121 2.11
  22  0.100  0.800  0.503- 116 2.11 119 2.11 120 2.11 139 2.11 122 2.11
  23  0.200  0.000  0.407- 126 2.11 125 2.11 106 2.11 141 2.11 123 2.11
  24  0.300  0.100  0.407- 125 2.11 126 2.11 130 2.11 145 2.11 124 2.11
  25  0.200  0.100  0.503- 124 2.11 123 2.11 104 2.11 127 2.11 125 2.11
  26  0.300  0.000  0.503- 123 2.11 124 2.11 140 2.11 143 2.11 126 2.11
  27  0.200  0.200  0.407- 129 2.11 130 2.11 110 2.11 125 2.11 127 2.11
  28  0.300  0.300  0.407- 129 2.11 130 2.11 134 2.11 149 2.11 128 2.11
  29  0.200  0.300  0.503- 127 2.11 128 2.11 108 2.11 131 2.11 129 2.11
  30  0.300  0.200  0.503- 127 2.11 128 2.11 124 2.11 147 2.11 130 2.11
  31  0.200  0.400  0.407- 134 2.11 129 2.11 133 2.11 114 2.11 131 2.11
  32  0.300  0.500  0.407- 133 2.11 134 2.11 138 2.11 153 2.11 132 2.11
  33  0.200  0.500  0.503- 132 2.11 131 2.11 112 2.11 135 2.11 133 2.11
  34  0.300  0.400  0.503- 131 2.11 128 2.11 132 2.11 151 2.11 134 2.11
  35  0.200  0.600  0.407- 138 2.11 133 2.11 137 2.11 118 2.11 135 2.11
  36  0.300  0.700  0.407- 137 2.11 142 2.11 138 2.11 157 2.11 136 2.11
  37  0.200  0.700  0.503- 136 2.11 139 2.11 116 2.11 135 2.11 137 2.11
  38  0.300  0.600  0.503- 135 2.11 132 2.11 136 2.11 155 2.11 138 2.11
  39  0.200  0.800  0.407- 137 2.11 142 2.11 141 2.11 122 2.11 139 2.11
  40  0.300  0.900  0.407- 141 2.11 126 2.11 142 2.11 161 2.11 140 2.11
  41  0.200  0.900  0.503- 140 2.11 123 2.11 139 2.11 120 2.11 141 2.11
  42  0.300  0.800  0.503- 136 2.11 139 2.11 140 2.11 159 2.11 142 2.11
  43  0.400  0.000  0.407- 126 2.11 145 2.11 146 2.11 161 2.11 143 2.11
  44  0.500  0.100  0.407- 145 2.11 146 2.11 150 2.11 165 2.11 144 2.11
  45  0.400  0.100  0.503- 124 2.11 143 2.11 144 2.11 147 2.11 145 2.11
  46  0.500  0.000  0.503- 143 2.11 144 2.11 160 2.11 163 2.11 146 2.11
  47  0.400  0.200  0.407- 149 2.11 145 2.11 130 2.11 150 2.11 147 2.11
  48  0.500  0.300  0.407- 150 2.11 149 2.11 154 2.11 169 2.11 148 2.11
  49  0.400  0.300  0.503- 147 2.11 128 2.11 148 2.11 151 2.11 149 2.11
  50  0.500  0.200  0.503- 148 2.11 147 2.11 144 2.11 167 2.11 150 2.11
  51  0.400  0.400  0.407- 134 2.11 149 2.11 153 2.11 154 2.11 151 2.11
  52  0.500  0.500  0.407- 153 2.11 154 2.11 158 2.11 173 2.11 152 2.11
  53  0.400  0.500  0.503- 132 2.11 151 2.11 152 2.11 155 2.11 153 2.11
  54  0.500  0.400  0.503- 148 2.11 151 2.11 152 2.11 171 2.11 154 2.11
  55  0.400  0.600  0.407- 138 2.11 153 2.11 157 2.11 158 2.11 155 2.11
  56  0.500  0.700  0.407- 162 2.11 158 2.11 157 2.11 177 2.11 156 2.11
  57  0.400  0.700  0.503- 159 2.11 155 2.11 156 2.11 136 2.11 157 2.11
  58  0.500  0.600  0.503- 152 2.11 155 2.11 156 2.11 175 2.11 158 2.11   2 2.97   1 2.97
  59  0.400  0.800  0.407- 157 2.11 142 2.11 161 2.11 162 2.11 159 2.11
  60  0.500  0.900  0.407- 146 2.11 161 2.11 162 2.11 181 2.11 160 2.11
  61  0.400  0.900  0.503- 140 2.11 143 2.11 159 2.11 160 2.11 161 2.11
  62  0.500  0.800  0.503- 156 2.11 159 2.11 160 2.11 179 2.11 162 2.11
  63  0.600  0.000  0.407- 146 2.11 165 2.11 166 2.11 181 2.11 163 2.11
  64  0.700  0.100  0.407- 185 2.11 166 2.11 170 2.11 165 2.11 164 2.11
  65  0.600  0.100  0.503- 144 2.11 163 2.11 164 2.11 167 2.11 165 2.11
  66  0.700  0.000  0.503- 183 2.11 164 2.11 180 2.11 163 2.11 166 2.11
  67  0.600  0.200  0.407- 169 2.11 165 2.11 150 2.11 170 2.11 167 2.11
  68  0.700  0.300  0.407- 170 2.11 189 2.11 174 2.11 169 2.11 168 2.11
  69  0.600  0.300  0.503- 167 2.11 148 2.11 168 2.11 171 2.11 169 2.11
  70  0.700  0.200  0.503- 168 2.11 187 2.11 164 2.11 167 2.11 170 2.11
  71  0.600  0.400  0.407- 154 2.11 169 2.11 173 2.11 174 2.11 171 2.11
  72  0.700  0.500  0.407- 193 2.11 174 2.11 178 2.11 173 2.11 172 2.11
  73  0.600  0.500  0.503- 152 2.11 171 2.11 172 2.11 175 2.11 173 2.11
  74  0.700  0.400  0.503- 191 2.11 171 2.11 172 2.11 168 2.11 174 2.11
  75  0.600  0.600  0.407- 158 2.11 173 2.11 177 2.11 178 2.11 175 2.11
  76  0.700  0.700  0.407- 182 2.11 197 2.11 177 2.11 178 2.11 176 2.11
  77  0.600  0.700  0.503- 179 2.11 175 2.11 176 2.11 156 2.11 177 2.11
  78  0.700  0.600  0.503- 195 2.11 175 2.11 176 2.11 172 2.11 178 2.11
  79  0.600  0.800  0.407- 177 2.11 162 2.11 181 2.11 182 2.11 179 2.11
  80  0.700  0.900  0.407- 201 2.11 181 2.11 182 2.11 166 2.11 180 2.11
  81  0.600  0.900  0.503- 160 2.11 163 2.11 179 2.11 180 2.11 181 2.11
  82  0.700  0.800  0.503- 176 2.11 199 2.11 180 2.11 179 2.11 182 2.11
  83  0.800  0.000  0.407- 166 2.11 185 2.11 186 2.11 201 2.11 183 2.11
  84  0.900  0.100  0.407- 105 2.11 185 2.11 186 2.11 190 2.11 184 2.11
  85  0.800  0.100  0.503- 164 2.11 183 2.11 184 2.11 187 2.11 185 2.11
  86  0.900  0.000  0.503- 103 2.11 183 2.11 184 2.11 200 2.11 186 2.11
  87  0.800  0.200  0.407- 170 2.11 189 2.11 185 2.11 190 2.11 187 2.11
  88  0.900  0.300  0.407- 190 2.11 189 2.11 109 2.11 194 2.11 188 2.11
  89  0.800  0.300  0.503- 168 2.11 187 2.11 188 2.11 191 2.11 189 2.11
  90  0.900  0.200  0.503- 188 2.11 184 2.11 187 2.11 107 2.11 190 2.11
  91  0.800  0.400  0.407- 174 2.11 189 2.11 193 2.11 194 2.11 191 2.11
  92  0.900  0.500  0.407- 113 2.11 193 2.11 194 2.11 198 2.11 192 2.11
  93  0.800  0.500  0.503- 172 2.11 191 2.11 192 2.11 195 2.11 193 2.11
  94  0.900  0.400  0.503- 111 2.11 188 2.11 191 2.11 192 2.11 194 2.11
  95  0.800  0.600  0.407- 178 2.11 193 2.11 197 2.11 198 2.11 195 2.11
  96  0.900  0.700  0.407- 202 2.11 197 2.11 198 2.11 117 2.11 196 2.11
  97  0.800  0.700  0.503- 176 2.11 199 2.11 196 2.11 195 2.11 197 2.11
  98  0.900  0.600  0.503- 115 2.11 192 2.11 195 2.11 196 2.11 198 2.11
  99  0.800  0.800  0.407- 182 2.11 197 2.11 201 2.11 202 2.11 199 2.11
 100  0.900  0.900  0.407- 121 2.11 186 2.11 201 2.11 202 2.11 200 2.11
 101  0.800  0.900  0.503- 180 2.11 183 2.11 199 2.11 200 2.11 201 2.11
 102  0.900  0.800  0.503- 196 2.11 119 2.11 199 2.11 200 2.11 202 2.11
 103  0.000  0.000  0.503-   5 2.11   6 2.11  21 2.11  86 2.11   3 2.11
 104  0.100  0.100  0.503-   5 2.11   6 2.11  10 2.11  25 2.11   4 2.11
 105  0.000  0.100  0.407-   3 2.11   4 2.11   7 2.11  84 2.11   5 2.11
 106  0.100  0.000  0.407-   3 2.11   4 2.11  20 2.11  23 2.11   6 2.11
 107  0.000  0.200  0.503-   9 2.11   5 2.11  10 2.11  90 2.11   7 2.11
 108  0.100  0.300  0.503-  10 2.11   9 2.11  14 2.11  29 2.11   8 2.11
 109  0.000  0.300  0.407-   7 2.11   8 2.11  11 2.11  88 2.11   9 2.11
 110  0.100  0.200  0.407-   8 2.11   7 2.11   4 2.11  27 2.11  10 2.11
 111  0.000  0.400  0.503-   9 2.11  13 2.11  14 2.11  94 2.11  11 2.11
 112  0.100  0.500  0.503-  13 2.11  14 2.11  18 2.11  33 2.11  12 2.11
 113  0.000  0.500  0.407-  11 2.11  12 2.11  15 2.11  92 2.11  13 2.11
 114  0.100  0.400  0.407-   8 2.11  11 2.11  12 2.11  31 2.11  14 2.11
 115  0.000  0.600  0.503-  13 2.11  17 2.11  18 2.11  98 2.11  15 2.11
 116  0.100  0.700  0.503-  22 2.11  18 2.11  17 2.11  37 2.11  16 2.11
 117  0.000  0.700  0.407-  19 2.11  16 2.11  15 2.11  96 2.11  17 2.11
 118  0.100  0.600  0.407-  12 2.11  15 2.11  16 2.11  35 2.11  18 2.11
 119  0.000  0.800  0.503-  17 2.11  21 2.11  22 2.11 102 2.11  19 2.11
 120  0.100  0.900  0.503-   6 2.11  21 2.11  22 2.11  41 2.11  20 2.11
 121  0.000  0.900  0.407-   3 2.11  19 2.11  20 2.11 100 2.11  21 2.11
 122  0.100  0.800  0.407-  16 2.11  19 2.11  20 2.11  39 2.11  22 2.11
 123  0.200  0.000  0.503-  26 2.11  25 2.11   6 2.11  41 2.11  23 2.11
 124  0.300  0.100  0.503-  25 2.11  26 2.11  30 2.11  45 2.11  24 2.11
 125  0.200  0.100  0.407-  24 2.11  23 2.11   4 2.11  27 2.11  25 2.11
 126  0.300  0.000  0.407-  23 2.11  24 2.11  40 2.11  43 2.11  26 2.11
 127  0.200  0.200  0.503-  29 2.11  30 2.11  10 2.11  25 2.11  27 2.11
 128  0.300  0.300  0.503-  29 2.11  30 2.11  34 2.11  49 2.11  28 2.11
 129  0.200  0.300  0.407-  27 2.11  28 2.11   8 2.11  31 2.11  29 2.11
 130  0.300  0.200  0.407-  27 2.11  28 2.11  24 2.11  47 2.11  30 2.11
 131  0.200  0.400  0.503-  34 2.11  29 2.11  33 2.11  14 2.11  31 2.11
 132  0.300  0.500  0.503-  33 2.11  34 2.11  38 2.11  53 2.11  32 2.11
 133  0.200  0.500  0.407-  32 2.11  31 2.11  12 2.11  35 2.11  33 2.11
 134  0.300  0.400  0.407-  31 2.11  28 2.11  32 2.11  51 2.11  34 2.11
 135  0.200  0.600  0.503-  38 2.11  33 2.11  37 2.11  18 2.11  35 2.11
 136  0.300  0.700  0.503-  37 2.11  42 2.11  38 2.11  57 2.11  36 2.11
 137  0.200  0.700  0.407-  36 2.11  39 2.11  16 2.11  35 2.11  37 2.11
 138  0.300  0.600  0.407-  35 2.11  32 2.11  36 2.11  55 2.11  38 2.11
 139  0.200  0.800  0.503-  37 2.11  42 2.11  41 2.11  22 2.11  39 2.11
 140  0.300  0.900  0.503-  41 2.11  26 2.11  42 2.11  61 2.11  40 2.11
 141  0.200  0.900  0.407-  40 2.11  23 2.11  39 2.11  20 2.11  41 2.11
 142  0.300  0.800  0.407-  36 2.11  39 2.11  40 2.11  59 2.11  42 2.11
 143  0.400  0.000  0.503-  26 2.11  45 2.11  46 2.11  61 2.11  43 2.11
 144  0.500  0.100  0.503-  45 2.11  46 2.11  50 2.11  65 2.11  44 2.11
 145  0.400  0.100  0.407-  24 2.11  43 2.11  44 2.11  47 2.11  45 2.11
 146  0.500  0.000  0.407-  43 2.11  44 2.11  60 2.11  63 2.11  46 2.11
 147  0.400  0.200  0.503-  49 2.11  45 2.11  30 2.11  50 2.11  47 2.11
 148  0.500  0.300  0.503-  50 2.11  49 2.11  54 2.11  69 2.11  48 2.11
 149  0.400  0.300  0.407-  47 2.11  28 2.11  48 2.11  51 2.11  49 2.11
 150  0.500  0.200  0.407-  48 2.11  47 2.11  44 2.11  67 2.11  50 2.11
 151  0.400  0.400  0.503-  34 2.11  49 2.11  53 2.11  54 2.11  51 2.11
 152  0.500  0.500  0.503-  53 2.11  54 2.11  58 2.11  73 2.11  52 2.11
 153  0.400  0.500  0.407-  32 2.11  51 2.11  52 2.11  55 2.11  53 2.11
 154  0.500  0.400  0.407-  48 2.11  51 2.11  52 2.11  71 2.11  54 2.11
 155  0.400  0.600  0.503-  38 2.11  53 2.11  57 2.11  58 2.11  55 2.11
 156  0.500  0.700  0.503-  62 2.11  58 2.11  57 2.11  77 2.11  56 2.11
 157  0.400  0.700  0.407-  59 2.11  55 2.11  56 2.11  36 2.11  57 2.11
 158  0.500  0.600  0.407-  52 2.11  55 2.11  56 2.11  75 2.11  58 2.11
 159  0.400  0.800  0.503-  57 2.11  42 2.11  61 2.11  62 2.11  59 2.11
 160  0.500  0.900  0.503-  46 2.11  61 2.11  62 2.11  81 2.11  60 2.11
 161  0.400  0.900  0.407-  40 2.11  43 2.11  59 2.11  60 2.11  61 2.11
 162  0.500  0.800  0.407-  56 2.11  59 2.11  60 2.11  79 2.11  62 2.11
 163  0.600  0.000  0.503-  46 2.11  65 2.11  66 2.11  81 2.11  63 2.11
 164  0.700  0.100  0.503-  85 2.11  66 2.11  70 2.11  65 2.11  64 2.11
 165  0.600  0.100  0.407-  44 2.11  63 2.11  64 2.11  67 2.11  65 2.11
 166  0.700  0.000  0.407-  83 2.11  64 2.11  80 2.11  63 2.11  66 2.11
 167  0.600  0.200  0.503-  69 2.11  65 2.11  50 2.11  70 2.11  67 2.11
 168  0.700  0.300  0.503-  70 2.11  89 2.11  74 2.11  69 2.11  68 2.11
 169  0.600  0.300  0.407-  67 2.11  48 2.11  68 2.11  71 2.11  69 2.11
 170  0.700  0.200  0.407-  68 2.11  87 2.11  64 2.11  67 2.11  70 2.11
 171  0.600  0.400  0.503-  54 2.11  69 2.11  73 2.11  74 2.11  71 2.11
 172  0.700  0.500  0.503-  93 2.11  74 2.11  78 2.11  73 2.11  72 2.11
 173  0.600  0.500  0.407-  52 2.11  71 2.11  72 2.11  75 2.11  73 2.11
 174  0.700  0.400  0.407-  91 2.11  71 2.11  72 2.11  68 2.11  74 2.11
 175  0.600  0.600  0.503-  58 2.11  73 2.11  77 2.11  78 2.11  75 2.11
 176  0.700  0.700  0.503-  82 2.11  97 2.11  77 2.11  78 2.11  76 2.11
 177  0.600  0.700  0.407-  79 2.11  75 2.11  76 2.11  56 2.11  77 2.11
 178  0.700  0.600  0.407-  95 2.11  75 2.11  76 2.11  72 2.11  78 2.11
 179  0.600  0.800  0.503-  77 2.11  62 2.11  81 2.11  82 2.11  79 2.11
 180  0.700  0.900  0.503- 101 2.11  81 2.11  82 2.11  66 2.11  80 2.11
 181  0.600  0.900  0.407-  60 2.11  63 2.11  79 2.11  80 2.11  81 2.11
 182  0.700  0.800  0.407-  76 2.11  99 2.11  80 2.11  79 2.11  82 2.11
 183  0.800  0.000  0.503-  66 2.11  85 2.11  86 2.11 101 2.11  83 2.11
 184  0.900  0.100  0.503-   5 2.11  85 2.11  86 2.11  90 2.11  84 2.11
 185  0.800  0.100  0.407-  64 2.11  83 2.11  84 2.11  87 2.11  85 2.11
 186  0.900  0.000  0.407-   3 2.11  83 2.11  84 2.11 100 2.11  86 2.11
 187  0.800  0.200  0.503-  70 2.11  89 2.11  85 2.11  90 2.11  87 2.11
 188  0.900  0.300  0.503-  90 2.11  89 2.11   9 2.11  94 2.11  88 2.11
 189  0.800  0.300  0.407-  68 2.11  87 2.11  88 2.11  91 2.11  89 2.11
 190  0.900  0.200  0.407-  88 2.11  84 2.11  87 2.11   7 2.11  90 2.11
 191  0.800  0.400  0.503-  74 2.11  89 2.11  93 2.11  94 2.11  91 2.11
 192  0.900  0.500  0.503-  13 2.11  93 2.11  94 2.11  98 2.11  92 2.11
 193  0.800  0.500  0.407-  72 2.11  91 2.11  92 2.11  95 2.11  93 2.11
 194  0.900  0.400  0.407-  11 2.11  88 2.11  91 2.11  92 2.11  94 2.11
 195  0.800  0.600  0.503-  78 2.11  93 2.11  97 2.11  98 2.11  95 2.11
 196  0.900  0.700  0.503- 102 2.11  97 2.11  98 2.11  17 2.11  96 2.11
 197  0.800  0.700  0.407-  76 2.11  99 2.11  96 2.11  95 2.11  97 2.11
 198  0.900  0.600  0.407-  15 2.11  92 2.11  95 2.11  96 2.11  98 2.11
 199  0.800  0.800  0.503-  82 2.11  97 2.11 101 2.11 102 2.11  99 2.11
 200  0.900  0.900  0.503-  21 2.11  86 2.11 101 2.11 102 2.11 100 2.11
 201  0.800  0.900  0.407-  80 2.11  83 2.11  99 2.11 100 2.11 101 2.11
 202  0.900  0.800  0.407-  96 2.11  19 2.11  99 2.11 100 2.11 102 2.11
 
  LATTYP: Found a simple tetragonal cell.
 ALAT       =    21.1388521970
 C/A-ratio  =     1.0461251639
  
  Lattice vectors:
  
 A1 = (  21.1388521970,   0.0000000000,   0.0000000000)
 A2 = (   0.0000000000,  21.1388521970,   0.0000000000)
 A3 = (   0.0000000000,   0.0000000000,  22.1138852197)


Analysis of symmetry for initial positions (statically):
=====================================================================
 Subroutine PRICEL returns:
 Original cell was already a primitive cell.
 

 Routine SETGRP: Setting up the symmetry group for a 
 simple tetragonal supercell.


 Subroutine GETGRP returns: Found  4 space group operations
 (whereof  1 operations were pure point group operations)
 out of a pool of 16 trial point group operations.


The static configuration has the point symmetry C_1 .
 The point group associated with its full space group is C_2v.


Analysis of symmetry for dynamics (positions and initial velocities):
=====================================================================
 Subroutine PRICEL returns:
 Original cell was already a primitive cell.
 

 Routine SETGRP: Setting up the symmetry group for a 
 simple tetragonal supercell.


 Subroutine GETGRP returns: Found  4 space group operations
 (whereof  1 operations were pure point group operations)
 out of a pool of 16 trial point group operations.


The dynamic configuration has the point symmetry C_1 .
 The point group associated with its full space group is C_2v.


 Subroutine INISYM returns: Found  4 space group operations
 (whereof  1 operations are pure point group operations),
 and found     1 'primitive' translations


----------------------------------------------------------------------------------------

                                     Primitive cell                                     

  volume of cell :    9881.6133

  direct lattice vectors                    reciprocal lattice vectors
    21.138852197  0.000000000  0.000000000     0.047306258  0.000000000  0.000000000
     0.000000000 21.138852197  0.000000000     0.000000000  0.047306258  0.000000000
     0.000000000  0.000000000 22.113885220     0.000000000  0.000000000  0.045220457

  length of vectors
    21.138852197 21.138852197 22.113885220     0.047306258  0.047306258  0.045220457

  position of ions in fractional coordinates (direct lattice)
     0.543264150  0.556735814  0.623371474
     0.456735850  0.643264114  0.623371474
     0.000000000  0.000000000  0.406984115
     0.100000000  0.100000000  0.406984115
     0.000000000  0.100000000  0.502574971
     0.100000000  0.000000000  0.502574971
     0.000000000  0.200000000  0.406984115
     0.100000000  0.300000000  0.406984115
     0.000000000  0.300000000  0.502574971
     0.100000000  0.200000000  0.502574971
     0.000000000  0.400000000  0.406984115
     0.100000000  0.500000000  0.406984115
     0.000000000  0.500000000  0.502574971
     0.100000000  0.400000000  0.502574971
     0.000000000  0.600000000  0.406984115
     0.100000000  0.700000000  0.406984115
     0.000000000  0.700000000  0.502574971
     0.100000000  0.600000000  0.502574971
     0.000000000  0.800000000  0.406984115
     0.100000000  0.900000000  0.406984115
     0.000000000  0.900000000  0.502574971
     0.100000000  0.800000000  0.502574971
     0.200000000  0.000000000  0.406984115
     0.300000000  0.100000000  0.406984115
     0.200000000  0.100000000  0.502574971
     0.300000000  0.000000000  0.502574971
     0.200000000  0.200000000  0.406984115
     0.300000000  0.300000000  0.406984115
     0.200000000  0.300000000  0.502574971
     0.300000000  0.200000000  0.502574971
     0.200000000  0.400000000  0.406984115
     0.300000000  0.500000000  0.406984115
     0.200000000  0.500000000  0.502574971
     0.300000000  0.400000000  0.502574971
     0.200000000  0.600000000  0.406984115
     0.300000000  0.700000000  0.406984115
     0.200000000  0.700000000  0.502574971
     0.300000000  0.600000000  0.502574971
     0.200000000  0.800000000  0.406984115
     0.300000000  0.900000000  0.406984115
     0.200000000  0.900000000  0.502574971
     0.300000000  0.800000000  0.502574971
     0.400000000  0.000000000  0.406984115
     0.500000000  0.100000000  0.406984115
     0.400000000  0.100000000  0.502574971
     0.500000000  0.000000000  0.502574971
     0.400000000  0.200000000  0.406984115
     0.500000000  0.300000000  0.406984115
     0.400000000  0.300000000  0.502574971
     0.500000000  0.200000000  0.502574971
     0.400000000  0.400000000  0.406984115
     0.500000000  0.500000000  0.406984115
     0.400000000  0.500000000  0.502574971
     0.500000000  0.400000000  0.502574971
     0.400000000  0.600000000  0.406984115
     0.500000000  0.700000000  0.406984115
     0.400000000  0.700000000  0.502574971
     0.500000000  0.600000000  0.502574971
     0.400000000  0.800000000  0.406984115
     0.500000000  0.900000000  0.406984115
     0.400000000  0.900000000  0.502574971
     0.500000000  0.800000000  0.502574971
     0.600000000  0.000000000  0.406984115
     0.700000000  0.100000000  0.406984115
     0.600000000  0.100000000  0.502574971
     0.700000000  0.000000000  0.502574971
     0.600000000  0.200000000  0.406984115
     0.700000000  0.300000000  0.406984115
     0.600000000  0.300000000  0.502574971
     0.700000000  0.200000000  0.502574971
     0.600000000  0.400000000  0.406984115
     0.700000000  0.500000000  0.406984115
     0.600000000  0.500000000  0.502574971
     0.700000000  0.400000000  0.502574971
     0.600000000  0.600000000  0.406984115
     0.700000000  0.700000000  0.406984115
     0.600000000  0.700000000  0.502574971
     0.700000000  0.600000000  0.502574971
     0.600000000  0.800000000  0.406984115
     0.700000000  0.900000000  0.406984115
     0.600000000  0.900000000  0.502574971
     0.700000000  0.800000000  0.502574971
     0.800000000  0.000000000  0.406984115
     0.900000000  0.100000000  0.406984115
     0.800000000  0.100000000  0.502574971
     0.900000000  0.000000000  0.502574971
     0.800000000  0.200000000  0.406984115
     0.900000000  0.300000000  0.406984115
     0.800000000  0.300000000  0.502574971
     0.900000000  0.200000000  0.502574971
     0.800000000  0.400000000  0.406984115
     0.900000000  0.500000000  0.406984115
     0.800000000  0.500000000  0.502574971
     0.900000000  0.400000000  0.502574971
     0.800000000  0.600000000  0.406984115
     0.900000000  0.700000000  0.406984115
     0.800000000  0.700000000  0.502574971
     0.900000000  0.600000000  0.502574971
     0.800000000  0.800000000  0.406984115
     0.900000000  0.900000000  0.406984115
     0.800000000  0.900000000  0.502574971
     0.900000000  0.800000000  0.502574971
     0.000000000  0.000000000  0.502574971
     0.100000000  0.100000000  0.502574971
     0.000000000  0.100000000  0.406984115
     0.100000000  0.000000000  0.406984115
     0.000000000  0.200000000  0.502574971
     0.100000000  0.300000000  0.502574971
     0.000000000  0.300000000  0.406984115
     0.100000000  0.200000000  0.406984115
     0.000000000  0.400000000  0.502574971
     0.100000000  0.500000000  0.502574971
     0.000000000  0.500000000  0.406984115
     0.100000000  0.400000000  0.406984115
     0.000000000  0.600000000  0.502574971
     0.100000000  0.700000000  0.502574971
     0.000000000  0.700000000  0.406984115
     0.100000000  0.600000000  0.406984115
     0.000000000  0.800000000  0.502574971
     0.100000000  0.900000000  0.502574971
     0.000000000  0.900000000  0.406984115
     0.100000000  0.800000000  0.406984115
     0.200000000  0.000000000  0.502574971
     0.300000000  0.100000000  0.502574971
     0.200000000  0.100000000  0.406984115
     0.300000000  0.000000000  0.406984115
     0.200000000  0.200000000  0.502574971
     0.300000000  0.300000000  0.502574971
     0.200000000  0.300000000  0.406984115
     0.300000000  0.200000000  0.406984115
     0.200000000  0.400000000  0.502574971
     0.300000000  0.500000000  0.502574971
     0.200000000  0.500000000  0.406984115
     0.300000000  0.400000000  0.406984115
     0.200000000  0.600000000  0.502574971
     0.300000000  0.700000000  0.502574971
     0.200000000  0.700000000  0.406984115
     0.300000000  0.600000000  0.406984115
     0.200000000  0.800000000  0.502574971
     0.300000000  0.900000000  0.502574971
     0.200000000  0.900000000  0.406984115
     0.300000000  0.800000000  0.406984115
     0.400000000  0.000000000  0.502574971
     0.500000000  0.100000000  0.502574971
     0.400000000  0.100000000  0.406984115
     0.500000000  0.000000000  0.406984115
     0.400000000  0.200000000  0.502574971
     0.500000000  0.300000000  0.502574971
     0.400000000  0.300000000  0.406984115
     0.500000000  0.200000000  0.406984115
     0.400000000  0.400000000  0.502574971
     0.500000000  0.500000000  0.502574971
     0.400000000  0.500000000  0.406984115
     0.500000000  0.400000000  0.406984115
     0.400000000  0.600000000  0.502574971
     0.500000000  0.700000000  0.502574971
     0.400000000  0.700000000  0.406984115
     0.500000000  0.600000000  0.406984115
     0.400000000  0.800000000  0.502574971
     0.500000000  0.900000000  0.502574971
     0.400000000  0.900000000  0.406984115
     0.500000000  0.800000000  0.406984115
     0.600000000  0.000000000  0.502574971
     0.700000000  0.100000000  0.502574971
     0.600000000  0.100000000  0.406984115
     0.700000000  0.000000000  0.406984115
     0.600000000  0.200000000  0.502574971
     0.700000000  0.300000000  0.502574971
     0.600000000  0.300000000  0.406984115
     0.700000000  0.200000000  0.406984115
     0.600000000  0.400000000  0.502574971
     0.700000000  0.500000000  0.502574971
     0.600000000  0.500000000  0.406984115
     0.700000000  0.400000000  0.406984115
     0.600000000  0.600000000  0.502574971
     0.700000000  0.700000000  0.502574971
     0.600000000  0.700000000  0.406984115
     0.700000000  0.600000000  0.406984115
     0.600000000  0.800000000  0.502574971
     0.700000000  0.900000000  0.502574971
     0.600000000  0.900000000  0.406984115
     0.700000000  0.800000000  0.406984115
     0.800000000  0.000000000  0.502574971
     0.900000000  0.100000000  0.502574971
     0.800000000  0.100000000  0.406984115
     0.900000000  0.000000000  0.406984115
     0.800000000  0.200000000  0.502574971
     0.900000000  0.300000000  0.502574971
     0.800000000  0.300000000  0.406984115
     0.900000000  0.200000000  0.406984115
     0.800000000  0.400000000  0.502574971
     0.900000000  0.500000000  0.502574971
     0.800000000  0.500000000  0.406984115
     0.900000000  0.400000000  0.406984115
     0.800000000  0.600000000  0.502574971
     0.900000000  0.700000000  0.502574971
     0.800000000  0.700000000  0.406984115
     0.900000000  0.600000000  0.406984115
     0.800000000  0.800000000  0.502574971
     0.900000000  0.900000000  0.502574971
     0.800000000  0.900000000  0.406984115
     0.900000000  0.800000000  0.406984115

  ion indices of the primitive-cell ions
   primitive index   ion index
                 1           1
                 2           2
                 3           3
                 4           4
                 5           5
                 6           6
                 7           7
                 8           8
                 9           9
                10          10
                11          11
                12          12
                13          13
                14          14
                15          15
                16          16
                17          17
                18          18
                19          19
                20          20
                21          21
                22          22
                23          23
                24          24
                25          25
                26          26
                27          27
                28          28
                29          29
                30          30
                31          31
                32          32
                33          33
                34          34
                35          35
                36          36
                37          37
                38          38
                39          39
                40          40
                41          41
                42          42
                43          43
                44          44
                45          45
                46          46
                47          47
                48          48
                49          49
                50          50
                51          51
                52          52
                53          53
                54          54
                55          55
                56          56
                57          57
                58          58
                59          59
                60          60
                61          61
                62          62
                63          63
                64          64
                65          65
                66          66
                67          67
                68          68
                69          69
                70          70
                71          71
                72          72
                73          73
                74          74
                75          75
                76          76
                77          77
                78          78
                79          79
                80          80
                81          81
                82          82
                83          83
                84          84
                85          85
                86          86
                87          87
                88          88
                89          89
                90          90
                91          91
                92          92
                93          93
                94          94
                95          95
                96          96
                97          97
                98          98
                99          99
               100         100
               101         101
               102         102
               103         103
               104         104
               105         105
               106         106
               107         107
               108         108
               109         109
               110         110
               111         111
               112         112
               113         113
               114         114
               115         115
               116         116
               117         117
               118         118
               119         119
               120         120
               121         121
               122         122
               123         123
               124         124
               125         125
               126         126
               127         127
               128         128
               129         129
               130         130
               131         131
               132         132
               133         133
               134         134
               135         135
               136         136
               137         137
               138         138
               139         139
               140         140
               141         141
               142         142
               143         143
               144         144
               145         145
               146         146
               147         147
               148         148
               149         149
               150         150
               151         151
               152         152
               153         153
               154         154
               155         155
               156         156
               157         157
               158         158
               159         159
               160         160
               161         161
               162         162
               163         163
               164         164
               165         165
               166         166
               167         167
               168         168
               169         169
               170         170
               171         171
               172         172
               173         173
               174         174
               175         175
               176         176
               177         177
               178         178
               179         179
               180         180
               181         181
               182         182
               183         183
               184         184
               185         185
               186         186
               187         187
               188         188
               189         189
               190         190
               191         191
               192         192
               193         193
               194         194
               195         195
               196         196
               197         197
               198         198
               199         199
               200         200
               201         201
               202         202

----------------------------------------------------------------------------------------

 
 
 KPOINTS: KPOINTS created by Atomic Simulation Env

Automatic generation of k-mesh.
 Grid dimensions read from file:
 generate k-points for:    1    1    1

 Generating k-lattice:

  Cartesian coordinates                     Fractional coordinates (reciprocal lattice)
     0.047306258  0.000000000  0.000000000     1.000000000  0.000000000  0.000000000
     0.000000000  0.047306258  0.000000000     0.000000000  1.000000000  0.000000000
     0.000000000  0.000000000  0.045220457     0.000000000  0.000000000  1.000000000

  Length of vectors
     0.047306258  0.047306258  0.045220457

  Shift w.r.t. Gamma in fractional coordinates (k-lattice)
     0.000000000  0.000000000  0.000000000

 
 Subroutine IBZKPT returns following result:
 ===========================================
 
 Found      1 irreducible k-points:
 
 Following reciprocal coordinates:
            Coordinates               Weight
  0.000000  0.000000  0.000000      1.000000
 
 Following cartesian coordinates:
            Coordinates               Weight
  0.000000  0.000000  0.000000      1.000000
 


--------------------------------------------------------------------------------------------------------




 Dimension of arrays:
   k-points           NKPTS =      1   k-points in BZ     NKDIM =      1   number of bands    NBANDS=    864
   number of dos      NEDOS =    301   number of ions     NIONS =    202
   non local maximal  LDIM  =      6   non local SUM 2l+1 LMDIM =     18
   total plane-waves  NPLWV = ******
   max r-space proj   IRMAX =   5559   max aug-charges    IRDMAX=  21597
   dimension x,y,z NGX =   160 NGY =  160 NGZ =  168
   dimension x,y,z NGXF=   320 NGYF=  320 NGZF=  336
   support grid    NGXF=   320 NGYF=  320 NGZF=  336
   ions per type =               2 100 100
   NGX,Y,Z   is equivalent  to a cutoff of  12.58, 12.58, 12.63 a.u.
   NGXF,Y,Z  is equivalent  to a cutoff of  25.17, 25.17, 25.26 a.u.

 SYSTEM =  MgO-rocksalt                            
 POSCAR =  Ag Mg  O                                

 Startparameter for this run:
   NWRITE =      2    write-flag & timer
   PREC   = accura    normal or accurate (medium, high low for compatibility)
   ISTART =      0    job   : 0-new  1-cont  2-samecut
   ICHARG =      2    charge: 1-file 2-atom 10-const
   ISPIN  =      1    spin polarized calculation?
   LNONCOLLINEAR =      F non collinear calculations
   LSORBIT =      F    spin-orbit coupling
   INIWAV =      1    electr: 0-lowe 1-rand  2-diag
   LASPH  =      T    aspherical Exc in radial PAW
 Electronic Relaxation 1
   ENCUT  =  520.0 eV  38.22 Ry    6.18 a.u.  39.30 39.30 41.12*2*pi/ulx,y,z
   ENINI  =  520.0     initial cutoff
   ENAUG  =  758.8 eV  augmentation charge cutoff
   NELM   =    200;   NELMIN=  8; NELMDL= -5     # of ELM steps 
   EDIFF  = 0.1E-05   stopping-criterion for ELM
   LREAL  =      T    real-space projection
   NLSPLINE    = F    spline interpolate recip. space projectors
   LCOMPAT=      F    compatible to vasp.4.4
   GGA_COMPAT  = T    GGA compatible to vasp.4.4-vasp.4.6
   LMAXPAW     = -100 max onsite density
   LMAXMIX     =    2 max onsite mixed and CHGCAR
   VOSKOWN=      0    Vosko Wilk Nusair interpolation
   ROPT   =   -0.00025  -0.00025  -0.00025
 Ionic relaxation
   EDIFFG = 0.1E-04   stopping-criterion for IOM
   NSW    =      0    number of steps for IOM
   NBLOCK =      1;   KBLOCK =      1    inner block; outer block 
   IBRION =     -1    ionic relax: 0-MD 1-quasi-New 2-CG
   NFREE  =      0    steps in history (QN), initial steepest desc. (CG)
   ISIF   =      2    stress and relaxation
   IWAVPR =     10    prediction:  0-non 1-charg 2-wave 3-comb
   ISYM   =      2    0-nonsym 1-usesym 2-fastsym
   LCORR  =      T    Harris-Foulkes like correction to forces

   POTIM  = 0.5000    time-step for ionic-motion
   TEIN   =    0.0    initial temperature
   TEBEG  =    0.0;   TEEND  =   0.0 temperature during run
   SMASS  =  -3.00    Nose mass-parameter (am)
   estimated Nose-frequenzy (Omega)   =  0.10E-29 period in steps = 0.13E+47 mass=  -0.102E-25a.u.
   SCALEE = 1.0000    scale energy and forces
   NPACO  =    256;   APACO  = 10.0  distance and # of slots for P.C.
   PSTRESS=    0.0 pullay stress

  Mass of Ions in am
   POMASS = 107.87 24.30 16.00
  Ionic Valenz
   ZVAL   =  11.00  8.00  6.00
  Atomic Wigner-Seitz radii
   RWIGS  =  -1.00 -1.00 -1.00
  virtual crystal weights 
   VCA    =   1.00  1.00  1.00
   NELECT =    1422.0000    total number of electrons
   NUPDOWN=      -1.0000    fix difference up-down

 DOS related values:
   EMIN   =  10.00;   EMAX   =-10.00  energy-range for DOS
   EFERMI =   0.00;   METHOD = LEGACY      
   ISMEAR =     0;   SIGMA  =   0.05  broadening in eV -4-tet -1-fermi 0-gaus

 Electronic relaxation 2 (details)
   IALGO  =     58    algorithm
   LDIAG  =      T    sub-space diagonalisation (order eigenvalues)
   LSUBROT=      F    optimize rotation matrix (better conditioning)
   TURBO    =      0    0=normal 1=particle mesh
   IRESTART =      0    0=no restart 2=restart with 2 vectors
   NREBOOT  =      0    no. of reboots
   NMIN     =      0    reboot dimension
   EREF     =   0.00    reference energy to select bands
   IMIX   =      4    mixing-type and parameters
     AMIX     =   0.40;   BMIX     =  1.00
     AMIX_MAG =   1.60;   BMIX_MAG =  1.00
     AMIN     =   0.10
     WC   =   100.;   INIMIX=   1;  MIXPRE=   1;  MAXMIX= -45

 Intra band minimization:
   WEIMIN = 0.0000     energy-eigenvalue tresh-hold
   EBREAK =  0.29E-09  absolut break condition
   DEPER  =   0.30     relativ break condition  

   TIME   =   0.40     timestep for ELM

  volume/ion in A,a.u.               =      48.92       330.12
  Fermi-wavevector in a.u.,A,eV,Ry     =   0.857891  1.621179 10.013573  0.735977
  Thomas-Fermi vector in A             =   1.975013
 
 Write flags
   LWAVE        =      F    write WAVECAR
   LDOWNSAMPLE  =      F    k-point downsampling of WAVECAR
   LCHARG       =      F    write CHGCAR
   LVTOT        =      F    write LOCPOT, total local potential
   LVHAR        =      F    write LOCPOT, Hartree potential only
   LELF         =      F    write electronic localiz. function (ELF)
   LORBIT       =      0    0 simple, 1 ext, 2 COOP (PROOUT), +10 PAW based schemes


 Dipole corrections
   LMONO  =      F    monopole corrections only (constant potential shift)
   LDIPOL =      T    correct potential (dipole corrections)
   IDIPOL =      3    1-x, 2-y, 3-z, 4-all directions 
   EPSILON=  1.0000000 bulk dielectric constant

 Exchange correlation treatment:
   GGA     =    --    GGA type
   LEXCH   =     8    internal setting for exchange type
   LIBXC   =     F    Libxc                    
   VOSKOWN =     0    Vosko Wilk Nusair interpolation
   LHFCALC =     F    Hartree Fock is set to
   LHFONE  =     F    Hartree Fock one center treatment
   AEXX    =    0.0000 exact exchange contribution

 Linear response parameters
   LEPSILON=     F    determine dielectric tensor
   LRPA    =     F    only Hartree local field effects (RPA)
   LNABLA  =     F    use nabla operator in PAW spheres
   LVEL    =     F    velocity operator in full k-point grid
   CSHIFT  =0.1000    complex shift for real part using Kramers Kronig
   OMEGAMAX=  -1.0    maximum frequency
   DEG_THRESHOLD= 0.2000000E-02 threshold for treating states as degnerate
   RTIME   =   -0.100 relaxation time in fs
  (WPLASMAI=    0.000 imaginary part of plasma frequency in eV, 0.658/RTIME)
   DFIELD  = 0.0000000 0.0000000 0.0000000 field for delta impulse in time
 
  Optional k-point grid parameters
   LKPOINTS_OPT  =     F    use optional k-point grid
   KPOINTS_OPT_MODE=     1    mode for optional k-point grid
 
 Orbital magnetization related:
   ORBITALMAG=     F  switch on orbital magnetization
   LCHIMAG   =     F  perturbation theory with respect to B field
   DQ        =  0.001000  dq finite difference perturbation B field
   LLRAUG    =     F  two centre corrections for induced B field
   LBONE     =     F  B-component reconstruction in AE one-centre
   LVGVCALC  =     T  calculate vGv susceptibility
   LVGVAPPL  =     F  apply vGv susceptibility instead of pGv for G=0

 Random number generation:
   RANDOM_GENERATOR = DEFAULT
   PCG_SEED         = not used


--------------------------------------------------------------------------------------------------------


 Static calculation
 charge density and potential will be updated during run
 non-spin polarized calculation
 Conjugate gradient for all bands (Freysoldt, et al. PRB 79, 241103 (2009))
 preconditioned conjugated gradient                                        
 perform sub-space diagonalisation
    before iterative eigenvector-optimisation
 modified Broyden-mixing scheme, WC =      100.0
 initial mixing is a Kerker type mixing with AMIX =  0.4000 and BMIX =      1.0000
 Hartree-type preconditioning will be used
 using additional bands          153
 real space projection scheme for non local part
 use partial core corrections
 no Harris-corrections to forces 
 use gradient corrections 
 use of overlap-Matrix (Vanderbilt PP)
 Gauss-broadening in eV      SIGMA  =   0.05


--------------------------------------------------------------------------------------------------------


  energy-cutoff  :      520.00
  volume of cell :     9881.61
      direct lattice vectors                 reciprocal lattice vectors
    21.138852197  0.000000000  0.000000000     0.047306258  0.000000000  0.000000000
     0.000000000 21.138852197  0.000000000     0.000000000  0.047306258  0.000000000
     0.000000000  0.000000000 22.113885220     0.000000000  0.000000000  0.045220457

  length of vectors
    21.138852197 21.138852197 22.113885220     0.047306258  0.047306258  0.045220457


 
 k-points in units of 2pi/SCALE and weight: KPOINTS created by Atomic Simulation Env
   0.00000000  0.00000000  0.00000000       1.000
 
 k-points in reciprocal lattice and weights: KPOINTS created by Atomic Simulation Env
   0.00000000  0.00000000  0.00000000       1.000
 
 position of ions in fractional coordinates (direct lattice) 
   0.54326415  0.55673581  0.62337147
   0.45673585  0.64326411  0.62337147
   0.00000000  0.00000000  0.40698411
   0.10000000  0.10000000  0.40698411
   0.00000000  0.10000000  0.50257497
   0.10000000  0.00000000  0.50257497
   0.00000000  0.20000000  0.40698411
   0.10000000  0.30000000  0.40698411
   0.00000000  0.30000000  0.50257497
   0.10000000  0.20000000  0.50257497
   0.00000000  0.40000000  0.40698411
   0.10000000  0.50000000  0.40698411
   0.00000000  0.50000000  0.50257497
   0.10000000  0.40000000  0.50257497
   0.00000000  0.60000000  0.40698411
   0.10000000  0.70000000  0.40698411
   0.00000000  0.70000000  0.50257497
   0.10000000  0.60000000  0.50257497
   0.00000000  0.80000000  0.40698411
   0.10000000  0.90000000  0.40698411
   0.00000000  0.90000000  0.50257497
   0.10000000  0.80000000  0.50257497
   0.20000000  0.00000000  0.40698411
   0.30000000  0.10000000  0.40698411
   0.20000000  0.10000000  0.50257497
   0.30000000  0.00000000  0.50257497
   0.20000000  0.20000000  0.40698411
   0.30000000  0.30000000  0.40698411
   0.20000000  0.30000000  0.50257497
   0.30000000  0.20000000  0.50257497
   0.20000000  0.40000000  0.40698411
   0.30000000  0.50000000  0.40698411
   0.20000000  0.50000000  0.50257497
   0.30000000  0.40000000  0.50257497
   0.20000000  0.60000000  0.40698411
   0.30000000  0.70000000  0.40698411
   0.20000000  0.70000000  0.50257497
   0.30000000  0.60000000  0.50257497
   0.20000000  0.80000000  0.40698411
   0.30000000  0.90000000  0.40698411
   0.20000000  0.90000000  0.50257497
   0.30000000  0.80000000  0.50257497
   0.40000000  0.00000000  0.40698411
   0.50000000  0.10000000  0.40698411
   0.40000000  0.10000000  0.50257497
   0.50000000  0.00000000  0.50257497
   0.40000000  0.20000000  0.40698411
   0.50000000  0.30000000  0.40698411
   0.40000000  0.30000000  0.50257497
   0.50000000  0.20000000  0.50257497
   0.40000000  0.40000000  0.40698411
   0.50000000  0.50000000  0.40698411
   0.40000000  0.50000000  0.50257497
   0.50000000  0.40000000  0.50257497
   0.40000000  0.60000000  0.40698411
   0.50000000  0.70000000  0.40698411
   0.40000000  0.70000000  0.50257497
   0.50000000  0.60000000  0.50257497
   0.40000000  0.80000000  0.40698411
   0.50000000  0.90000000  0.40698411
   0.40000000  0.90000000  0.50257497
   0.50000000  0.80000000  0.50257497
   0.60000000  0.00000000  0.40698411
   0.70000000  0.10000000  0.40698411
   0.60000000  0.10000000  0.50257497
   0.70000000  0.00000000  0.50257497
   0.60000000  0.20000000  0.40698411
   0.70000000  0.30000000  0.40698411
   0.60000000  0.30000000  0.50257497
   0.70000000  0.20000000  0.50257497
   0.60000000  0.40000000  0.40698411
   0.70000000  0.50000000  0.40698411
   0.60000000  0.50000000  0.50257497
   0.70000000  0.40000000  0.50257497
   0.60000000  0.60000000  0.40698411
   0.70000000  0.70000000  0.40698411
   0.60000000  0.70000000  0.50257497
   0.70000000  0.60000000  0.50257497
   0.60000000  0.80000000  0.40698411
   0.70000000  0.90000000  0.40698411
   0.60000000  0.90000000  0.50257497
   0.70000000  0.80000000  0.50257497
   0.80000000  0.00000000  0.40698411
   0.90000000  0.10000000  0.40698411
   0.80000000  0.10000000  0.50257497
   0.90000000  0.00000000  0.50257497
   0.80000000  0.20000000  0.40698411
   0.90000000  0.30000000  0.40698411
   0.80000000  0.30000000  0.50257497
   0.90000000  0.20000000  0.50257497
   0.80000000  0.40000000  0.40698411
   0.90000000  0.50000000  0.40698411
   0.80000000  0.50000000  0.50257497
   0.90000000  0.40000000  0.50257497
   0.80000000  0.60000000  0.40698411
   0.90000000  0.70000000  0.40698411
   0.80000000  0.70000000  0.50257497
   0.90000000  0.60000000  0.50257497
   0.80000000  0.80000000  0.40698411
   0.90000000  0.90000000  0.40698411
   0.80000000  0.90000000  0.50257497
   0.90000000  0.80000000  0.50257497
   0.00000000  0.00000000  0.50257497
   0.10000000  0.10000000  0.50257497
   0.00000000  0.10000000  0.40698411
   0.10000000  0.00000000  0.40698411
   0.00000000  0.20000000  0.50257497
   0.10000000  0.30000000  0.50257497
   0.00000000  0.30000000  0.40698411
   0.10000000  0.20000000  0.40698411
   0.00000000  0.40000000  0.50257497
   0.10000000  0.50000000  0.50257497
   0.00000000  0.50000000  0.40698411
   0.10000000  0.40000000  0.40698411
   0.00000000  0.60000000  0.50257497
   0.10000000  0.70000000  0.50257497
   0.00000000  0.70000000  0.40698411
   0.10000000  0.60000000  0.40698411
   0.00000000  0.80000000  0.50257497
   0.10000000  0.90000000  0.50257497
   0.00000000  0.90000000  0.40698411
   0.10000000  0.80000000  0.40698411
   0.20000000  0.00000000  0.50257497
   0.30000000  0.10000000  0.50257497
   0.20000000  0.10000000  0.40698411
   0.30000000  0.00000000  0.40698411
   0.20000000  0.20000000  0.50257497
   0.30000000  0.30000000  0.50257497
   0.20000000  0.30000000  0.40698411
   0.30000000  0.20000000  0.40698411
   0.20000000  0.40000000  0.50257497
   0.30000000  0.50000000  0.50257497
   0.20000000  0.50000000  0.40698411
   0.30000000  0.40000000  0.40698411
   0.20000000  0.60000000  0.50257497
   0.30000000  0.70000000  0.50257497
   0.20000000  0.70000000  0.40698411
   0.30000000  0.60000000  0.40698411
   0.20000000  0.80000000  0.50257497
   0.30000000  0.90000000  0.50257497
   0.20000000  0.90000000  0.40698411
   0.30000000  0.80000000  0.40698411
   0.40000000  0.00000000  0.50257497
   0.50000000  0.10000000  0.50257497
   0.40000000  0.10000000  0.40698411
   0.50000000  0.00000000  0.40698411
   0.40000000  0.20000000  0.50257497
   0.50000000  0.30000000  0.50257497
   0.40000000  0.30000000  0.40698411
   0.50000000  0.20000000  0.40698411
   0.40000000  0.40000000  0.50257497
   0.50000000  0.50000000  0.50257497
   0.40000000  0.50000000  0.40698411
   0.50000000  0.40000000  0.40698411
   0.40000000  0.60000000  0.50257497
   0.50000000  0.70000000  0.50257497
   0.40000000  0.70000000  0.40698411
   0.50000000  0.60000000  0.40698411
   0.40000000  0.80000000  0.50257497
   0.50000000  0.90000000  0.50257497
   0.40000000  0.90000000  0.40698411
   0.50000000  0.80000000  0.40698411
   0.60000000  0.00000000  0.50257497
   0.70000000  0.10000000  0.50257497
   0.60000000  0.10000000  0.40698411
   0.70000000  0.00000000  0.40698411
   0.60000000  0.20000000  0.50257497
   0.70000000  0.30000000  0.50257497
   0.60000000  0.30000000  0.40698411
   0.70000000  0.20000000  0.40698411
   0.60000000  0.40000000  0.50257497
   0.70000000  0.50000000  0.50257497
   0.60000000  0.50000000  0.40698411
   0.70000000  0.40000000  0.40698411
   0.60000000  0.60000000  0.50257497
   0.70000000  0.70000000  0.50257497
   0.60000000  0.70000000  0.40698411
   0.70000000  0.60000000  0.40698411
   0.60000000  0.80000000  0.50257497
   0.70000000  0.90000000  0.50257497
   0.60000000  0.90000000  0.40698411
   0.70000000  0.80000000  0.40698411
   0.80000000  0.00000000  0.50257497
   0.90000000  0.10000000  0.50257497
   0.80000000  0.10000000  0.40698411
   0.90000000  0.00000000  0.40698411
   0.80000000  0.20000000  0.50257497
   0.90000000  0.30000000  0.50257497
   0.80000000  0.30000000  0.40698411
   0.90000000  0.20000000  0.40698411
   0.80000000  0.40000000  0.50257497
   0.90000000  0.50000000  0.50257497
   0.80000000  0.50000000  0.40698411
   0.90000000  0.40000000  0.40698411
   0.80000000  0.60000000  0.50257497
   0.90000000  0.70000000  0.50257497
   0.80000000  0.70000000  0.40698411
   0.90000000  0.60000000  0.40698411
   0.80000000  0.80000000  0.50257497
   0.90000000  0.90000000  0.50257497
   0.80000000  0.90000000  0.40698411
   0.90000000  0.80000000  0.40698411
 
 position of ions in cartesian coordinates  (Angst):
  11.48398057 11.76875609 13.78516522
   9.65487163 13.59786503 13.78516522
   0.00000000  0.00000000  9.00000000
   2.11388522  2.11388522  9.00000000
   0.00000000  2.11388522 11.11388522
   2.11388522  0.00000000 11.11388522
   0.00000000  4.22777044  9.00000000
   2.11388522  6.34165566  9.00000000
   0.00000000  6.34165566 11.11388522
   2.11388522  4.22777044 11.11388522
   0.00000000  8.45554088  9.00000000
   2.11388522 10.56942610  9.00000000
   0.00000000 10.56942610 11.11388522
   2.11388522  8.45554088 11.11388522
   0.00000000 12.68331132  9.00000000
   2.11388522 14.79719654  9.00000000
   0.00000000 14.79719654 11.11388522
   2.11388522 12.68331132 11.11388522
   0.00000000 16.91108176  9.00000000
   2.11388522 19.02496698  9.00000000
   0.00000000 19.02496698 11.11388522
   2.11388522 16.91108176 11.11388522
   4.22777044  0.00000000  9.00000000
   6.34165566  2.11388522  9.00000000
   4.22777044  2.11388522 11.11388522
   6.34165566  0.00000000 11.11388522
   4.22777044  4.22777044  9.00000000
   6.34165566  6.34165566  9.00000000
   4.22777044  6.34165566 11.11388522
   6.34165566  4.22777044 11.11388522
   4.22777044  8.45554088  9.00000000
   6.34165566 10.56942610  9.00000000
   4.22777044 10.56942610 11.11388522
   6.34165566  8.45554088 11.11388522
   4.22777044 12.68331132  9.00000000
   6.34165566 14.79719654  9.00000000
   4.22777044 14.79719654 11.11388522
   6.34165566 12.68331132 11.11388522
   4.22777044 16.91108176  9.00000000
   6.34165566 19.02496698  9.00000000
   4.22777044 19.02496698 11.11388522
   6.34165566 16.91108176 11.11388522
   8.45554088  0.00000000  9.00000000
  10.56942610  2.11388522  9.00000000
   8.45554088  2.11388522 11.11388522
  10.56942610  0.00000000 11.11388522
   8.45554088  4.22777044  9.00000000
  10.56942610  6.34165566  9.00000000
   8.45554088  6.34165566 11.11388522
  10.56942610  4.22777044 11.11388522
   8.45554088  8.45554088  9.00000000
  10.56942610 10.56942610  9.00000000
   8.45554088 10.56942610 11.11388522
  10.56942610  8.45554088 11.11388522
   8.45554088 12.68331132  9.00000000
  10.56942610 14.79719654  9.00000000
   8.45554088 14.79719654 11.11388522
  10.56942610 12.68331132 11.11388522
   8.45554088 16.91108176  9.00000000
  10.56942610 19.02496698  9.00000000
   8.45554088 19.02496698 11.11388522
  10.56942610 16.91108176 11.11388522
  12.68331132  0.00000000  9.00000000
  14.79719654  2.11388522  9.00000000
  12.68331132  2.11388522 11.11388522
  14.79719654  0.00000000 11.11388522
  12.68331132  4.22777044  9.00000000
  14.79719654  6.34165566  9.00000000
  12.68331132  6.34165566 11.11388522
  14.79719654  4.22777044 11.11388522
  12.68331132  8.45554088  9.00000000
  14.79719654 10.56942610  9.00000000
  12.68331132 10.56942610 11.11388522
  14.79719654  8.45554088 11.11388522
  12.68331132 12.68331132  9.00000000
  14.79719654 14.79719654  9.00000000
  12.68331132 14.79719654 11.11388522
  14.79719654 12.68331132 11.11388522
  12.68331132 16.91108176  9.00000000
  14.79719654 19.02496698  9.00000000
  12.68331132 19.02496698 11.11388522
  14.79719654 16.91108176 11.11388522
  16.91108176  0.00000000  9.00000000
  19.02496698  2.11388522  9.00000000
  16.91108176  2.11388522 11.11388522
  19.02496698  0.00000000 11.11388522
  16.91108176  4.22777044  9.00000000
  19.02496698  6.34165566  9.00000000
  16.91108176  6.34165566 11.11388522
  19.02496698  4.22777044 11.11388522
  16.91108176  8.45554088  9.00000000
  19.02496698 10.56942610  9.00000000
  16.91108176 10.56942610 11.11388522
  19.02496698  8.45554088 11.11388522
  16.91108176 12.68331132  9.00000000
  19.02496698 14.79719654  9.00000000
  16.91108176 14.79719654 11.11388522
  19.02496698 12.68331132 11.11388522
  16.91108176 16.91108176  9.00000000
  19.02496698 19.02496698  9.00000000
  16.91108176 19.02496698 11.11388522
  19.02496698 16.91108176 11.11388522
   0.00000000  0.00000000 11.11388522
   2.11388522  2.11388522 11.11388522
   0.00000000  2.11388522  9.00000000
   2.11388522  0.00000000  9.00000000
   0.00000000  4.22777044 11.11388522
   2.11388522  6.34165566 11.11388522
   0.00000000  6.34165566  9.00000000
   2.11388522  4.22777044  9.00000000
   0.00000000  8.45554088 11.11388522
   2.11388522 10.56942610 11.11388522
   0.00000000 10.56942610  9.00000000
   2.11388522  8.45554088  9.00000000
   0.00000000 12.68331132 11.11388522
   2.11388522 14.79719654 11.11388522
   0.00000000 14.79719654  9.00000000
   2.11388522 12.68331132  9.00000000
   0.00000000 16.91108176 11.11388522
   2.11388522 19.02496698 11.11388522
   0.00000000 19.02496698  9.00000000
   2.11388522 16.91108176  9.00000000
   4.22777044  0.00000000 11.11388522
   6.34165566  2.11388522 11.11388522
   4.22777044  2.11388522  9.00000000
   6.34165566  0.00000000  9.00000000
   4.22777044  4.22777044 11.11388522
   6.34165566  6.34165566 11.11388522
   4.22777044  6.34165566  9.00000000
   6.34165566  4.22777044  9.00000000
   4.22777044  8.45554088 11.11388522
   6.34165566 10.56942610 11.11388522
   4.22777044 10.56942610  9.00000000
   6.34165566  8.45554088  9.00000000
   4.22777044 12.68331132 11.11388522
   6.34165566 14.79719654 11.11388522
   4.22777044 14.79719654  9.00000000
   6.34165566 12.68331132  9.00000000
   4.22777044 16.91108176 11.11388522
   6.34165566 19.02496698 11.11388522
   4.22777044 19.02496698  9.00000000
   6.34165566 16.91108176  9.00000000
   8.45554088  0.00000000 11.11388522
  10.56942610  2.11388522 11.11388522
   8.45554088  2.11388522  9.00000000
  10.56942610  0.00000000  9.00000000
   8.45554088  4.22777044 11.11388522
  10.56942610  6.34165566 11.11388522
   8.45554088  6.34165566  9.00000000
  10.56942610  4.22777044  9.00000000
   8.45554088  8.45554088 11.11388522
  10.56942610 10.56942610 11.11388522
   8.45554088 10.56942610  9.00000000
  10.56942610  8.45554088  9.00000000
   8.45554088 12.68331132 11.11388522
  10.56942610 14.79719654 11.11388522
   8.45554088 14.79719654  9.00000000
  10.56942610 12.68331132  9.00000000
   8.45554088 16.91108176 11.11388522
  10.56942610 19.02496698 11.11388522
   8.45554088 19.02496698  9.00000000
  10.56942610 16.91108176  9.00000000
  12.68331132  0.00000000 11.11388522
  14.79719654  2.11388522 11.11388522
  12.68331132  2.11388522  9.00000000
  14.79719654  0.00000000  9.00000000
  12.68331132  4.22777044 11.11388522
  14.79719654  6.34165566 11.11388522
  12.68331132  6.34165566  9.00000000
  14.79719654  4.22777044  9.00000000
  12.68331132  8.45554088 11.11388522
  14.79719654 10.56942610 11.11388522
  12.68331132 10.56942610  9.00000000
  14.79719654  8.45554088  9.00000000
  12.68331132 12.68331132 11.11388522
  14.79719654 14.79719654 11.11388522
  12.68331132 14.79719654  9.00000000
  14.79719654 12.68331132  9.00000000
  12.68331132 16.91108176 11.11388522
  14.79719654 19.02496698 11.11388522
  12.68331132 19.02496698  9.00000000
  14.79719654 16.91108176  9.00000000
  16.91108176  0.00000000 11.11388522
  19.02496698  2.11388522 11.11388522
  16.91108176  2.11388522  9.00000000
  19.02496698  0.00000000  9.00000000
  16.91108176  4.22777044 11.11388522
  19.02496698  6.34165566 11.11388522
  16.91108176  6.34165566  9.00000000
  19.02496698  4.22777044  9.00000000
  16.91108176  8.45554088 11.11388522
  19.02496698 10.56942610 11.11388522
  16.91108176 10.56942610  9.00000000
  19.02496698  8.45554088  9.00000000
  16.91108176 12.68331132 11.11388522
  19.02496698 14.79719654 11.11388522
  16.91108176 14.79719654  9.00000000
  19.02496698 12.68331132  9.00000000
  16.91108176 16.91108176 11.11388522
  19.02496698 19.02496698 11.11388522
  16.91108176 19.02496698  9.00000000
  19.02496698 16.91108176  9.00000000
 


--------------------------------------------------------------------------------------------------------


 k-point   1 :   0.0000 0.0000 0.0000  plane waves:  265979

 maximum and minimum number of plane-waves per node :     16635    16606

 maximum number of plane-waves:    265979
 maximum index in each direction: 
   IXMAX=   39   IYMAX=   39   IZMAX=   41
   IXMIN=  -39   IYMIN=  -39   IZMIN=  -41


 real space projection operators:
  total allocation   :      56093.38 KBytes
  max/ min on nodes  :       4499.34       2288.88


 parallel 3D FFT for wavefunctions:
    minimum data exchange during FFTs selected (reduces bandwidth)
 parallel 3D FFT for charge:
    minimum data exchange during FFTs selected (reduces bandwidth)


 total amount of memory used by VASP MPI-rank0   115093. kBytes
=======================================================================

   base      :      30000. kBytes
   nonlr-proj:      24483. kBytes
   fftplans  :      11482. kBytes
   grid      :      27155. kBytes
   one-center:        202. kBytes
   wavefun   :      21771. kBytes
 
     INWAV:  cpu time      0.0004: real time      0.0005
 Broyden mixing: mesh for mixing (old mesh)
   NGX = 79   NGY = 79   NGZ = 83
  (NGX  =320   NGY  =320   NGZ  =336)
  gives a total of 518003 points

 initial charge density was supplied:
 charge density of overlapping atoms calculated
 number of electron    1422.0000000 magnetization 
 keeping initial charge density in first step


--------------------------------------------------------------------------------------------------------


 Maximum index for non-local projection operator          331
 Maximum index for augmentation-charges          495 (set IRDMAX)


--------------------------------------------------------------------------------------------------------


 First call to EWALD:  gamma=   0.083
 Maximum number of real-space cells 3x 3x 3
 Maximum number of reciprocal cells 3x 3x 3

    FEWALD:  cpu time      0.0192: real time      0.0195


--------------------------------------- Ionic step        1  -------------------------------------------




--------------------------------------- Iteration      1(   1)  ---------------------------------------


    POTLOK:  cpu time      1.6092: real time      1.6170
    SETDIJ:  cpu time      5.2463: real time      5.2505
    TRIAL :  cpu time     14.2641: real time     14.3712
    CORREC:  cpu time      0.0037: real time      0.0037
    --------------------------------------------
      LOOP:  cpu time     21.1356: real time     21.2557

 eigenvalue-minimisations  :  2368
 total energy-change (2. order) : 0.1557571E+05  (-0.7875692E+05)
 number of electron    1422.0000000 magnetization 
 augmentation part     1422.0000000 magnetization 

 DIPCOR: dipole corrections for dipol
 direction  3 min pos     1,
 dipolmoment           0.000000      0.000000      0.000233 electrons x Angstroem
 Tr[quadrupol]   -109927.008925

[...]
   -.874E+01 -.324E+00 0.706E+03   0.875E+01 0.328E+00 -.710E+03   -.173E-01 -.732E-02 0.352E+01
   -.163E+02 -.125E+02 -.688E+03   0.163E+02 0.126E+02 0.692E+03   -.779E-02 -.114E-01 -.358E+01
   -.510E+01 -.636E+01 -.693E+03   0.510E+01 0.636E+01 0.697E+03   0.129E-02 -.311E-02 -.356E+01
   -.730E+01 -.730E+01 0.703E+03   0.730E+01 0.730E+01 -.707E+03   -.839E-02 -.839E-02 0.352E+01
   -.568E+01 -.557E+01 0.703E+03   0.568E+01 0.557E+01 -.707E+03   -.339E-02 -.858E-02 0.352E+01
 -----------------------------------------------------------------------------------------------
   -.150E-04 -.111E+00 0.826E+01   0.388E-11 -.146E-11 -.580E-11   -.685E-15 -.173E-16 -.897E+01
 
 
 POSITION                                       TOTAL-FORCE (eV/Angst)
 -----------------------------------------------------------------------------------
     11.48398     11.76876     13.78517        -0.017897      0.017897      0.035171
      9.65487     13.59787     13.78517         0.017897     -0.017897      0.035171
      0.00000      0.00000      9.00000        -0.000827      0.000804      0.403178
      2.11389      2.11389      9.00000        -0.000804      0.000827      0.403178
      0.00000      2.11389     11.11389         0.000000      0.000000     -0.397851
      2.11389      0.00000     11.11389        -0.001799      0.001799     -0.397684
      0.00000      4.22777      9.00000         0.000827     -0.000804      0.403178
      2.11389      6.34166      9.00000        -0.000266     -0.001242      0.403690
      0.00000      6.34166     11.11389         0.002049     -0.000988     -0.397334
      2.11389      4.22777     11.11389         0.000258      0.000258     -0.397380
      0.00000      8.45554      9.00000         0.002029     -0.001417      0.403428
      2.11389     10.56943      9.00000        -0.002980     -0.002439      0.403962
      0.00000     10.56943     11.11389         0.001946     -0.000694     -0.396382
      2.11389      8.45554     11.11389         0.000810     -0.001543     -0.395699
      0.00000     12.68331      9.00000         0.000000      0.000000      0.403607
      2.11389     14.79720      9.00000        -0.007258      0.000340      0.403685
      0.00000     14.79720     11.11389        -0.001946      0.000694     -0.396382
      2.11389     12.68331     11.11389        -0.004110     -0.001992     -0.395287
      0.00000     16.91108      9.00000        -0.002029      0.001417      0.403428
      2.11389     19.02497      9.00000        -0.003402      0.002497      0.402989
      0.00000     19.02497     11.11389        -0.002049      0.000988     -0.397334
      2.11389     16.91108     11.11389        -0.005965      0.001473     -0.396873
      4.22777      0.00000      9.00000        -0.002497      0.003402      0.402989
      6.34166      2.11389      9.00000        -0.001417      0.002029      0.403428
      4.22777      2.11389     11.11389        -0.000988      0.002049     -0.397334
      6.34166      0.00000     11.11389        -0.001473      0.005965     -0.396873
      4.22777      4.22777      9.00000        -0.001242     -0.000266      0.403690
      6.34166      6.34166      9.00000        -0.004117     -0.004879      0.405250
      4.22777      6.34166     11.11389        -0.000416     -0.000416     -0.394935
      6.34166      4.22777     11.11389        -0.001543      0.000810     -0.395699
      4.22777      8.45554      9.00000        -0.004879     -0.004117      0.405250
      6.34166     10.56943      9.00000        -0.026567     -0.015132      0.409525
      4.22777     10.56943     11.11389        -0.002357     -0.005600     -0.390320
      6.34166      8.45554     11.11389        -0.002926     -0.002926     -0.383311
      4.22777     12.68331      9.00000        -0.016140     -0.004436      0.404837
      6.34166     14.79720      9.00000        -0.015874      0.007890      0.389869
      4.22777     14.79720     11.11389        -0.021395     -0.001178     -0.394150
      6.34166     12.68331     11.11389        -0.063927     -0.017069     -0.375555
      4.22777     16.91108      9.00000        -0.009160      0.005454      0.401998
      6.34166     19.02497      9.00000        -0.005454      0.009160      0.401998
      4.22777     19.02497     11.11389        -0.005180      0.005180     -0.397256
      6.34166     16.91108     11.11389        -0.014976      0.014976     -0.395965
      8.45554      0.00000      9.00000        -0.000340      0.007258      0.403685
     10.56943      2.11389      9.00000         0.000000      0.000000      0.403607
      8.45554      2.11389     11.11389        -0.000694      0.001946     -0.396382
     10.56943      0.00000     11.11389         0.001992      0.004110     -0.395287
      8.45554      4.22777      9.00000        -0.002439     -0.002980      0.403962
     10.56943      6.34166      9.00000        -0.004436     -0.016140      0.404837
      8.45554      6.34166     11.11389        -0.005600     -0.002357     -0.390320
     10.56943      4.22777     11.11389        -0.001992     -0.004110     -0.395287
      8.45554      8.45554      9.00000        -0.015132     -0.026567      0.409525
     10.56943     10.56943      9.00000         0.014173     -0.019666      0.329045
      8.45554     10.56943     11.11389        -0.033521     -0.033521     -0.246605
     10.56943      8.45554     11.11389        -0.017069     -0.063927     -0.375555
      8.45554     12.68331      9.00000        -0.019666      0.014173      0.329045
     10.56943     14.79720      9.00000        -0.014173      0.019666      0.329045
      8.45554     14.79720     11.11389        -0.072411      0.072411     -0.472548
     10.56943     12.68331     11.11389         0.000000      0.000000     -0.078500
      8.45554     16.91108      9.00000        -0.007890      0.015874      0.389869
     10.56943     19.02497      9.00000         0.004436      0.016140      0.404837
      8.45554     19.02497     11.11389         0.001178      0.021395     -0.394150
     10.56943     16.91108     11.11389         0.017069      0.063927     -0.375555
     12.68331      0.00000      9.00000         0.002439      0.002980      0.403962
     14.79720      2.11389      9.00000         0.001417     -0.002029      0.403428
     12.68331      2.11389     11.11389         0.000694     -0.001946     -0.396382
     14.79720      0.00000     11.11389         0.001543     -0.000810     -0.395699
     12.68331      4.22777      9.00000         0.000340     -0.007258      0.403685
     14.79720      6.34166      9.00000         0.005454     -0.009160      0.401998
     12.68331      6.34166     11.11389        -0.001178     -0.021395     -0.394150
     14.79720      4.22777     11.11389         0.001473     -0.005965     -0.396873
     12.68331      8.45554      9.00000         0.007890     -0.015874      0.389869
     14.79720     10.56943      9.00000         0.015874     -0.007890      0.389869
     12.68331     10.56943     11.11389         0.072411     -0.072411     -0.472548
     14.79720      8.45554     11.11389         0.014976     -0.014976     -0.395965
     12.68331     12.68331      9.00000         0.019666     -0.014173      0.329045
     14.79720     14.79720      9.00000         0.026567      0.015132      0.409525
     12.68331     14.79720     11.11389         0.033521      0.033521     -0.246605
     14.79720     12.68331     11.11389         0.063927      0.017069     -0.375555
     12.68331     16.91108      9.00000         0.015132      0.026567      0.409525
     14.79720     19.02497      9.00000         0.004117      0.004879      0.405250
     12.68331     19.02497     11.11389         0.005600      0.002357     -0.390320
     14.79720     16.91108     11.11389         0.002926      0.002926     -0.383311
     16.91108      0.00000      9.00000         0.001242      0.000266      0.403690
     19.02497      2.11389      9.00000         0.000804     -0.000827      0.403178
     16.91108      2.11389     11.11389         0.000988     -0.002049     -0.397334
     19.02497      0.00000     11.11389        -0.000258     -0.000258     -0.397380
     16.91108      4.22777      9.00000         0.002497     -0.003402      0.402989
     19.02497      6.34166      9.00000         0.003402     -0.002497      0.402989
     16.91108      6.34166     11.11389         0.005180     -0.005180     -0.397256
     19.02497      4.22777     11.11389         0.001799     -0.001799     -0.397684
     16.91108      8.45554      9.00000         0.009160     -0.005454      0.401998
     19.02497     10.56943      9.00000         0.007258     -0.000340      0.403685
     16.91108     10.56943     11.11389         0.021395      0.001178     -0.394150
     19.02497      8.45554     11.11389         0.005965     -0.001473     -0.396873
     16.91108     12.68331      9.00000         0.016140      0.004436      0.404837
     19.02497     14.79720      9.00000         0.002980      0.002439      0.403962
     16.91108     14.79720     11.11389         0.002357      0.005600     -0.390320
     19.02497     12.68331     11.11389         0.004110      0.001992     -0.395287
     16.91108     16.91108      9.00000         0.004879      0.004117      0.405250
     19.02497     19.02497      9.00000         0.000266      0.001242      0.403690
     16.91108     19.02497     11.11389         0.000416      0.000416     -0.394935
     19.02497     16.91108     11.11389        -0.000810      0.001543     -0.395699
      0.00000      0.00000     11.11389         0.001045     -0.000828      0.510619
      2.11389      2.11389     11.11389         0.000828     -0.001045      0.510619
      0.00000      2.11389      9.00000         0.000000      0.000000     -0.516644
      2.11389      0.00000      9.00000         0.002065     -0.002065     -0.516495
      0.00000      4.22777     11.11389        -0.001045      0.000828      0.510619
      2.11389      6.34166     11.11389        -0.000347      0.000910      0.509493
      0.00000      6.34166      9.00000        -0.001637      0.001663     -0.516715
      2.11389      4.22777      9.00000         0.000345      0.000345     -0.516863
      0.00000      8.45554     11.11389        -0.002098      0.001473      0.509657
      2.11389     10.56943     11.11389         0.001813      0.002922      0.507780
      0.00000     10.56943      9.00000        -0.001344      0.001182     -0.516937
      2.11389      8.45554      9.00000         0.000948      0.002444     -0.517450
      0.00000     12.68331     11.11389         0.000000      0.000000      0.508910
      2.11389     14.79720     11.11389         0.005791      0.000097      0.508849
      0.00000     14.79720      9.00000         0.001344     -0.001182     -0.516937
      2.11389     12.68331      9.00000         0.004866      0.002028     -0.517215
      0.00000     16.91108     11.11389         0.002098     -0.001473      0.509657
      2.11389     19.02497     11.11389         0.003835     -0.002892      0.510347
      0.00000     19.02497      9.00000         0.001637     -0.001663     -0.516715
      2.11389     16.91108      9.00000         0.005428     -0.002753     -0.516435
      4.22777      0.00000     11.11389         0.002892     -0.003835      0.510347
      6.34166      2.11389     11.11389         0.001473     -0.002098      0.509657
      4.22777      2.11389      9.00000         0.001663     -0.001637     -0.516715
      6.34166      0.00000      9.00000         0.002753     -0.005428     -0.516435
      4.22777      4.22777     11.11389         0.000910     -0.000347      0.509493
      6.34166      6.34166     11.11389         0.003311      0.002427      0.504939
      4.22777      6.34166      9.00000         0.002389      0.002389     -0.517837
      6.34166      4.22777      9.00000         0.002444      0.000948     -0.517450
      4.22777      8.45554     11.11389         0.002427      0.003311      0.504939
      6.34166     10.56943     11.11389         0.017526      0.020820      0.482442
      4.22777     10.56943      9.00000         0.007702      0.006765     -0.519714
      6.34166      8.45554      9.00000         0.010391      0.010391     -0.521518
      4.22777     12.68331     11.11389         0.012084      0.007819      0.504113
      6.34166     14.79720     11.11389         0.018846     -0.010183      0.516507
      4.22777     14.79720      9.00000         0.015053     -0.002005     -0.513487
      6.34166     12.68331      9.00000         0.031141      0.004532     -0.508299
      4.22777     16.91108     11.11389         0.010955     -0.006892      0.510068
      6.34166     19.02497     11.11389         0.006892     -0.010955      0.510068
      4.22777     19.02497      9.00000         0.005389     -0.005389     -0.516012
      6.34166     16.91108      9.00000         0.011728     -0.011728     -0.510993
      8.45554      0.00000     11.11389        -0.000097     -0.005791      0.508849
     10.56943      2.11389     11.11389         0.000000      0.000000      0.508910
      8.45554      2.11389      9.00000         0.001182     -0.001344     -0.516937
     10.56943      0.00000      9.00000        -0.002028     -0.004866     -0.517215
      8.45554      4.22777     11.11389         0.002922      0.001813      0.507780
     10.56943      6.34166     11.11389         0.007819      0.012084      0.504113
      8.45554      6.34166      9.00000         0.006765      0.007702     -0.519714
     10.56943      4.22777      9.00000         0.002028      0.004866     -0.517215
      8.45554      8.45554     11.11389         0.020820      0.017526      0.482442
     10.56943     10.56943     11.11389         0.034859     -0.143322      0.412498
      8.45554     10.56943      9.00000         0.036188      0.036188     -0.484767
     10.56943      8.45554      9.00000         0.004532      0.031141     -0.508299
      8.45554     12.68331     11.11389        -0.143322      0.034859      0.412498
     10.56943     14.79720     11.11389        -0.034859      0.143322      0.412498
      8.45554     14.79720      9.00000         0.018563     -0.018563     -0.500371
     10.56943     12.68331      9.00000         0.000000      0.000000     -0.484956
      8.45554     16.91108     11.11389         0.010183     -0.018846      0.516507
     10.56943     19.02497     11.11389        -0.007819     -0.012084      0.504113
      8.45554     19.02497      9.00000         0.002005     -0.015053     -0.513487
     10.56943     16.91108      9.00000        -0.004532     -0.031141     -0.508299
     12.68331      0.00000     11.11389        -0.002922     -0.001813      0.507780
     14.79720      2.11389     11.11389        -0.001473      0.002098      0.509657
     12.68331      2.11389      9.00000        -0.001182      0.001344     -0.516937
     14.79720      0.00000      9.00000        -0.002444     -0.000948     -0.517450
     12.68331      4.22777     11.11389         0.000097      0.005791      0.508849
     14.79720      6.34166     11.11389        -0.006892      0.010955      0.510068
     12.68331      6.34166      9.00000        -0.002005      0.015053     -0.513487
     14.79720      4.22777      9.00000        -0.002753      0.005428     -0.516435
     12.68331      8.45554     11.11389        -0.010183      0.018846      0.516507
     14.79720     10.56943     11.11389        -0.018846      0.010183      0.516507
     12.68331     10.56943      9.00000        -0.018563      0.018563     -0.500371
     14.79720      8.45554      9.00000        -0.011728      0.011728     -0.510993
     12.68331     12.68331     11.11389         0.143322     -0.034859      0.412498
     14.79720     14.79720     11.11389        -0.017526     -0.020820      0.482442
     12.68331     14.79720      9.00000        -0.036188     -0.036188     -0.484767
     14.79720     12.68331      9.00000        -0.031141     -0.004532     -0.508299
     12.68331     16.91108     11.11389        -0.020820     -0.017526      0.482442
     14.79720     19.02497     11.11389        -0.003311     -0.002427      0.504939
     12.68331     19.02497      9.00000        -0.006765     -0.007702     -0.519714
     14.79720     16.91108      9.00000        -0.010391     -0.010391     -0.521518
     16.91108      0.00000     11.11389        -0.000910      0.000347      0.509493
     19.02497      2.11389     11.11389        -0.000828      0.001045      0.510619
     16.91108      2.11389      9.00000        -0.001663      0.001637     -0.516715
     19.02497      0.00000      9.00000        -0.000345     -0.000345     -0.516863
     16.91108      4.22777     11.11389        -0.002892      0.003835      0.510347
     19.02497      6.34166     11.11389        -0.003835      0.002892      0.510347
     16.91108      6.34166      9.00000        -0.005389      0.005389     -0.516012
     19.02497      4.22777      9.00000        -0.002065      0.002065     -0.516495
     16.91108      8.45554     11.11389        -0.010955      0.006892      0.510068
     19.02497     10.56943     11.11389        -0.005791     -0.000097      0.508849
     16.91108     10.56943      9.00000        -0.015053      0.002005     -0.513487
     19.02497      8.45554      9.00000        -0.005428      0.002753     -0.516435
     16.91108     12.68331     11.11389        -0.012084     -0.007819      0.504113
     19.02497     14.79720     11.11389        -0.001813     -0.002922      0.507780
     16.91108     14.79720      9.00000        -0.007702     -0.006765     -0.519714
     19.02497     12.68331      9.00000        -0.004866     -0.002028     -0.517215
     16.91108     16.91108     11.11389        -0.002427     -0.003311      0.504939
     19.02497     19.02497     11.11389         0.000347     -0.000910      0.509493
     16.91108     19.02497      9.00000        -0.002389     -0.002389     -0.517837
     19.02497     16.91108      9.00000        -0.000948     -0.002444     -0.517450
 -----------------------------------------------------------------------------------
    total drift:                               -0.000015     -0.110734     -0.717570


--------------------------------------------------------------------------------------------------------



  FREE ENERGIE OF THE ION-ELECTRON SYSTEM (eV)
  ---------------------------------------------------
  free  energy   TOTEN  =     -1777.04936397 eV

  energy  without entropy=    -1777.04936397  energy(sigma->0) =    -1777.04936397
 


--------------------------------------------------------------------------------------------------------


    POTLOK:  cpu time      6.8092: real time      6.8131


--------------------------------------------------------------------------------------------------------


     LOOP+:  cpu time   6357.3390: real time   6361.2278
    4ORBIT:  cpu time      0.0000: real time      0.0000

 total amount of memory used by VASP MPI-rank0   115093. kBytes
=======================================================================

   base      :      30000. kBytes
   nonlr-proj:      24483. kBytes
   fftplans  :      11482. kBytes
   grid      :      27155. kBytes
   one-center:        202. kBytes
   wavefun   :      21771. kBytes
 
  
  
 General timing and accounting informations for this job:
 ========================================================
  
                  Total CPU time used (sec):     6410.215
                            User time (sec):     6358.145
                          System time (sec):       52.071
                         Elapsed time (sec):     6415.330
  
                   Maximum memory used (kb):     1686748.
                   Average memory used (kb):          N/A
  
                          Minor page faults:       380417
                          Major page faults:            0
                 Voluntary context switches:        80752
