 vasp.6.4.0 14Feb23 (build Jul 14 2023 13:46:40) complex                        
  
 executed on             LinuxIFC date 2023.07.24  04:13:53
 running   64 mpi-ranks, with    1 threads/rank, on    8 nodes
 distrk:  each k-point on   64 cores,    1 groups
 distr:  one band on NCORE=   1 cores,   64 groups


--------------------------------------------------------------------------------------------------------


 INCAR:
   SYSTEM = MgO-rocksalt
   ISMEAR = 0
   SIGMA = 0.05
   EDIFF = 1E-6
   ALGO = ALL
   ISTART = 0
   IBRION = -1
   NSW = 0
   ISYM = 2
   LHFCALC = .TRUE.
   GGA = B5
   AEXX = 0.2
   AGGAX = 0.72
   AGGAC = 0.81
   ALDAC = 0.19
   IVDW = 11
   VDW_S6 = 1.0
   VDW_SR = 1.261
   VDW_S8 = 1.703
   ENCUT = 520
   PREC = Accurate
   LASPH = .TRUE.
   LREAL = Auto
   ISPIN = 1
   NELM = 200
   NELMIN = 8
   NCORE = 1
   KPAR = 1
   LWAVE = .FALSE.
   LCHARG = .FALSE.

 POTCAR:    PAW_PBE Cu 22Jun2005                  
 -----------------------------------------------------------------------------
|                                                                             |
|           W    W    AA    RRRRR   N    N  II  N    N   GGGG   !!!           |
|           W    W   A  A   R    R  NN   N  II  NN   N  G    G  !!!           |
|           W    W  A    A  R    R  N N  N  II  N N  N  G       !!!           |
|           W WW W  AAAAAA  RRRRR   N  N N  II  N  N N  G  GGG   !            |
|           WW  WW  A    A  R   R   N   NN  II  N   NN  G    G                |
|           W    W  A    A  R    R  N    N  II  N    N   GGGG   !!!           |
|                                                                             |
|     You have selected ISYM=2 for a HF type calculation. This will           |
|     symmetrize the charge density but not the exchange potential. I         |
|     suggest to use ISYM=3 instead. This uses symmetry to obtain the         |
|     orbitals at all k-points in the Brillouin zone, but does not apply      |
|     symmetry to the Hartree potential directly. The resultant charge        |
|     might have lower symmetry than the crystal but, at least, Hartree       |
|     and exchange are fully compatible.                                      |
|                                                                             |
 -----------------------------------------------------------------------------

 POTCAR:    PAW_PBE Cu 22Jun2005                  
   SHA256 =  0e71e558f37a4e8407882b4609ceaae59938afaad9ced71dfe8490308a0ab630 Cu/POTCAR             
   COPYR  = (c) Copyright 22Jun2005 Georg Kresse                                                    
   COPYR  = This file is part of the software VASP. Any use, copying, and all other rights are regul
   COPYR  = If you do not have a valid VASP license, you may not use, copy or distribute this file. 
   VRHFIN =Cu: d10 p1                                                                               
   LEXCH  = PE                                                                                      
   EATOM  =  1390.9808 eV,  102.2342 Ry                                                             
                                                                                                    
   TITEL  = PAW_PBE Cu 22Jun2005                                                                    
   LULTRA =        F    use ultrasoft PP ?                                                          
   IUNSCR =        1    unscreen: 0-lin 1-nonlin 2-no                                               
   RPACOR =    2.000    partial core radius                                                         
   POMASS =   63.546; ZVAL   =   11.000    mass and valenz                                          
   RCORE  =    2.300    outmost cutoff radius                                                       
   RWIGS  =    2.200; RWIGS  =    1.164    wigner-seitz radius (au A)                               
   ENMAX  =  295.446; ENMIN  =  221.585 eV                                                          
   ICORE  =        3    local potential                                                             
   LCOR   =        T    correct aug charges                                                         
   LPAW   =        T    paw PP                                                                      
   EAUG   =  586.980                                                                                
   DEXC   =    0.000                                                                                
   RMAX   =    2.344    core radius for proj-oper                                                   
   RAUG   =    1.300    factor for augmentation sphere                                              
   RDEP   =    2.302    radius for radial grids                                                     
   RDEPT  =    1.771    core radius for aug-charge                                                  
                                                                                                    
   Atomic configuration                                                                             
    9 entries                                                                                       
     n  l   j            E        occ.                                                              
     1  0  0.50     -8850.2468   2.0000                                                             
     2  0  0.50     -1062.3498   2.0000                                                             
     2  1  1.50      -916.8226   6.0000                                                             
     3  0  0.50      -114.6929   2.0000                                                             
     3  1  1.50       -72.1325   6.0000                                                             
     3  2  2.50        -5.0394  10.0000                                                             
     4  0  0.50        -4.6097   1.0000                                                             
     4  1  0.50        -4.0817   0.0000                                                             
     4  3  2.50        -1.3606   0.0000                                                             
   Description                                                                                      
     l       E           TYP  RCUT    TYP  RCUT                                                     
     2     -5.0393973     23  2.200                                                                 
     2     10.8846608     23  2.200                                                                 
     0     -4.6097109     23  2.200                                                                 
     0      8.2520465     23  2.200                                                                 
     1     -2.7211652     23  2.200                                                                 
     1     21.7055443     23  2.200                                                                 
     3      2.7211652     23  2.300                                                                 
  local pseudopotential read in
  partial core-charges read in
  partial kinetic energy density read in
  atomic valenz-charges read in
  non local Contribution for L=           2  read in
    real space projection operators read in
  non local Contribution for L=           2  read in
    real space projection operators read in
  non local Contribution for L=           0  read in
    real space projection operators read in
  non local Contribution for L=           0  read in
    real space projection operators read in
  non local Contribution for L=           1  read in
    real space projection operators read in
  non local Contribution for L=           1  read in
    real space projection operators read in
    PAW grid and wavefunctions read in
 
   number of l-projection  operators is LMAX  =           6
   number of lm-projection operators is LMMAX =          18
 
 -----------------------------------------------------------------------------
|                                                                             |
|               ----> ADVICE to this user running VASP <----                  |
|                                                                             |
|     You have a (more or less) 'small supercell' and for smaller cells       |
|     it is recommended to use the reciprocal-space projection scheme!        |
|     The real-space optimization is not efficient for small cells and it     |
|     is also less accurate ...                                               |
|     Therefore, set LREAL=.FALSE. in the INCAR file.                         |
|                                                                             |
 -----------------------------------------------------------------------------

 Optimization of the real space projectors (new method)

 maximal supplied QI-value         = 16.25
 optimisation between [QCUT,QGAM] = [ 11.54, 23.24] = [ 37.28,151.24] Ry 
 Optimized for a Real-space Cutoff    1.53 Angstroem

   l    n(q)    QCUT    max X(q) W(low)/X(q) W(high)/X(q)  e(spline) 
   2     10    11.539     4.610    0.96E-04    0.13E-03    0.19E-06
   2     10    11.539     8.522    0.16E-03    0.21E-03    0.28E-06
   0     11    11.539    51.609    0.45E-04    0.31E-04    0.11E-06
   0     11    11.539    27.747    0.39E-04    0.29E-04    0.10E-06
   1     10    11.539    20.408    0.70E-05    0.38E-04    0.18E-06
   1     10    11.539    13.425    0.66E-05    0.34E-04    0.17E-06
 -----------------------------------------------------------------------------
|                                                                             |
|               ----> ADVICE to this user running VASP <----                  |
|                                                                             |
|     You enforced a specific xc type in the INCAR file but a different       |
|     type was found in the POTCAR file.                                      |
|     I HOPE YOU KNOW WHAT YOU ARE DOING!                                     |
|                                                                             |
 -----------------------------------------------------------------------------

  PAW_PBE Cu 22Jun2005                  :
 energy of atom  1       EATOM=-1390.9808
 kinetic energy error for atom=    0.0037 (will be added to EATOM!!)
 
 
 POSCAR: Cu
  positions in direct lattice
  velocities in cartesian coordinates
 exchange correlation table for  LEXCH =       12
   RHO(1)=    0.500       N(1)  =     2000
   RHO(2)=  100.500       N(2)  =     4000
 


--------------------------------------------------------------------------------------------------------


 ion  position               nearest neighbor table
   1  0.636  0.433  0.463-   7 2.33   6 2.37   5 2.43
   2  0.443  0.565  0.517-   4 2.34   3 2.35   8 2.37   6 2.43
   3  0.366  0.530  0.599-   4 2.35   2 2.35
   4  0.462  0.465  0.575-   2 2.34   3 2.35   5 2.37   6 2.43
   5  0.558  0.400  0.550-   6 2.34   4 2.37   1 2.43
   6  0.541  0.499  0.490-   5 2.34   8 2.34   1 2.37   7 2.37   2 2.43   4 2.43
   7  0.617  0.532  0.405-   1 2.33   6 2.37   8 2.43
   8  0.520  0.600  0.434-   6 2.34   2 2.37   7 2.43
 
  LATTYP: Found a simple cubic cell.
 ALAT       =    20.0000000000
  
  Lattice vectors:
  
 A1 = (  20.0000000000,   0.0000000000,   0.0000000000)
 A2 = (   0.0000000000,  20.0000000000,   0.0000000000)
 A3 = (   0.0000000000,   0.0000000000,  20.0000000000)


Analysis of symmetry for initial positions (statically):
=====================================================================
 Subroutine PRICEL returns:
 Original cell was already a primitive cell.
 

 Routine SETGRP: Setting up the symmetry group for a 
 simple cubic supercell.


 Subroutine GETGRP returns: Found  1 space group operations
 (whereof  1 operations were pure point group operations)
 out of a pool of 48 trial point group operations.


The static configuration has the point symmetry C_1 .


Analysis of symmetry for dynamics (positions and initial velocities):
=====================================================================
 Subroutine PRICEL returns:
 Original cell was already a primitive cell.
 

 Routine SETGRP: Setting up the symmetry group for a 
 simple cubic supercell.


 Subroutine GETGRP returns: Found  1 space group operations
 (whereof  1 operations were pure point group operations)
 out of a pool of 48 trial point group operations.


The dynamic configuration has the point symmetry C_1 .


 Subroutine INISYM returns: Found  1 space group operations
 (whereof  1 operations are pure point group operations),
 and found     1 'primitive' translations


----------------------------------------------------------------------------------------

                                     Primitive cell                                     

  volume of cell :    8000.0000

  direct lattice vectors                    reciprocal lattice vectors
    20.000000000  0.000000000  0.000000000     0.050000000  0.000000000  0.000000000
     0.000000000 20.000000000  0.000000000     0.000000000  0.050000000  0.000000000
     0.000000000  0.000000000 20.000000000     0.000000000  0.000000000  0.050000000

  length of vectors
    20.000000000 20.000000000 20.000000000     0.050000000  0.050000000  0.050000000

  position of ions in fractional coordinates (direct lattice)
     0.635800555  0.433022911  0.462725487
     0.442811584  0.565089512  0.516833344
     0.366335498  0.529739803  0.598872678
     0.461766361  0.465271977  0.575244265
     0.557927075  0.400482577  0.550044244
     0.541147905  0.499202865  0.489822394
     0.616854432  0.532075335  0.404581941
     0.520255033  0.599611585  0.433789290

  ion indices of the primitive-cell ions
   primitive index   ion index
                 1           1
                 2           2
                 3           3
                 4           4
                 5           5
                 6           6
                 7           7
                 8           8

----------------------------------------------------------------------------------------

 
 
 KPOINTS: KPOINTS created by Atomic Simulation Env

Automatic generation of k-mesh.
 Grid dimensions read from file:
 generate k-points for:    1    1    1

 Generating k-lattice:

  Cartesian coordinates                     Fractional coordinates (reciprocal lattice)
     0.050000000  0.000000000  0.000000000     1.000000000  0.000000000  0.000000000
     0.000000000  0.050000000  0.000000000     0.000000000  1.000000000  0.000000000
     0.000000000  0.000000000  0.050000000     0.000000000  0.000000000  1.000000000

  Length of vectors
     0.050000000  0.050000000  0.050000000

  Shift w.r.t. Gamma in fractional coordinates (k-lattice)
     0.000000000  0.000000000  0.000000000

 
 Subroutine IBZKPT returns following result:
 ===========================================
 
 Found      1 irreducible k-points:
 
 Following reciprocal coordinates:
            Coordinates               Weight
  0.000000  0.000000  0.000000      1.000000
 
 Following cartesian coordinates:
            Coordinates               Weight
  0.000000  0.000000  0.000000      1.000000
 
 
 Subroutine IBZKPT_HF returns following result:
 ==============================================
 
 Found      1 k-points in 1st BZ
 the following      1 k-points will be used (e.g. in the exchange kernel)
 Following reciprocal coordinates:   # in IRBZ
  0.000000  0.000000  0.000000    1.00000000   1 t-inv F


--------------------------------------------------------------------------------------------------------




 Dimension of arrays:
   k-points           NKPTS =      1   k-points in BZ     NKDIM =      1   number of bands    NBANDS=     64
   number of dos      NEDOS =    301   number of ions     NIONS =      8
   non local maximal  LDIM  =      6   non local SUM 2l+1 LMDIM =     18
   total plane-waves  NPLWV = ******
   max r-space proj   IRMAX =   6426   max aug-charges    IRDMAX=  12418
   dimension x,y,z NGX =   150 NGY =  150 NGZ =  150
   dimension x,y,z NGXF=   300 NGYF=  300 NGZF=  300
   support grid    NGXF=   300 NGYF=  300 NGZF=  300
   ions per type =               8
   NGX,Y,Z   is equivalent  to a cutoff of  12.47, 12.47, 12.47 a.u.
   NGXF,Y,Z  is equivalent  to a cutoff of  24.94, 24.94, 24.94 a.u.

 SYSTEM =  MgO-rocksalt                            
 POSCAR =  Cu                                      

 Startparameter for this run:
   NWRITE =      2    write-flag & timer
   PREC   = accura    normal or accurate (medium, high low for compatibility)
   ISTART =      0    job   : 0-new  1-cont  2-samecut
   ICHARG =      2    charge: 1-file 2-atom 10-const
   ISPIN  =      1    spin polarized calculation?
   LNONCOLLINEAR =      F non collinear calculations
   LSORBIT =      F    spin-orbit coupling
   INIWAV =      1    electr: 0-lowe 1-rand  2-diag
   LASPH  =      T    aspherical Exc in radial PAW
 Electronic Relaxation 1
   ENCUT  =  520.0 eV  38.22 Ry    6.18 a.u.  37.19 37.19 37.19*2*pi/ulx,y,z
   ENINI  =  520.0     initial cutoff
   ENAUG  =  587.0 eV  augmentation charge cutoff
   NELM   =    200;   NELMIN=  8; NELMDL= -5     # of ELM steps 
   EDIFF  = 0.1E-05   stopping-criterion for ELM
   LREAL  =      T    real-space projection
   NLSPLINE    = F    spline interpolate recip. space projectors
   LCOMPAT=      F    compatible to vasp.4.4
   GGA_COMPAT  = T    GGA compatible to vasp.4.4-vasp.4.6
   LMAXPAW     = -100 max onsite density
   LMAXMIX     =    2 max onsite mixed and CHGCAR
   VOSKOWN=      0    Vosko Wilk Nusair interpolation
   ROPT   =   -0.00025
 Ionic relaxation
   EDIFFG = 0.1E-04   stopping-criterion for IOM
   NSW    =      0    number of steps for IOM
   NBLOCK =      1;   KBLOCK =      1    inner block; outer block 
   IBRION =     -1    ionic relax: 0-MD 1-quasi-New 2-CG
   NFREE  =      0    steps in history (QN), initial steepest desc. (CG)
   ISIF   =      0    stress and relaxation
   IWAVPR =     10    prediction:  0-non 1-charg 2-wave 3-comb
   ISYM   =      2    0-nonsym 1-usesym 2-fastsym
   LCORR  =      T    Harris-Foulkes like correction to forces

   POTIM  = 0.5000    time-step for ionic-motion
   TEIN   =    0.0    initial temperature
   TEBEG  =    0.0;   TEEND  =   0.0 temperature during run
   SMASS  =  -3.00    Nose mass-parameter (am)
   estimated Nose-frequenzy (Omega)   =  0.10E-29 period in steps = 0.13E+47 mass=  -0.914E-26a.u.
   SCALEE = 1.0000    scale energy and forces
   NPACO  =    256;   APACO  = 10.0  distance and # of slots for P.C.
   PSTRESS=    0.0 pullay stress

  Mass of Ions in am
   POMASS =  63.55
  Ionic Valenz
   ZVAL   =  11.00
  Atomic Wigner-Seitz radii
   RWIGS  =  -1.00
  virtual crystal weights 
   VCA    =   1.00
   NELECT =      88.0000    total number of electrons
   NUPDOWN=      -1.0000    fix difference up-down

 DOS related values:
   EMIN   =  10.00;   EMAX   =-10.00  energy-range for DOS
   EFERMI =   0.00;   METHOD = LEGACY      
   ISMEAR =     0;   SIGMA  =   0.05  broadening in eV -4-tet -1-fermi 0-gaus

 Electronic relaxation 2 (details)
   IALGO  =     58    algorithm
   LDIAG  =      T    sub-space diagonalisation (order eigenvalues)
   LSUBROT=      F    optimize rotation matrix (better conditioning)
   TURBO    =      0    0=normal 1=particle mesh
   IRESTART =      0    0=no restart 2=restart with 2 vectors
   NREBOOT  =      0    no. of reboots
   NMIN     =      0    reboot dimension
   EREF     =   0.00    reference energy to select bands
   IMIX   =      4    mixing-type and parameters
     AMIX     =   0.40;   BMIX     =  1.00
     AMIX_MAG =   1.60;   BMIX_MAG =  1.00
     AMIN     =   0.10
     WC   =   100.;   INIMIX=   1;  MIXPRE=   1;  MAXMIX= -45

 Intra band minimization:
   WEIMIN = 0.0000     energy-eigenvalue tresh-hold
   EBREAK =  0.39E-08  absolut break condition
   DEPER  =   0.30     relativ break condition  

   TIME   =   0.40     timestep for ELM

  volume/ion in A,a.u.               =    1000.00      6748.33
  Fermi-wavevector in a.u.,A,eV,Ry     =   0.364087  0.688026  1.803584  0.132560
  Thomas-Fermi vector in A             =   1.286639
 
 Write flags
   LWAVE        =      F    write WAVECAR
   LDOWNSAMPLE  =      F    k-point downsampling of WAVECAR
   LCHARG       =      F    write CHGCAR
   LVTOT        =      F    write LOCPOT, total local potential
   LVHAR        =      F    write LOCPOT, Hartree potential only
   LELF         =      F    write electronic localiz. function (ELF)
   LORBIT       =      0    0 simple, 1 ext, 2 COOP (PROOUT), +10 PAW based schemes


 Dipole corrections
   LMONO  =      F    monopole corrections only (constant potential shift)
   LDIPOL =      F    correct potential (dipole corrections)
   IDIPOL =      0    1-x, 2-y, 3-z, 4-all directions 
   EPSILON=  1.0000000 bulk dielectric constant

 Exchange correlation treatment:
   GGA     =    B5    GGA type
   LEXCH   =    12    internal setting for exchange type
   LIBXC   =     F    Libxc                    
   VOSKOWN =     0    Vosko Wilk Nusair interpolation
   EXXOEP  =     0    0=HF, 1=EXX-LHF (local Hartree Fock) 2=EXX OEP
   LHFCALC =     T    Hartree Fock is set to
   LSYMGRAD=     F    symmetrize gradient (conserves proper symmetry)
   PRECFOCK=normal    Normal, Fast or Accurate (Low or Medium for compatibility)
   LRHFCALC=     F    long range Hartree Fock
   LRSCOR  =     F    long range correlation only (use DFT for short range part)
   LTHOMAS =     F    Thomas Fermi screening in HF
   LMODELHF=     F    short range full HF, long range fraction AEXX
   FOCKCORR=     1    mode to apply convergence corrections
   LFOCKACE=     T    use Adeptively-Compressed-Exchange operator
   ENCUT4O =  -1.0   cutoff for four orbital integrals eV
   LMAXFOCK=     4    L truncation for augmentation on plane wave grid
   LMAXFOCKAE=  -1    L truncation for all-electron charge restoration on plane wave grid
   NMAXFOCKAE=   1    number of basis functions for all-electron charge restoration
   LFOCKAEDFT=     F  apply the AE augmentation even for DFT
   NKREDX  =     1    reduce k-point grid by
   NKREDY  =     1    reduce k-point grid by
   NKREDZ  =     1    reduce k-point grid by
   SHIFTRED=     F    shift reduced grid of Gamma
   HFKIDENT=     F    idential grid for each k-point
   ODDONLY =     F    use only odd q-grid points
   EVENONLY=     F    use only even q-grid points
   HFALPHA =   -1.0000 decay constant for conv. correction
   MCALPHA =    0.0000 extent of test-charge in conv. correction in multipole expansion
   AEXX    =    0.2000 exact exchange contribution
   HFSCREEN=    0.0000 screening length (either q_TF or 0.3 A-1)
   HFSCREENC=   0.0000 screening length for correlation (either q_TF or 0.3 A-1)
   HFRCUT  =    0.0000 spherical cutoff for potential kernel
   ALDAX   =    0.8000 LDA exchange part
   AGGAX   =    0.7200 GGA exchange part
   ALDAC   =    0.1900 LDA correlation
   AGGAC   =    0.8100 GGA correlation
   ENCUTFOCK=  -1.0 apply spherical cutoff to Coloumb kernel
   NBANDSGWLOW=     1    first orbital included in HF term
   NBLOCK_FOCK=    64    blocking factor in FOCK_ACC

 Linear response parameters
   LEPSILON=     F    determine dielectric tensor
   LRPA    =     F    only Hartree local field effects (RPA)
   LNABLA  =     F    use nabla operator in PAW spheres
   LVEL    =     F    velocity operator in full k-point grid
   CSHIFT  =0.1000    complex shift for real part using Kramers Kronig
   OMEGAMAX=  -1.0    maximum frequency
   DEG_THRESHOLD= 0.2000000E-02 threshold for treating states as degnerate
   RTIME   =   -0.100 relaxation time in fs
  (WPLASMAI=    0.000 imaginary part of plasma frequency in eV, 0.658/RTIME)
   DFIELD  = 0.0000000 0.0000000 0.0000000 field for delta impulse in time
 
  Optional k-point grid parameters
   LKPOINTS_OPT  =     F    use optional k-point grid
   KPOINTS_OPT_MODE=     1    mode for optional k-point grid
 
 Orbital magnetization related:
   ORBITALMAG=     F  switch on orbital magnetization
   LCHIMAG   =     F  perturbation theory with respect to B field
   DQ        =  0.001000  dq finite difference perturbation B field
   LLRAUG    =     F  two centre corrections for induced B field
   LBONE     =     F  B-component reconstruction in AE one-centre
   LVGVCALC  =     T  calculate vGv susceptibility
   LVGVAPPL  =     F  apply vGv susceptibility instead of pGv for G=0

 Random number generation:
   RANDOM_GENERATOR = DEFAULT
   PCG_SEED         = not used


--------------------------------------------------------------------------------------------------------


 Static calculation
 charge density and potential will be updated during run
 non-spin polarized calculation
 Conjugate gradient for all bands (Freysoldt, et al. PRB 79, 241103 (2009))
 preconditioned conjugated gradient                                        
 perform sub-space diagonalisation
    before iterative eigenvector-optimisation
 modified Broyden-mixing scheme, WC =      100.0
 initial mixing is a Kerker type mixing with AMIX =  0.4000 and BMIX =      1.0000
 Hartree-type preconditioning will be used
 using additional bands           20
 real space projection scheme for non local part
 use partial core corrections
 no Harris-corrections to forces 
 use gradient corrections 
 use of overlap-Matrix (Vanderbilt PP)
 Gauss-broadening in eV      SIGMA  =   0.05


--------------------------------------------------------------------------------------------------------


  energy-cutoff  :      520.00
  volume of cell :     8000.00
      direct lattice vectors                 reciprocal lattice vectors
    20.000000000  0.000000000  0.000000000     0.050000000  0.000000000  0.000000000
     0.000000000 20.000000000  0.000000000     0.000000000  0.050000000  0.000000000
     0.000000000  0.000000000 20.000000000     0.000000000  0.000000000  0.050000000

  length of vectors
    20.000000000 20.000000000 20.000000000     0.050000000  0.050000000  0.050000000


 
 k-points in units of 2pi/SCALE and weight: KPOINTS created by Atomic Simulation Env
   0.00000000  0.00000000  0.00000000       1.000
 
 k-points in reciprocal lattice and weights: KPOINTS created by Atomic Simulation Env
   0.00000000  0.00000000  0.00000000       1.000
 
 position of ions in fractional coordinates (direct lattice) 
   0.63580056  0.43302291  0.46272549
   0.44281158  0.56508951  0.51683334
   0.36633550  0.52973980  0.59887268
   0.46176636  0.46527198  0.57524426
   0.55792708  0.40048258  0.55004424
   0.54114790  0.49920286  0.48982239
   0.61685443  0.53207534  0.40458194
   0.52025503  0.59961159  0.43378929
 
 position of ions in cartesian coordinates  (Angst):
  12.71601110  8.66045822  9.25450974
   8.85623168 11.30179024 10.33666688
   7.32670997 10.59479606 11.97745356
   9.23532723  9.30543953 11.50488530
  11.15854150  8.00965154 11.00088489
  10.82295810  9.98405730  9.79644788
  12.33708863 10.64150670  8.09163883
  10.40510065 11.99223171  8.67578579
 


--------------------------------------------------------------------------------------------------------


 k-point   1 :   0.0000 0.0000 0.0000  plane waves:  215503

 maximum and minimum number of plane-waves per node :    215503   215503

 maximum number of plane-waves:    215503
 maximum index in each direction: 
   IXMAX=   37   IYMAX=   37   IZMAX=   37
   IXMIN=  -37   IYMIN=  -37   IZMIN=  -37


 serial   3D FFT for wavefunctions
 parallel 3D FFT for charge:
    minimum data exchange during FFTs selected (reduces bandwidth)


 FFT grid for exact exchange (Hartree Fock) 
  NGX =112; NGY =112; NGZ =112

 
 Radii for the augmentation spheres in the non-local exchange
 for species   1 augmentation radius   1.179 (default was   0.943)
       energy cutoff for augmentation   2080.0
 Maximum index for augmentation-charges in exchange         1208
  SETUP_FOCK is finished

 total amount of memory used by VASP MPI-rank0   237320. kBytes
=======================================================================

   base      :      30000. kBytes
   nonlr-proj:      11002. kBytes
   fftplans  :      28721. kBytes
   grid      :     157056. kBytes
   one-center:        124. kBytes
   HF        :         64. kBytes
   wavefun   :      10353. kBytes
 
     INWAV:  cpu time      0.0004: real time      0.0005
 Broyden mixing: mesh for mixing (old mesh)
   NGX = 75   NGY = 75   NGZ = 75
  (NGX  =300   NGY  =300   NGZ  =300)
  gives a total of 421875 points

 initial charge density was supplied:
 charge density of overlapping atoms calculated
 number of electron      88.0000000 magnetization 
 keeping initial charge density in first step


--------------------------------------------------------------------------------------------------------


 Maximum index for non-local projection operator         6203
 Maximum index for augmentation-charges          621 (set IRDMAX)


--------------------------------------------------------------------------------------------------------


    FEWALD:  cpu time      0.0013: real time      0.0013


--------------------------------------- Ionic step        1  -------------------------------------------




--------------------------------------- Iteration      1(   1)  ---------------------------------------


    POTLOK:  cpu time      0.9525: real time      0.9610
    SETDIJ:  cpu time      0.7698: real time      0.7705
    TRIAL :  cpu time      1.4007: real time      1.4536
    CORREC:  cpu time      0.0093: real time      0.0093
    --------------------------------------------
      LOOP:  cpu time      3.1379: real time      3.2009

 eigenvalue-minimisations  :   128
 total energy-change (2. order) :-0.2275515E+04  (-0.1902867E+04)
 number of electron      88.0000000 magnetization 
 augmentation part       88.0000000 magnetization 

 Free energy of the ion-electron system (eV)
  ---------------------------------------------------
  alpha Z        PSCENC =         5.85062430
  Ewald energy   TEWEN  =      7878.33158863
  -Hartree energ DENC   =    -18025.10382160
  -exchange      EXHF   =         0.00000000
  -V(xc)+E(xc)   XCENC  =       356.80109411
  PAW double counting   =      9825.65327903   -13257.06646532
  entropy T*S    EENTRO =        -0.04666893
  eigenvalues    EBANDS =      -170.79017435
  atomic energy  EATOM  =     11110.85566525
  ---------------------------------------------------
  free energy    TOTEN  =     -2275.51487889 eV

  energy without entropy =    -2275.46820995  energy(sigma->0) =    -2275.49154442
  exchange ACFDT corr.  =         0.00000000  see jH, gK, PRB 81, 115126


--------------------------------------------------------------------------------------------------------




--------------------------------------- Iteration      1(   2)  ---------------------------------------


    TRIAL :  cpu time      1.8836: real time      1.8868
    CORREC:  cpu time      0.0004: real time      0.0004
    --------------------------------------------
      LOOP:  cpu time      1.8983: real time      1.9047

 eigenvalue-minimisations  :   192
 total energy-change (2. order) :-0.5541410E+03  (-0.5535106E+03)
 number of electron      88.0000000 magnetization 
 augmentation part       88.0000000 magnetization 

 Free energy of the ion-electron system (eV)
  ---------------------------------------------------
  alpha Z        PSCENC =         5.85062430
  Ewald energy   TEWEN  =      7878.33158863
  -Hartree energ DENC   =    -18025.10382160
  -exchange      EXHF   =         0.00000000
  -V(xc)+E(xc)   XCENC  =       356.80109411
  PAW double counting   =      9825.65327903   -13257.06646532
  entropy T*S    EENTRO =        -0.00000000
  eigenvalues    EBANDS =      -724.97784237
  atomic energy  EATOM  =     11110.85566525
  ---------------------------------------------------
  free energy    TOTEN  =     -2829.65587798 eV

  energy without entropy =    -2829.65587798  energy(sigma->0) =    -2829.65587798
  exchange ACFDT corr.  =         0.00000000  see jH, gK, PRB 81, 115126


--------------------------------------------------------------------------------------------------------




--------------------------------------- Iteration      1(   3)  ---------------------------------------


    TRIAL :  cpu time      1.2733: real time      1.2746
    CORREC:  cpu time      0.0006: real time      0.0006
    --------------------------------------------
      LOOP:  cpu time      1.2757: real time      1.2804

 eigenvalue-minimisations  :   128
 total energy-change (2. order) :-0.3550486E+02  (-0.3550486E+02)
 number of electron      88.0000000 magnetization 
 augmentation part       88.0000000 magnetization 

 Free energy of the ion-electron system (eV)
  ---------------------------------------------------
  alpha Z        PSCENC =         5.85062430
  Ewald energy   TEWEN  =      7878.33158863
  -Hartree energ DENC   =    -18025.10382160
  -exchange      EXHF   =         0.00000000
  -V(xc)+E(xc)   XCENC  =       356.80109411
  PAW double counting   =      9825.65327903   -13257.06646532
  entropy T*S    EENTRO =        -0.00000000
  eigenvalues    EBANDS =      -760.48270515
  atomic energy  EATOM  =     11110.85566525
  ---------------------------------------------------
  free energy    TOTEN  =     -2865.16074075 eV

  energy without entropy =    -2865.16074075  energy(sigma->0) =    -2865.16074075
  exchange ACFDT corr.  =         0.00000000  see jH, gK, PRB 81, 115126


--------------------------------------------------------------------------------------------------------




--------------------------------------- Iteration      1(   4)  ---------------------------------------


    TRIAL :  cpu time      2.4624: real time      2.4643
    CORREC:  cpu time      0.0006: real time      0.0006
    --------------------------------------------
      LOOP:  cpu time      2.4651: real time      2.4701

 eigenvalue-minimisations  :   256
 total energy-change (2. order) :-0.7862220E+00  (-0.7862221E+00)
 number of electron      88.0000000 magnetization 
 augmentation part       88.0000000 magnetization 

 Free energy of the ion-electron system (eV)
  ---------------------------------------------------
  alpha Z        PSCENC =         5.85062430
  Ewald energy   TEWEN  =      7878.33158863
  -Hartree energ DENC   =    -18025.10382160
  -exchange      EXHF   =         0.00000000
  -V(xc)+E(xc)   XCENC  =       356.80109411
  PAW double counting   =      9825.65327903   -13257.06646532
  entropy T*S    EENTRO =        -0.00000000
  eigenvalues    EBANDS =      -761.26892712
  atomic energy  EATOM  =     11110.85566525
  ---------------------------------------------------
  free energy    TOTEN  =     -2865.94696272 eV

  energy without entropy =    -2865.94696272  energy(sigma->0) =    -2865.94696272
  exchange ACFDT corr.  =         0.00000000  see jH, gK, PRB 81, 115126


--------------------------------------------------------------------------------------------------------




--------------------------------------- Iteration      1(   5)  ---------------------------------------


    POTLOK:  cpu time      2.6912: real time      2.6929
    SETDIJ:  cpu time      2.2857: real time      2.2884
    TRIAL :  cpu time     19.6769: real time     19.7447
    CORREC:  cpu time      0.0007: real time      0.0007
    CHARGE:  cpu time      0.4421: real time      0.4433
    --------------------------------------------
      LOOP:  cpu time     25.0992: real time     25.1756

 eigenvalue-minimisations  :   256
 total energy-change (2. order) : 0.2847341E+04  (-0.4450916E+01)
 number of electron      88.0000031 magnetization 
 augmentation part       57.0679701 magnetization 

 Free energy of the ion-electron system (eV)
  ---------------------------------------------------
  alpha Z        PSCENC =         5.85062430
  Ewald energy   TEWEN  =      7878.33158863
  -Hartree energ DENC   =    -18025.10382160
  -exchange      EXHF   =       224.04412169
  -V(xc)+E(xc)   XCENC  =       282.33576643
  PAW double counting   =      9897.99347323   -10693.62104311
  entropy T*S    EENTRO =        -0.00000000
  eigenvalues    EBANDS =      -699.29184494
  atomic energy  EATOM  =     11110.85566525
  ---------------------------------------------------
  free energy    TOTEN  =       -18.60547013 eV

  energy without entropy =      -18.60547013  energy(sigma->0) =      -18.60547013
  exchange ACFDT corr.  =        -0.00000000  see jH, gK, PRB 81, 115126


--------------------------------------------------------------------------------------------------------




--------------------------------------- Iteration      1(   6)  ---------------------------------------


    POTLOK:  cpu time      3.1412: real time      3.1429
    SETDIJ:  cpu time      2.2797: real time      2.2816
    TRIAL :  cpu time     16.6379: real time     16.6934
    CORREC:  cpu time     22.2653: real time     22.3518
    CHARGE:  cpu time      0.5253: real time      0.5352
    --------------------------------------------
      LOOP:  cpu time     44.8527: real time     45.0121

 eigenvalue-minimisations  :     0
 total energy-change (2. order) : 0.4326924E+01  (-0.1978417E+01)
 number of electron      88.0000031 magnetization 
 augmentation part       56.7749071 magnetization 

 Free energy of the ion-electron system (eV)
  ---------------------------------------------------
  alpha Z        PSCENC =         5.85062430
  Ewald energy   TEWEN  =      7878.33158863
  -Hartree energ DENC   =    -18279.40835563
  -exchange      EXHF   =       216.29082211
  -V(xc)+E(xc)   XCENC  =       282.62026558
  PAW double counting   =     10894.60216652   -11709.08710349
  entropy T*S    EENTRO =        -0.00000000
  eigenvalues    EBANDS =      -414.33421929
  atomic energy  EATOM  =     11110.85566525
  ---------------------------------------------------
  free energy    TOTEN  =       -14.27854603 eV

  energy without entropy =      -14.27854603  energy(sigma->0) =      -14.27854603
  exchange ACFDT corr.  =        -0.00000000  see jH, gK, PRB 81, 115126


--------------------------------------------------------------------------------------------------------




--------------------------------------- Iteration      1(   7)  ---------------------------------------


    POTLOK:  cpu time      3.1931: real time      3.1949
    SETDIJ:  cpu time      2.2788: real time      2.2807
    TRIAL :  cpu time     16.3556: real time     16.3672
    CORREC:  cpu time     22.3809: real time     22.5138
    CHARGE:  cpu time      0.5171: real time      0.5110
    --------------------------------------------
      LOOP:  cpu time     44.7281: real time     44.8741

 eigenvalue-minimisations  :     0
 total energy-change (2. order) :-0.1995150E+01  (-0.6436704E+00)
 number of electron      88.0000031 magnetization 
 augmentation part       57.0295026 magnetization 

 Free energy of the ion-electron system (eV)
  ---------------------------------------------------
  alpha Z        PSCENC =         5.85062430
  Ewald energy   TEWEN  =      7878.33158863
  -Hartree energ DENC   =    -18131.21288492
  -exchange      EXHF   =       214.79750819
  -V(xc)+E(xc)   XCENC  =       280.43081802
  PAW double counting   =     10783.07882243   -11585.04818209
  entropy T*S    EENTRO =        -0.00000000
  eigenvalues    EBANDS =      -573.35765626
  atomic energy  EATOM  =     11110.85566525
  ---------------------------------------------------
  free energy    TOTEN  =       -16.27369647 eV

  energy without entropy =      -16.27369647  energy(sigma->0) =      -16.27369647
  exchange ACFDT corr.  =        -0.00000000  see jH, gK, PRB 81, 115126


--------------------------------------------------------------------------------------------------------




--------------------------------------- Iteration      1(   8)  ---------------------------------------


    POTLOK:  cpu time      3.1957: real time      3.1984
    SETDIJ:  cpu time      2.2803: real time      2.2815
    TRIAL :  cpu time     16.3532: real time     16.3650
    CORREC:  cpu time     22.0208: real time     22.1872
    CHARGE:  cpu time      0.4633: real time      0.4885
    --------------------------------------------
      LOOP:  cpu time     44.3164: real time     44.5272

 eigenvalue-minimisations  :     0
 total energy-change (2. order) :-0.6343002E+00  (-0.3002610E+00)
 number of electron      88.0000031 magnetization 
 augmentation part       57.0283072 magnetization 

 Free energy of the ion-electron system (eV)
  ---------------------------------------------------
  alpha Z        PSCENC =         5.85062430
  Ewald energy   TEWEN  =      7878.33158863
  -Hartree energ DENC   =    -18108.32256831
  -exchange      EXHF   =       215.10709364
  -V(xc)+E(xc)   XCENC  =       281.15184704
  PAW double counting   =     10757.79676901   -11568.96275043
  entropy T*S    EENTRO =        -0.00000000
  eigenvalues    EBANDS =      -588.71626576
  atomic energy  EATOM  =     11110.85566525
  ---------------------------------------------------
  free energy    TOTEN  =       -16.90799664 eV

  energy without entropy =      -16.90799664  energy(sigma->0) =      -16.90799664
  exchange ACFDT corr.  =        -0.00000000  see jH, gK, PRB 81, 115126


--------------------------------------------------------------------------------------------------------




--------------------------------------- Iteration      1(   9)  ---------------------------------------


    POTLOK:  cpu time      3.2005: real time      3.2022
    SETDIJ:  cpu time      2.2854: real time      2.2873
    TRIAL :  cpu time     16.4381: real time     16.4494
    CORREC:  cpu time     22.0379: real time     22.1981
    CHARGE:  cpu time      0.5257: real time      0.5108
    --------------------------------------------
      LOOP:  cpu time     44.4931: real time     44.6570

 eigenvalue-minimisations  :     0
 total energy-change (2. order) :-0.3018192E+00  (-0.8967596E-01)
 number of electron      88.0000031 magnetization 
 augmentation part       56.9450838 magnetization 

 Free energy of the ion-electron system (eV)
  ---------------------------------------------------
  alpha Z        PSCENC =         5.85062430
  Ewald energy   TEWEN  =      7878.33158863
  -Hartree energ DENC   =    -18092.04400739
  -exchange      EXHF   =       215.02341182
  -V(xc)+E(xc)   XCENC  =       281.05741770
  PAW double counting   =     10742.36990013   -11553.80089657
  entropy T*S    EENTRO =        -0.00000000
  eigenvalues    EBANDS =      -604.85351969
  atomic energy  EATOM  =     11110.85566525
  ---------------------------------------------------
  free energy    TOTEN  =       -17.20981582 eV

  energy without entropy =      -17.20981582  energy(sigma->0) =      -17.20981582
  exchange ACFDT corr.  =        -0.00000000  see jH, gK, PRB 81, 115126


--------------------------------------------------------------------------------------------------------




--------------------------------------- Iteration      1(  10)  ---------------------------------------


    POTLOK:  cpu time      3.2045: real time      3.2062
    SETDIJ:  cpu time      2.2840: real time      2.2861
    TRIAL :  cpu time     16.2557: real time     16.2674
    CORREC:  cpu time     22.1509: real time     22.3134
    CHARGE:  cpu time      0.5093: real time      0.5209
    --------------------------------------------
      LOOP:  cpu time     44.4071: real time     44.6006

 eigenvalue-minimisations  :     0
 total energy-change (2. order) :-0.8978861E-01  (-0.7729087E-01)
 number of electron      88.0000031 magnetization 
 augmentation part       57.0122324 magnetization 

 Free energy of the ion-electron system (eV)
  ---------------------------------------------------
  alpha Z        PSCENC =         5.85062430
  Ewald energy   TEWEN  =      7878.33158863
  -Hartree energ DENC   =    -18077.45815810
  -exchange      EXHF   =       214.84378312
  -V(xc)+E(xc)   XCENC  =       280.72566777
  PAW double counting   =     10730.18273932   -11538.09682290
  entropy T*S    EENTRO =        -0.00000000
  eigenvalues    EBANDS =      -622.53469181
  atomic energy  EATOM  =     11110.85566525
  ---------------------------------------------------
  free energy    TOTEN  =       -17.29960443 eV

  energy without entropy =      -17.29960443  energy(sigma->0) =      -17.29960443
  exchange ACFDT corr.  =        -0.00000000  see jH, gK, PRB 81, 115126


--------------------------------------------------------------------------------------------------------




--------------------------------------- Iteration      1(  11)  ---------------------------------------


    POTLOK:  cpu time      3.2053: real time      3.2081
    SETDIJ:  cpu time      2.2880: real time      2.2893
    TRIAL :  cpu time     16.4475: real time     16.4599
    CORREC:  cpu time     22.1357: real time     22.2819
    CHARGE:  cpu time      0.5014: real time      0.5068
    --------------------------------------------
      LOOP:  cpu time     44.5807: real time     44.7528

 eigenvalue-minimisations  :     0
 total energy-change (2. order) :-0.7719959E-01  (-0.2461423E-01)
 number of electron      88.0000031 magnetization 
 augmentation part       57.0455066 magnetization 

 Free energy of the ion-electron system (eV)
  ---------------------------------------------------
  alpha Z        PSCENC =         5.85062430
  Ewald energy   TEWEN  =      7878.33158863
  -Hartree energ DENC   =    -18082.19494644
  -exchange      EXHF   =       215.01622716
  -V(xc)+E(xc)   XCENC  =       281.00966724
  PAW double counting   =     10725.63745037   -11535.45759446
  entropy T*S    EENTRO =        -0.00000000
  eigenvalues    EBANDS =      -616.42548606
  atomic energy  EATOM  =     11110.85566525
  ---------------------------------------------------
  free energy    TOTEN  =       -17.37680402 eV

  energy without entropy =      -17.37680402  energy(sigma->0) =      -17.37680402
  exchange ACFDT corr.  =        -0.00000000  see jH, gK, PRB 81, 115126


--------------------------------------------------------------------------------------------------------




--------------------------------------- Iteration      1(  12)  ---------------------------------------


    POTLOK:  cpu time      3.2036: real time      3.2061
    SETDIJ:  cpu time      2.2848: real time      2.2861
    TRIAL :  cpu time     16.3445: real time     16.3567
    CORREC:  cpu time     22.3385: real time     22.4983
    CHARGE:  cpu time      0.4609: real time      0.4608
    --------------------------------------------
      LOOP:  cpu time     44.6354: real time     44.8150

 eigenvalue-minimisations  :     0
 total energy-change (2. order) :-0.2464420E-01  (-0.7536805E-02)
 number of electron      88.0000031 magnetization 
 augmentation part       57.0166448 magnetization 

 Free energy of the ion-electron system (eV)
  ---------------------------------------------------
  alpha Z        PSCENC =         5.85062430
  Ewald energy   TEWEN  =      7878.33158863
  -Hartree energ DENC   =    -18080.48559845
  -exchange      EXHF   =       215.05283087
  -V(xc)+E(xc)   XCENC  =       281.08951455
  PAW double counting   =     10720.32578866   -11531.12147518
  entropy T*S    EENTRO =        -0.00000000
  eigenvalues    EBANDS =      -617.30038685
  atomic energy  EATOM  =     11110.85566525
  ---------------------------------------------------
  free energy    TOTEN  =       -17.40144822 eV

  energy without entropy =      -17.40144822  energy(sigma->0) =      -17.40144822
  exchange ACFDT corr.  =        -0.00000000  see jH, gK, PRB 81, 115126


--------------------------------------------------------------------------------------------------------




--------------------------------------- Iteration      1(  13)  ---------------------------------------


    POTLOK:  cpu time      3.2115: real time      3.2140
    SETDIJ:  cpu time      2.2856: real time      2.2868
    TRIAL :  cpu time     16.5389: real time     16.5514
    CORREC:  cpu time     22.2323: real time     22.3331
    CHARGE:  cpu time      0.5830: real time      0.6465
    --------------------------------------------
      LOOP:  cpu time     44.8538: real time     45.0387

 eigenvalue-minimisations  :     0
 total energy-change (2. order) :-0.7554884E-02  (-0.5011232E-02)
 number of electron      88.0000031 magnetization 
 augmentation part       57.0199159 magnetization 

 Free energy of the ion-electron system (eV)
  ---------------------------------------------------
  alpha Z        PSCENC =         5.85062430
  Ewald energy   TEWEN  =      7878.33158863
  -Hartree energ DENC   =    -18074.38941800
  -exchange      EXHF   =       214.96190311
  -V(xc)+E(xc)   XCENC  =       280.93928598
  PAW double counting   =     10716.04620862   -11525.70273201
  entropy T*S    EENTRO =        -0.00000000
  eigenvalues    EBANDS =      -624.30212898
  atomic energy  EATOM  =     11110.85566525
  ---------------------------------------------------
  free energy    TOTEN  =       -17.40900310 eV

  energy without entropy =      -17.40900310  energy(sigma->0) =      -17.40900310
  exchange ACFDT corr.  =        -0.00000000  see jH, gK, PRB 81, 115126


--------------------------------------------------------------------------------------------------------




--------------------------------------- Iteration      1(  14)  ---------------------------------------


    POTLOK:  cpu time      3.2372: real time      3.2391
    SETDIJ:  cpu time      2.2833: real time      2.2852
    TRIAL :  cpu time     16.4376: real time     16.4494
    CORREC:  cpu time     22.0042: real time     22.0813
    CHARGE:  cpu time      0.5699: real time      0.6260
    --------------------------------------------
      LOOP:  cpu time     44.5487: real time     44.6977

 eigenvalue-minimisations  :     0
 total energy-change (2. order) :-0.5014081E-02  (-0.9235556E-03)
 number of electron      88.0000031 magnetization 
 augmentation part       57.0344697 magnetization 

 Free energy of the ion-electron system (eV)
  ---------------------------------------------------
  alpha Z        PSCENC =         5.85062430
  Ewald energy   TEWEN  =      7878.33158863
  -Hartree energ DENC   =    -18074.40485717
  -exchange      EXHF   =       214.95676085
  -V(xc)+E(xc)   XCENC  =       280.93408821
  PAW double counting   =     10716.19379440   -11525.95367027
  entropy T*S    EENTRO =        -0.00000000
  eigenvalues    EBANDS =      -624.17801139
  atomic energy  EATOM  =     11110.85566525
  ---------------------------------------------------
  free energy    TOTEN  =       -17.41401719 eV

  energy without entropy =      -17.41401719  energy(sigma->0) =      -17.41401719
  exchange ACFDT corr.  =        -0.00000000  see jH, gK, PRB 81, 115126


--------------------------------------------------------------------------------------------------------




--------------------------------------- Iteration      1(  15)  ---------------------------------------


    POTLOK:  cpu time      3.2201: real time      3.1895
    SETDIJ:  cpu time      2.2846: real time      2.2866
    TRIAL :  cpu time     16.4695: real time     16.4808
    CORREC:  cpu time     22.0523: real time     22.1554
    CHARGE:  cpu time      0.5605: real time      0.6087
    --------------------------------------------
      LOOP:  cpu time     44.5898: real time     44.7275

 eigenvalue-minimisations  :     0
 total energy-change (2. order) :-0.9242728E-03  (-0.8615340E-03)
 number of electron      88.0000031 magnetization 
 augmentation part       57.0254970 magnetization 

 Free energy of the ion-electron system (eV)
  ---------------------------------------------------
  alpha Z        PSCENC =         5.85062430
  Ewald energy   TEWEN  =      7878.33158863
  -Hartree energ DENC   =    -18076.36762659
  -exchange      EXHF   =       214.99384275
  -V(xc)+E(xc)   XCENC  =       280.99633175
  PAW double counting   =     10717.93820757   -11528.20499801
  entropy T*S    EENTRO =        -0.00000000
  eigenvalues    EBANDS =      -621.80857710
  atomic energy  EATOM  =     11110.85566525
  ---------------------------------------------------
  free energy    TOTEN  =       -17.41494146 eV

  energy without entropy =      -17.41494146  energy(sigma->0) =      -17.41494146
  exchange ACFDT corr.  =        -0.00000000  see jH, gK, PRB 81, 115126


--------------------------------------------------------------------------------------------------------




--------------------------------------- Iteration      1(  16)  ---------------------------------------


    POTLOK:  cpu time      3.0841: real time      3.0868
    SETDIJ:  cpu time      2.2851: real time      2.2862
    TRIAL :  cpu time     16.5171: real time     16.5295
    CORREC:  cpu time     21.8300: real time     21.9725
    CHARGE:  cpu time      0.5222: real time      0.5373
    --------------------------------------------
      LOOP:  cpu time     44.2420: real time     44.4197

 eigenvalue-minimisations  :     0
 total energy-change (2. order) :-0.8596397E-03  (-0.3496132E-03)
 number of electron      88.0000031 magnetization 
 augmentation part       57.0230389 magnetization 

 Free energy of the ion-electron system (eV)
  ---------------------------------------------------
  alpha Z        PSCENC =         5.85062430
  Ewald energy   TEWEN  =      7878.33158863
  -Hartree energ DENC   =    -18075.30472653
  -exchange      EXHF   =       214.97311090
  -V(xc)+E(xc)   XCENC  =       280.95779292
  PAW double counting   =     10718.40434590   -11528.28404726
  entropy T*S    EENTRO =        -0.00000000
  eigenvalues    EBANDS =      -623.20015520
  atomic energy  EATOM  =     11110.85566525
  ---------------------------------------------------
  free energy    TOTEN  =       -17.41580110 eV

  energy without entropy =      -17.41580110  energy(sigma->0) =      -17.41580110
  exchange ACFDT corr.  =        -0.00000000  see jH, gK, PRB 81, 115126


--------------------------------------------------------------------------------------------------------




--------------------------------------- Iteration      1(  17)  ---------------------------------------


    POTLOK:  cpu time      2.9421: real time      2.9439
    SETDIJ:  cpu time      2.2910: real time      2.2929
    TRIAL :  cpu time     16.5768: real time     16.5880
    CORREC:  cpu time     22.0619: real time     22.1920
    CHARGE:  cpu time      0.5274: real time      0.5371
    --------------------------------------------
      LOOP:  cpu time     44.4026: real time     44.5609

 eigenvalue-minimisations  :     0
 total energy-change (2. order) :-0.3508583E-03  (-0.8393407E-04)
 number of electron      88.0000031 magnetization 
 augmentation part       57.0284919 magnetization 

 Free energy of the ion-electron system (eV)
  ---------------------------------------------------
  alpha Z        PSCENC =         5.85062430
  Ewald energy   TEWEN  =      7878.33158863
  -Hartree energ DENC   =    -18075.42045621
  -exchange      EXHF   =       214.97087602
  -V(xc)+E(xc)   XCENC  =       280.95183313
  PAW double counting   =     10719.44128363   -11529.22531255
  entropy T*S    EENTRO =        -0.00000000
  eigenvalues    EBANDS =      -623.17225416
  atomic energy  EATOM  =     11110.85566525
  ---------------------------------------------------
  free energy    TOTEN  =       -17.41615196 eV

  energy without entropy =      -17.41615196  energy(sigma->0) =      -17.41615196
  exchange ACFDT corr.  =        -0.00000000  see jH, gK, PRB 81, 115126


--------------------------------------------------------------------------------------------------------




--------------------------------------- Iteration      1(  18)  ---------------------------------------


    POTLOK:  cpu time      2.9138: real time      2.9154
    SETDIJ:  cpu time      2.2880: real time      2.2898
    TRIAL :  cpu time     16.4605: real time     16.4721
    CORREC:  cpu time     21.8116: real time     21.9640
    CHARGE:  cpu time      0.5020: real time      0.5006
    --------------------------------------------
      LOOP:  cpu time     43.9792: real time     44.1490

 eigenvalue-minimisations  :     0
 total energy-change (2. order) :-0.8461720E-04  (-0.7767862E-04)
 number of electron      88.0000031 magnetization 
 augmentation part       57.0257761 magnetization 

 Free energy of the ion-electron system (eV)
  ---------------------------------------------------
  alpha Z        PSCENC =         5.85062430
  Ewald energy   TEWEN  =      7878.33158863
  -Hartree energ DENC   =    -18076.23944149
  -exchange      EXHF   =       214.98531443
  -V(xc)+E(xc)   XCENC  =       280.97659110
  PAW double counting   =     10720.15279844   -11530.14623197
  entropy T*S    EENTRO =        -0.00000000
  eigenvalues    EBANDS =      -622.18314525
  atomic energy  EATOM  =     11110.85566525
  ---------------------------------------------------
  free energy    TOTEN  =       -17.41623657 eV

  energy without entropy =      -17.41623657  energy(sigma->0) =      -17.41623657
  exchange ACFDT corr.  =        -0.00000000  see jH, gK, PRB 81, 115126


--------------------------------------------------------------------------------------------------------




--------------------------------------- Iteration      1(  19)  ---------------------------------------


    POTLOK:  cpu time      2.8965: real time      2.8984
    SETDIJ:  cpu time      2.2904: real time      2.2925
    TRIAL :  cpu time     16.7147: real time     16.7271
    CORREC:  cpu time     22.1856: real time     22.3293
    CHARGE:  cpu time      0.5496: real time      0.5403
    --------------------------------------------
      LOOP:  cpu time     44.6429: real time     44.7938

 eigenvalue-minimisations  :     0
 total energy-change (2. order) :-0.7660359E-04  (-0.2791335E-04)
 number of electron      88.0000031 magnetization 
 augmentation part       57.0242127 magnetization 

 Free energy of the ion-electron system (eV)
  ---------------------------------------------------
  alpha Z        PSCENC =         5.85062430
  Ewald energy   TEWEN  =      7878.33158863
  -Hartree energ DENC   =    -18075.90795442
  -exchange      EXHF   =       214.97815690
  -V(xc)+E(xc)   XCENC  =       280.96480307
  PAW double counting   =     10720.18430199   -11530.08831956
  entropy T*S    EENTRO =        -0.00000000
  eigenvalues    EBANDS =      -622.58517933
  atomic energy  EATOM  =     11110.85566525
  ---------------------------------------------------
  free energy    TOTEN  =       -17.41631318 eV

  energy without entropy =      -17.41631318  energy(sigma->0) =      -17.41631318
  exchange ACFDT corr.  =        -0.00000000  see jH, gK, PRB 81, 115126


--------------------------------------------------------------------------------------------------------




--------------------------------------- Iteration      1(  20)  ---------------------------------------


    POTLOK:  cpu time      2.8926: real time      2.8944
    SETDIJ:  cpu time      2.2867: real time      2.2885
    TRIAL :  cpu time     16.6083: real time     16.6196
    CORREC:  cpu time     22.1304: real time     22.2817
    CHARGE:  cpu time      0.5593: real time      0.5369
    --------------------------------------------
      LOOP:  cpu time     44.4808: real time     44.6283

 eigenvalue-minimisations  :     0
 total energy-change (2. order) :-0.2825976E-04  (-0.1236852E-04)
 number of electron      88.0000031 magnetization 
 augmentation part       57.0260040 magnetization 

 Free energy of the ion-electron system (eV)
  ---------------------------------------------------
  alpha Z        PSCENC =         5.85062430
  Ewald energy   TEWEN  =      7878.33158863
  -Hartree energ DENC   =    -18075.70534507
  -exchange      EXHF   =       214.97393037
  -V(xc)+E(xc)   XCENC  =       280.95795071
  PAW double counting   =     10720.13999681   -11529.99426959
  entropy T*S    EENTRO =        -0.00000000
  eigenvalues    EBANDS =      -622.82648284
  atomic energy  EATOM  =     11110.85566525
  ---------------------------------------------------
  free energy    TOTEN  =       -17.41634144 eV

  energy without entropy =      -17.41634144  energy(sigma->0) =      -17.41634144
  exchange ACFDT corr.  =        -0.00000000  see jH, gK, PRB 81, 115126


--------------------------------------------------------------------------------------------------------




--------------------------------------- Iteration      1(  21)  ---------------------------------------


    POTLOK:  cpu time      2.8860: real time      2.8878
    SETDIJ:  cpu time      2.2881: real time      2.2900
    TRIAL :  cpu time     16.7995: real time     16.8115
    CORREC:  cpu time     22.1180: real time     22.2962
    CHARGE:  cpu time      0.4979: real time      0.5076
    --------------------------------------------
      LOOP:  cpu time     44.5937: real time     44.8009

 eigenvalue-minimisations  :     0
 total energy-change (2. order) :-0.1310863E-04  (-0.8136037E-05)
 number of electron      88.0000031 magnetization 
 augmentation part       57.0254469 magnetization 

 Free energy of the ion-electron system (eV)
  ---------------------------------------------------
  alpha Z        PSCENC =         5.85062430
  Ewald energy   TEWEN  =      7878.33158863
  -Hartree energ DENC   =    -18075.96596938
  -exchange      EXHF   =       214.97851686
  -V(xc)+E(xc)   XCENC  =       280.96598658
  PAW double counting   =     10720.32246443   -11530.24836757
  entropy T*S    EENTRO =        -0.00000000
  eigenvalues    EBANDS =      -622.50686364
  atomic energy  EATOM  =     11110.85566525
  ---------------------------------------------------
  free energy    TOTEN  =       -17.41635455 eV

  energy without entropy =      -17.41635455  energy(sigma->0) =      -17.41635455
  exchange ACFDT corr.  =        -0.00000000  see jH, gK, PRB 81, 115126


--------------------------------------------------------------------------------------------------------




--------------------------------------- Iteration      1(  22)  ---------------------------------------


    POTLOK:  cpu time      2.8709: real time      2.8728
    SETDIJ:  cpu time      2.2854: real time      2.2873
    TRIAL :  cpu time     16.5393: real time     16.5513
    CORREC:  cpu time     21.9997: real time     22.1798
    CHARGE:  cpu time      0.4646: real time      0.4691
    --------------------------------------------
      LOOP:  cpu time     44.1640: real time     44.3679

 eigenvalue-minimisations  :     0
 total energy-change (2. order) :-0.8394220E-05  (-0.2806948E-05)
 number of electron      88.0000031 magnetization 
 augmentation part       57.0250805 magnetization 

 Free energy of the ion-electron system (eV)
  ---------------------------------------------------
  alpha Z        PSCENC =         5.85062430
  Ewald energy   TEWEN  =      7878.33158863
  -Hartree energ DENC   =    -18075.92846432
  -exchange      EXHF   =       214.97738783
  -V(xc)+E(xc)   XCENC  =       280.96387877
  PAW double counting   =     10720.33234288   -11530.24163277
  entropy T*S    EENTRO =        -0.00000000
  eigenvalues    EBANDS =      -622.55775349
  atomic energy  EATOM  =     11110.85566525
  ---------------------------------------------------
  free energy    TOTEN  =       -17.41636294 eV

  energy without entropy =      -17.41636294  energy(sigma->0) =      -17.41636294
  exchange ACFDT corr.  =        -0.00000000  see jH, gK, PRB 81, 115126


--------------------------------------------------------------------------------------------------------




--------------------------------------- Iteration      1(  23)  ---------------------------------------


    POTLOK:  cpu time      2.8668: real time      2.8687
    SETDIJ:  cpu time      2.2851: real time      2.2863
    TRIAL :  cpu time     16.5804: real time     16.5929
    CORREC:  cpu time     22.0194: real time     22.1891
    CHARGE:  cpu time      0.6204: real time      0.5834
    --------------------------------------------
      LOOP:  cpu time     44.3748: real time     44.5281

 eigenvalue-minimisations  :     0
 total energy-change (2. order) :-0.2356528E-05  (-0.2513586E-05)
 number of electron      88.0000031 magnetization 
 augmentation part       57.0255019 magnetization 

 Free energy of the ion-electron system (eV)
  ---------------------------------------------------
  alpha Z        PSCENC =         5.85062430
  Ewald energy   TEWEN  =      7878.33158863
  -Hartree energ DENC   =    -18075.88049171
  -exchange      EXHF   =       214.97656694
  -V(xc)+E(xc)   XCENC  =       280.96236529
  PAW double counting   =     10720.30386888   -11530.20028433
  entropy T*S    EENTRO =        -0.00000000
  eigenvalues    EBANDS =      -622.61626854
  atomic energy  EATOM  =     11110.85566525
  ---------------------------------------------------
  free energy    TOTEN  =       -17.41636530 eV

  energy without entropy =      -17.41636530  energy(sigma->0) =      -17.41636530
  exchange ACFDT corr.  =        -0.00000000  see jH, gK, PRB 81, 115126


--------------------------------------------------------------------------------------------------------




--------------------------------------- Iteration      1(  24)  ---------------------------------------


    POTLOK:  cpu time      2.8716: real time      2.8735
    SETDIJ:  cpu time      2.2849: real time      2.2867
    TRIAL :  cpu time     16.6952: real time     16.7078
    CORREC:  cpu time     22.2331: real time     22.3674
    CHARGE:  cpu time      0.5699: real time      0.6297
    --------------------------------------------
      LOOP:  cpu time     44.6585: real time     44.8724

 eigenvalue-minimisations  :     0
 total energy-change (2. order) :-0.2636305E-05  (-0.1017412E-05)
 number of electron      88.0000031 magnetization 
 augmentation part       57.0252540 magnetization 

 Free energy of the ion-electron system (eV)
  ---------------------------------------------------
  alpha Z        PSCENC =         5.85062430
  Ewald energy   TEWEN  =      7878.33158863
  -Hartree energ DENC   =    -18075.93083377
  -exchange      EXHF   =       214.97765983
  -V(xc)+E(xc)   XCENC  =       280.96410488
  PAW double counting   =     10720.31090210   -11530.22320137
  entropy T*S    EENTRO =        -0.00000000
  eigenvalues    EBANDS =      -622.55287778
  atomic energy  EATOM  =     11110.85566525
  ---------------------------------------------------
  free energy    TOTEN  =       -17.41636793 eV

  energy without entropy =      -17.41636793  energy(sigma->0) =      -17.41636793
  exchange ACFDT corr.  =        -0.00000000  see jH, gK, PRB 81, 115126


--------------------------------------------------------------------------------------------------------




--------------------------------------- Iteration      1(  25)  ---------------------------------------


    POTLOK:  cpu time      2.9266: real time      2.8943
    SETDIJ:  cpu time      2.2876: real time      2.2888
    TRIAL :  cpu time     16.7133: real time     16.7252
    CORREC:  cpu time     87.5071: real time     87.8826
    CHARGE:  cpu time      0.4653: real time      0.5557
    --------------------------------------------
      LOOP:  cpu time    109.9096: real time    110.3607

 eigenvalue-minimisations  :     0
 total energy-change (2. order) :-0.6975752E-06  (-0.9749668E-05)
 number of electron      88.0000031 magnetization 
 augmentation part       57.0248290 magnetization 

 Free energy of the ion-electron system (eV)
  ---------------------------------------------------
  alpha Z        PSCENC =         5.85062430
  Ewald energy   TEWEN  =      7878.33158863
  -Hartree energ DENC   =    -18075.89316506
  -exchange      EXHF   =       214.97705599
  -V(xc)+E(xc)   XCENC  =       280.96301540
  PAW double counting   =     10720.27227831   -11530.17599797
  entropy T*S    EENTRO =        -0.00000000
  eigenvalues    EBANDS =      -622.59743347
  atomic energy  EATOM  =     11110.85566525
  ---------------------------------------------------
  free energy    TOTEN  =       -17.41636863 eV

  energy without entropy =      -17.41636863  energy(sigma->0) =      -17.41636863
  exchange ACFDT corr.  =        -0.00000000  see jH, gK, PRB 81, 115126


--------------------------------------------------------------------------------------------------------




--------------------------------------- Iteration      1(  26)  ---------------------------------------


    POTLOK:  cpu time      3.0286: real time      3.0305
    SETDIJ:  cpu time      2.2895: real time      2.2914
    TRIAL :  cpu time     16.5517: real time     16.6064
    CORREC:  cpu time     21.7011: real time     21.7618
    CHARGE:  cpu time      0.4551: real time      0.5283
    --------------------------------------------
      LOOP:  cpu time     44.0283: real time     44.2247

 eigenvalue-minimisations  :     0
 total energy-change (2. order) : 0.1908179E-04  (-0.1387398E-04)
 number of electron      88.0000031 magnetization 
 augmentation part       57.0257096 magnetization 

 Free energy of the ion-electron system (eV)
  ---------------------------------------------------
  alpha Z        PSCENC =         5.85062430
  Ewald energy   TEWEN  =      7878.33158863
  -Hartree energ DENC   =    -18075.83267757
  -exchange      EXHF   =       214.97613288
  -V(xc)+E(xc)   XCENC  =       280.96126524
  PAW double counting   =     10720.12608995   -11530.02090362
  entropy T*S    EENTRO =        -0.00000000
  eigenvalues    EBANDS =      -622.66413461
  atomic energy  EATOM  =     11110.85566525
  ---------------------------------------------------
  free energy    TOTEN  =       -17.41634955 eV

  energy without entropy =      -17.41634955  energy(sigma->0) =      -17.41634955
  exchange ACFDT corr.  =        -0.00000000  see jH, gK, PRB 81, 115126


--------------------------------------------------------------------------------------------------------




--------------------------------------- Iteration      1(  27)  ---------------------------------------


    POTLOK:  cpu time      3.1464: real time      3.1483
    SETDIJ:  cpu time      2.2805: real time      2.2825
    TRIAL :  cpu time     16.6788: real time     16.7354
    CORREC:  cpu time     21.6648: real time     21.7173
    CHARGE:  cpu time      0.5865: real time      0.6425
    --------------------------------------------
      LOOP:  cpu time     44.3634: real time     44.5325

 eigenvalue-minimisations  :     0
 total energy-change (2. order) :-0.1417578E-04  (-0.4214868E-05)
 number of electron      88.0000031 magnetization 
 augmentation part       57.0250871 magnetization 

 Free energy of the ion-electron system (eV)
  ---------------------------------------------------
  alpha Z        PSCENC =         5.85062430
  Ewald energy   TEWEN  =      7878.33158863
  -Hartree energ DENC   =    -18075.94548576
  -exchange      EXHF   =       214.97824916
  -V(xc)+E(xc)   XCENC  =       280.96495934
  PAW double counting   =     10720.18112745   -11530.10713422
  entropy T*S    EENTRO =        -0.00000000
  eigenvalues    EBANDS =      -622.52595787
  atomic energy  EATOM  =     11110.85566525
  ---------------------------------------------------
  free energy    TOTEN  =       -17.41636372 eV

  energy without entropy =      -17.41636372  energy(sigma->0) =      -17.41636372
  exchange ACFDT corr.  =        -0.00000000  see jH, gK, PRB 81, 115126


--------------------------------------------------------------------------------------------------------




--------------------------------------- Iteration      1(  28)  ---------------------------------------


    POTLOK:  cpu time      2.8759: real time      2.8778
    SETDIJ:  cpu time      2.2850: real time      2.2861
    TRIAL :  cpu time     16.5949: real time     16.6587
    CORREC:  cpu time     21.6947: real time     21.7443
    CHARGE:  cpu time      0.6056: real time      0.6063
    --------------------------------------------
      LOOP:  cpu time     44.0614: real time     44.1827

 eigenvalue-minimisations  :     0
 total energy-change (2. order) :-0.4562839E-05  (-0.1468828E-05)
 number of electron      88.0000031 magnetization 
 augmentation part       57.0250807 magnetization 

 Free energy of the ion-electron system (eV)
  ---------------------------------------------------
  alpha Z        PSCENC =         5.85062430
  Ewald energy   TEWEN  =      7878.33158863
  -Hartree energ DENC   =    -18075.86127160
  -exchange      EXHF   =       214.97671626
  -V(xc)+E(xc)   XCENC  =       280.96228796
  PAW double counting   =     10720.14944201   -11530.05216122
  entropy T*S    EENTRO =        -0.00000000
  eigenvalues    EBANDS =      -622.62925987
  atomic energy  EATOM  =     11110.85566525
  ---------------------------------------------------
  free energy    TOTEN  =       -17.41636829 eV

  energy without entropy =      -17.41636829  energy(sigma->0) =      -17.41636829
  exchange ACFDT corr.  =        -0.00000000  see jH, gK, PRB 81, 115126


--------------------------------------------------------------------------------------------------------




--------------------------------------- Iteration      1(  29)  ---------------------------------------


    POTLOK:  cpu time      2.9296: real time      2.9697
    SETDIJ:  cpu time      2.2825: real time      2.2845
    TRIAL :  cpu time     17.0226: real time     17.0926
    CORREC:  cpu time     21.7419: real time     21.7562
    CHARGE:  cpu time      0.6040: real time      0.6046
    --------------------------------------------
      LOOP:  cpu time     44.6133: real time     44.7482

 eigenvalue-minimisations  :     0
 total energy-change (2. order) :-0.6036807E-06  (-0.1019315E-05)
 number of electron      88.0000031 magnetization 
 augmentation part       57.0253183 magnetization 

 Free energy of the ion-electron system (eV)
  ---------------------------------------------------
  alpha Z        PSCENC =         5.85062430
  Ewald energy   TEWEN  =      7878.33158863
  -Hartree energ DENC   =    -18075.87392213
  -exchange      EXHF   =       214.97676451
  -V(xc)+E(xc)   XCENC  =       280.96239212
  PAW double counting   =     10720.17776937   -11530.08049722
  entropy T*S    EENTRO =        -0.00000000
  eigenvalues    EBANDS =      -622.61675372
  atomic energy  EATOM  =     11110.85566525
  ---------------------------------------------------
  free energy    TOTEN  =       -17.41636889 eV

  energy without entropy =      -17.41636889  energy(sigma->0) =      -17.41636889
  exchange ACFDT corr.  =        -0.00000000  see jH, gK, PRB 81, 115126


--------------------------------------------------------------------------------------------------------




--------------------------------------- Iteration      1(  30)  ---------------------------------------


    POTLOK:  cpu time      2.9427: real time      2.9821
    SETDIJ:  cpu time      2.2875: real time      2.2894
    TRIAL :  cpu time     16.7947: real time     16.8693
    CORREC:  cpu time     21.5429: real time     21.5267
    EDDIAG:  cpu time     15.6758: real time     15.7416
    CHARGE:  cpu time      0.5274: real time      0.5280
    --------------------------------------------
      LOOP:  cpu time     59.8018: real time     59.9721

 eigenvalue-minimisations  :     0
 total energy-change (2. order) :-0.8861680E-06  (-0.6925848E-06)
 number of electron      88.0000031 magnetization 
 augmentation part       57.0251814 magnetization 

 Free energy of the ion-electron system (eV)
  ---------------------------------------------------
  alpha Z        PSCENC =         5.85062430
  Ewald energy   TEWEN  =      7878.33158863
  -Hartree energ DENC   =    -18075.91425726
  -exchange      EXHF   =       214.97699677
  -V(xc)+E(xc)   XCENC  =       280.96342942
  PAW double counting   =     10720.21673339   -11530.12810449
  entropy T*S    EENTRO =        -0.00000000
  eigenvalues    EBANDS =      -622.56941674
  atomic energy  EATOM  =     11110.85566525
  ---------------------------------------------------
  free energy    TOTEN  =       -17.41636978 eV

  energy without entropy =      -17.41636978  energy(sigma->0) =      -17.41636978
  exchange ACFDT corr.  =        -0.00000000  see jH, gK, PRB 81, 115126


--------------------------------------------------------------------------------------------------------


  average scaling for gradient   0.9321


 average (electrostatic) potential at core
  the test charge radii are     0.9430
  (the norm of the test charge is              1.0000)
       1 -67.3141       2 -67.4425       3 -66.9620       4 -67.4428       5 -67.3985
       6 -67.9748       7 -67.3140       8 -67.3983
 
 
 
 E-fermi :  -4.3425     XC(G=0):  -0.3107     alpha+bet : -0.1585

 Fermi energy:        -4.3425392983

 k-point     1 :       0.0000    0.0000    0.0000
  band No.  band energies     occupation 
      1      -9.6541      2.00000
      2      -8.7650      2.00000
      3      -8.7495      2.00000
      4      -8.5738      2.00000
      5      -8.0652      2.00000
      6      -8.0423      2.00000
      7      -8.0360      2.00000
      8      -8.0188      2.00000
      9      -7.9578      2.00000
     10      -7.7034      2.00000
     11      -7.6514      2.00000
     12      -7.5143      2.00000
     13      -7.4592      2.00000
     14      -7.4296      2.00000
     15      -7.4066      2.00000
     16      -7.3949      2.00000
     17      -7.3449      2.00000
     18      -7.2452      2.00000
     19      -6.9700      2.00000
     20      -6.9219      2.00000
     21      -6.9155      2.00000
     22      -6.9093      2.00000
     23      -6.8460      2.00000
     24      -6.8121      2.00000
     25      -6.7784      2.00000
     26      -6.7550      2.00000
     27      -6.7359      2.00000
     28      -6.7029      2.00000
     29      -6.6719      2.00000
     30      -6.6625      2.00000
     31      -6.6131      2.00000
     32      -6.5850      2.00000
     33      -6.5837      2.00000
     34      -6.5054      2.00000
     35      -6.4566      2.00000
     36      -6.3564      2.00000
     37      -6.2947      2.00000
     38      -6.2777      2.00000
     39      -6.2365      2.00000
     40      -6.2134      2.00000
     41      -6.1157      2.00000
     42      -6.0225      2.00000
     43      -5.7496      2.00000
     44      -4.6023      2.00000
     45      -2.8661      0.00000
     46      -2.4445      0.00000
     47      -1.8683      0.00000
     48      -1.5454      0.00000
     49      -0.8348      0.00000
     50      -0.5651      0.00000
     51      -0.5173      0.00000
     52      -0.4301      0.00000
     53      -0.2107      0.00000
     54      -0.0033      0.00000
     55       0.1964      0.00000
     56       0.4888      0.00000
     57       0.5004      0.00000
     58       0.5164      0.00000
     59       0.5317      0.00000
     60       0.5493      0.00000
     61       0.5845      0.00000
     62       0.7183      0.00000
     63       0.7587      0.00000
     64       0.8129      0.00000


--------------------------------------------------------------------------------------------------------


 soft charge-density along one line, spin component           1
         0         1         2         3         4         5         6         7         8         9
 total charge-density along one line
 
 pseudopotential strength for first ion, spin component:           1
 -7.458   0.017  -0.028   0.016   0.001  -1.524  -0.012   0.020
  0.017  -7.444   0.010   0.022  -0.018  -0.012  -1.535  -0.007
 -0.028   0.010  -7.432   0.009  -0.003   0.020  -0.007  -1.542
  0.016   0.022   0.009  -7.435   0.016  -0.012  -0.016  -0.007
  0.001  -0.018  -0.003   0.016  -7.456  -0.000   0.014   0.003
 -1.524  -0.012   0.020  -0.012  -0.000   8.183   0.007  -0.011
 -0.012  -1.535  -0.007  -0.016   0.014   0.007   8.190   0.004
  0.020  -0.007  -1.542  -0.007   0.003  -0.011   0.004   8.193
 -0.012  -0.016  -0.007  -1.540  -0.012   0.007   0.010   0.004
 -0.000   0.014   0.003  -0.012  -1.525  -0.000  -0.007  -0.001
 -0.007  -0.009  -0.003  -0.007  -0.002  -0.001   0.000  -0.000
 -0.012  -0.015  -0.005  -0.013  -0.003  -0.002   0.000  -0.001
  0.011   0.004   0.010   0.000   0.017  -0.009  -0.003  -0.007
  0.000  -0.018   0.005   0.010   0.000   0.000   0.011  -0.002
 -0.018   0.000  -0.007   0.005   0.011   0.012   0.000   0.005
  0.012   0.005   0.012   0.000   0.019  -0.008  -0.004  -0.007
  0.000  -0.019   0.006   0.011   0.000   0.000   0.010  -0.003
 -0.021   0.000  -0.007   0.006   0.011   0.011   0.000   0.004
 total augmentation occupancy for first ion, spin component:           1
  1.983   0.008  -0.005   0.002   0.003   0.004  -0.008   0.009  -0.004  -0.003   0.028  -0.001  -0.052   0.003   0.047   0.018
  0.008   1.987   0.004  -0.000  -0.002  -0.008   0.003  -0.006  -0.002   0.009   0.023   0.009  -0.004   0.032   0.004   0.003
 -0.005   0.004   1.986   0.001   0.002   0.009  -0.006  -0.004  -0.002  -0.000   0.014  -0.002  -0.030   0.005   0.026   0.014
  0.002  -0.000   0.001   1.991  -0.001  -0.004  -0.002  -0.002  -0.004  -0.004   0.017   0.007  -0.005  -0.037   0.013  -0.000
  0.003  -0.002   0.002  -0.001   1.990  -0.003   0.009  -0.000  -0.004  -0.001   0.007   0.001  -0.034   0.004  -0.034   0.023
  0.004  -0.008   0.009  -0.004  -0.003   0.007  -0.000   0.002  -0.001   0.001  -0.039   0.006  -0.016   0.003   0.011   0.002
 -0.008   0.003  -0.006  -0.002   0.009  -0.000   0.006  -0.000  -0.001   0.002  -0.057   0.007  -0.007   0.009   0.001   0.001
  0.009  -0.006  -0.004  -0.002  -0.000   0.002  -0.000   0.004  -0.001   0.001  -0.015   0.003  -0.009   0.004   0.005   0.001
 -0.004  -0.002  -0.002  -0.004  -0.004  -0.001  -0.001  -0.001   0.007  -0.003  -0.046   0.007   0.005  -0.018   0.012  -0.000
 -0.003   0.009  -0.000  -0.004  -0.001   0.001   0.002   0.001  -0.003   0.007  -0.013   0.001  -0.014   0.011  -0.011   0.001
  0.028   0.023   0.014   0.017   0.007  -0.039  -0.057  -0.015  -0.046  -0.013   2.134  -0.268   0.210   0.013  -0.209  -0.024
 -0.001   0.009  -0.002   0.007   0.001   0.006   0.007   0.003   0.007   0.001  -0.268   0.036  -0.029  -0.006   0.034   0.003
 -0.052  -0.004  -0.030  -0.005  -0.034  -0.016  -0.007  -0.009   0.005  -0.014   0.210  -0.029   0.081  -0.036  -0.011  -0.009
  0.003   0.032   0.005  -0.037   0.004   0.003   0.009   0.004  -0.018   0.011   0.013  -0.006  -0.036   0.076  -0.036   0.003
  0.047   0.004   0.026   0.013  -0.034   0.011   0.001   0.005   0.012  -0.011  -0.209   0.034  -0.011  -0.036   0.075   0.002
  0.018   0.003   0.014  -0.000   0.023   0.002   0.001   0.001  -0.000   0.001  -0.024   0.003  -0.009   0.003   0.002   0.001
 -0.000  -0.023   0.003   0.019  -0.000  -0.000  -0.001  -0.000   0.002  -0.001  -0.003   0.001   0.003  -0.008   0.003  -0.000
 -0.023  -0.000  -0.010   0.002   0.018  -0.001  -0.000  -0.001  -0.001   0.001   0.025  -0.004   0.002   0.003  -0.009  -0.000


------------------------ aborting loop because EDIFF is reached ----------------------------------------


    FORLOC:  cpu time      0.0925: real time      0.0925
    FORHF :  cpu time      7.2537: real time      7.3389
    FORNL :  cpu time      0.6317: real time      0.6324
    FORCOR:  cpu time      5.0150: real time      5.0188
    OFIELD:  cpu time      0.0012: real time      0.0012
 WARNING: Using user supplied parameters
     VDW_S8 = 1.703
     VDW_SR = 1.261
     because the xc functional is not supported. Required parameters not
     defined in the INCAR file will be replaced with PBE defaults ones.


 ---------------------------------------------------------------------------------------------

         DFTD3 V3.0 Rev 1        
 IVDW         = 11
 DF unknown   
 parameters
 VDW_S6       =    1.0000
 VDW_S8       =    1.7030
 VDW_SR       =    1.2610
 rs18     =    1.0000
 alpha6   =   14.0000
 alpha8   =   16.0000
 k1-k3    =   16.0000    1.3333   -4.0000
 VDW_RADIUS   =   50.2022 A
 VDW_CNRADIUS =   21.1671 A
 Edisp (eV)   -0.46802

 E6    (eV) :    -0.0466
 E8    (eV) :    -0.4214
 % E8        : 90.04
    FORVDW:  cpu time      0.0410: real time      0.0417

 VOLUME and BASIS-vectors are now :
 -----------------------------------------------------------------------------
  energy-cutoff  :      520.00
  volume of cell :     8000.00
      direct lattice vectors                 reciprocal lattice vectors
    20.000000000  0.000000000  0.000000000     0.050000000  0.000000000  0.000000000
     0.000000000 20.000000000  0.000000000     0.000000000  0.050000000  0.000000000
     0.000000000  0.000000000 20.000000000     0.000000000  0.000000000  0.050000000

  length of vectors
    20.000000000 20.000000000 20.000000000     0.050000000  0.050000000  0.050000000


 FORCES acting on ions:
    Electron-Ion                     Ewald-Force                    Non-Local-Force
 -----------------------------------------------------------------------------------------------
   -.715E+03 0.519E+03 0.191E+03   0.710E+03 -.512E+03 -.192E+03   0.588E+01 -.716E+01 0.575E+00
   0.482E+03 -.574E+03 0.454E+02   -.479E+03 0.569E+03 -.443E+02   -.347E+01 0.525E+01 -.116E+01
   0.717E+03 -.124E+03 -.445E+03   -.708E+03 0.122E+03 0.440E+03   -.943E+01 0.160E+01 0.578E+01
   0.291E+03 0.430E+03 -.542E+03   -.290E+03 -.426E+03 0.538E+03   -.164E+01 -.431E+01 0.444E+01
   -.211E+03 0.774E+03 -.423E+03   0.207E+03 -.765E+03 0.419E+03   0.399E+01 -.918E+01 0.387E+01
   -.814E+02 0.992E+01 0.436E+02   0.800E+02 -.964E+01 -.427E+02   0.137E+01 -.263E+00 -.877E+00
   -.564E+03 -.269E+03 0.654E+03   0.561E+03 0.263E+03 -.648E+03   0.346E+01 0.531E+01 -.679E+01
   0.802E+02 -.767E+03 0.477E+03   -.810E+02 0.759E+03 -.471E+03   0.667E+00 0.854E+01 -.644E+01
 -----------------------------------------------------------------------------------------------
   -.782E+00 0.212E+00 0.619E+00   0.313E-12 0.000E+00 -.568E-13   0.830E+00 -.201E+00 -.602E+00
 
 
 POSITION                                       TOTAL-FORCE (eV/Angst)
 -----------------------------------------------------------------------------------
     12.71601      8.66046      9.25451         0.295427     -0.192891     -0.092715
      8.85623     11.30179     10.33667        -0.143215      0.231683     -0.058400
      7.32671     10.59480     11.97745        -0.301122      0.052344      0.185494
      9.23533      9.30544     11.50489        -0.062467     -0.192621      0.191172
     11.15854      8.00965     11.00088         0.046486     -0.268965      0.169154
     10.82296      9.98406      9.79645        -0.014762      0.007572      0.012704
     12.33709     10.64151      8.09164         0.237182      0.086815     -0.260050
     10.40510     11.99223      8.67579        -0.057528      0.276063     -0.147359
 -----------------------------------------------------------------------------------
    total drift:                               -0.001535      0.006888      0.003158


--------------------------------------------------------------------------------------------------------



  FREE ENERGIE OF THE ION-ELECTRON SYSTEM (eV)
  ---------------------------------------------------
  free  energy   TOTEN  =       -17.88438990 eV

  energy  without entropy=      -17.88438990  energy(sigma->0) =      -17.88438990
 


--------------------------------------------------------------------------------------------------------


    POTLOK:  cpu time      5.2003: real time      5.2032


--------------------------------------------------------------------------------------------------------


     LOOP+:  cpu time   1244.4856: real time   1249.2613
    4ORBIT:  cpu time      0.0000: real time      0.0000

 total amount of memory used by VASP MPI-rank0  3556963. kBytes
=======================================================================

   base      :      30000. kBytes
   nonlr-proj:      11509. kBytes
   fftplans  :      28721. kBytes
   grid      :     157056. kBytes
   one-center:        124. kBytes
   HF        :         64. kBytes
   wavefun   :      10353. kBytes
   fock_wrk  :    3319136. kBytes
 
  
  
 General timing and accounting informations for this job:
 ========================================================
  
                  Total CPU time used (sec):     1258.040
                            User time (sec):     1139.728
                          System time (sec):      118.312
                         Elapsed time (sec):     1263.790
  
                   Maximum memory used (kb):     5706944.
                   Average memory used (kb):          N/A
  
                          Minor page faults:      1935648
                          Major page faults:            0
                 Voluntary context switches:        18025
